 Gaussian 16, Revision A.03,

 -----------------------------------------------------------
 # opt freq B3LYP/6-31G(d) empiricaldispersion=gd3bj scf=xqc
 -----------------------------------------------------------

 -------------------------------
 CID_115008895_JID_8498_neutraal
 -------------------------------
 Symbolic Z-matrix:
 Charge =  0 Multiplicity = 1

 SCF Done:  E(RB3LYP) =  -730.113520605     A.U. after   14 cycles
 SCF Done:  E(RB3LYP) =  -730.117184601     A.U. after   12 cycles
 SCF Done:  E(RB3LYP) =  -730.117058167     A.U. after   12 cycles
 SCF Done:  E(RB3LYP) =  -730.117703430     A.U. after   11 cycles
 SCF Done:  E(RB3LYP) =  -730.117749177     A.U. after   12 cycles
 SCF Done:  E(RB3LYP) =  -730.117915451     A.U. after   11 cycles
 SCF Done:  E(RB3LYP) =  -730.117930420     A.U. after   10 cycles
 SCF Done:  E(RB3LYP) =  -730.117935751     A.U. after   10 cycles
 SCF Done:  E(RB3LYP) =  -730.117938878     A.U. after    9 cycles
 SCF Done:  E(RB3LYP) =  -730.117940675     A.U. after    9 cycles
 SCF Done:  E(RB3LYP) =  -730.117943288     A.U. after    8 cycles
 SCF Done:  E(RB3LYP) =  -730.117944099     A.U. after    8 cycles
 SCF Done:  E(RB3LYP) =  -730.117945126     A.U. after    9 cycles
 SCF Done:  E(RB3LYP) =  -730.117945852     A.U. after    9 cycles
 SCF Done:  E(RB3LYP) =  -730.117946046     A.U. after    8 cycles
 Optimization completed.
    -- Stationary point found.
 Normal termination of Gaussian 16 at Fri Dec 11 20:57:57 2020.

 --------------------------------------------------------------------
 #N Geom=AllCheck Guess=TCheck SCRF=Check GenChk RB3LYP/6-31G(d) Freq
 --------------------------------------------------------------------

 Structure from the checkpoint file:  "JID_8498.chk"
 -------------------------------
 CID_115008895_JID_8498_neutraal
 -------------------------------
 Charge =  0 Multiplicity = 1

 SCF Done:  E(RB3LYP) =  -730.117946046     A.U. after    1 cycles

  Exact polarizability: 195.599 -26.274 176.200  -2.118  -2.542 134.142
 Approx polarizability: 285.868 -46.301 266.956  -5.214 -10.674 232.758

                      1                      2                      3
                      A                      A                      A
 Frequencies --     25.2127                46.0844                56.9976
 Red. masses --      3.4580                 1.8577                 3.9857
 Frc consts  --      0.0013                 0.0023                 0.0076
 IR Inten    --      0.0065                 0.0251                 0.3889

                      4                      5                      6
                      A                      A                      A
 Frequencies --     71.2998                83.6033               115.6774
 Red. masses --      4.0415                 3.6592                 3.9664
 Frc consts  --      0.0121                 0.0151                 0.0313
 IR Inten    --      0.2745                 0.6732                 0.5381

                      7                      8                      9
                      A                      A                      A
 Frequencies --    175.6909               218.6172               241.2876
 Red. masses --      3.7571                 2.8729                 4.0781
 Frc consts  --      0.0683                 0.0809                 0.1399
 IR Inten    --      0.3189                 1.3532                 0.1051

                     10                     11                     12
                      A                      A                      A
 Frequencies --    263.7649               275.5532               332.5080
 Red. masses --      3.7513                 3.5420                 1.4167
 Frc consts  --      0.1538                 0.1585                 0.0923
 IR Inten    --      3.9343                 1.2276                12.3578

                     13                     14                     15
                      A                      A                      A
 Frequencies --    350.1121               354.4326               371.3925
 Red. masses --      4.4145                 2.5045                 3.1606
 Frc consts  --      0.3188                 0.1854                 0.2569
 IR Inten    --      0.4213                 2.4196                 4.1749

                     16                     17                     18
                      A                      A                      A
 Frequencies --    413.5780               424.6248               478.1186
 Red. masses --      2.6739                 2.5798                 3.3338
 Frc consts  --      0.2695                 0.2741                 0.4490
 IR Inten    --      1.0948                 1.6025                 1.4736

                     19                     20                     21
                      A                      A                      A
 Frequencies --    538.3442               568.8255               603.5068
 Red. masses --      3.8370                 3.4953                 4.3518
 Frc consts  --      0.6552                 0.6663                 0.9339
 IR Inten    --      3.7454                 5.3045                10.2438

                     22                     23                     24
                      A                      A                      A
 Frequencies --    637.5711               642.6657               652.0060
 Red. masses --      5.5578                 2.6756                 6.3579
 Frc consts  --      1.3311                 0.6511                 1.5924
 IR Inten    --      0.1297                 0.3668                 2.9172

                     25                     26                     27
                      A                      A                      A
 Frequencies --    677.5625               721.6328               733.1164
 Red. masses --      5.7491                 1.7427                 2.2656
 Frc consts  --      1.5551                 0.5347                 0.7174
 IR Inten    --      8.1623                35.7024                 2.6382

                     28                     29                     30
                      A                      A                      A
 Frequencies --    777.4872               782.8295               797.0006
 Red. masses --      2.6174                 3.0759                 4.2267
 Frc consts  --      0.9322                 1.1106                 1.5819
 IR Inten    --     10.5113                13.7428                 0.3736

                     31                     32                     33
                      A                      A                      A
 Frequencies --    807.4301               839.4035               855.8436
 Red. masses --      1.7089                 1.7752                 1.3486
 Frc consts  --      0.6564                 0.7370                 0.5820
 IR Inten    --      8.9974                14.2058                15.2459

                     34                     35                     36
                      A                      A                      A
 Frequencies --    865.3595               888.5149               910.5648
 Red. masses --      1.2492                 1.6633                 2.5697
 Frc consts  --      0.5511                 0.7737                 1.2553
 IR Inten    --      2.7024               135.1937                 4.1562

                     37                     38                     39
                      A                      A                      A
 Frequencies --    931.7541               936.7355               953.6908
 Red. masses --      1.6839                 2.0639                 1.3872
 Frc consts  --      0.8613                 1.0670                 0.7434
 IR Inten    --      2.2426                 0.6250                 0.2682

                     40                     41                     42
                      A                      A                      A
 Frequencies --    971.9972               978.1800               988.0686
 Red. masses --      1.3648                 2.1394                 1.4360
 Frc consts  --      0.7597                 1.2061                 0.8260
 IR Inten    --      0.5374                 2.4683                 0.3347

                     43                     44                     45
                      A                      A                      A
 Frequencies --    997.9575              1009.6583              1022.5650
 Red. masses --      1.2457                 1.9738                 6.2325
 Frc consts  --      0.7310                 1.1855                 3.8397
 IR Inten    --      0.2198                33.0536                 2.3402

                     46                     47                     48
                      A                      A                      A
 Frequencies --   1028.9362              1049.8946              1054.3192
 Red. masses --      7.3073                 1.7884                 1.9451
 Frc consts  --      4.5581                 1.1615                 1.2739
 IR Inten    --     15.2294                 6.5933                 0.8115

                     49                     50                     51
                      A                      A                      A
 Frequencies --   1063.0348              1068.2160              1098.8100
 Red. masses --      2.0297                 2.0209                 1.7409
 Frc consts  --      1.3514                 1.3587                 1.2384
 IR Inten    --      1.0989                 1.0416                11.9154

                     52                     53                     54
                      A                      A                      A
 Frequencies --   1109.8066              1128.8428              1194.5355
 Red. masses --      1.5891                 2.0812                 1.0987
 Frc consts  --      1.1532                 1.5625                 0.9237
 IR Inten    --      4.4927                 4.5720                 0.0288

                     55                     56                     57
                      A                      A                      A
 Frequencies --   1198.1075              1213.8474              1225.3782
 Red. masses --      2.5139                 1.1356                 1.5420
 Frc consts  --      2.1261                 0.9859                 1.3642
 IR Inten    --      5.9041                 0.3417                 0.3650

                     58                     59                     60
                      A                      A                      A
 Frequencies --   1230.3241              1261.5761              1265.1762
 Red. masses --      1.4918                 1.9923                 1.5126
 Frc consts  --      1.3305                 1.8683                 1.4265
 IR Inten    --      1.2439                24.6653                 3.6865

                     61                     62                     63
                      A                      A                      A
 Frequencies --   1272.4352              1296.7645              1311.2665
 Red. masses --      3.3353                 1.3791                 2.6009
 Frc consts  --      3.1817                 1.3664                 2.6348
 IR Inten    --      2.9113                 5.0439                 0.8072

                     64                     65                     66
                      A                      A                      A
 Frequencies --   1319.8268              1332.8435              1337.1392
 Red. masses --      1.4211                 3.1286                 1.7068
 Frc consts  --      1.4585                 3.2746                 1.7979
 IR Inten    --      0.3969                 0.4647                 0.8386

                     67                     68                     69
                      A                      A                      A
 Frequencies --   1346.9521              1363.5838              1365.4133
 Red. masses --      1.4019                 1.6930                 1.4664
 Frc consts  --      1.4986                 1.8547                 1.6108
 IR Inten    --      1.0457                 0.5440                 1.9424

                     70                     71                     72
                      A                      A                      A
 Frequencies --   1371.1695              1382.9855              1446.1885
 Red. masses --      1.5031                 1.5780                 1.9762
 Frc consts  --      1.6651                 1.7783                 2.4352
 IR Inten    --      1.4201                 6.7036                17.7649

                     73                     74                     75
                      A                      A                      A
 Frequencies --   1489.7330              1510.3704              1520.4301
 Red. masses --      2.1816                 1.0820                 1.0983
 Frc consts  --      2.8526                 1.4542                 1.4960
 IR Inten    --      4.8922                 1.5893                 3.2507

                     76                     77                     78
                      A                      A                      A
 Frequencies --   1522.5387              1527.6387              1545.2524
 Red. masses --      1.1277                 2.0474                 1.1060
 Frc consts  --      1.5402                 2.8151                 1.5560
 IR Inten    --      4.0963                16.2448                 0.5993

                     79                     80                     81
                      A                      A                      A
 Frequencies --   1551.1524              1600.0372              1636.4192
 Red. masses --      2.4743                 6.5254                 5.3940
 Frc consts  --      3.5077                 9.8428                 8.5104
 IR Inten    --      1.3088                 8.3137                 6.8603

                     82                     83                     84
                      A                      A                      A
 Frequencies --   1639.3247              1664.8713              1697.4094
 Red. masses --      5.5384                 5.6409                 1.0932
 Frc consts  --      8.7693                 9.2121                 1.8558
 IR Inten    --     40.3599                 5.1333                14.6314

                     85                     86                     87
                      A                      A                      A
 Frequencies --   3049.5342              3062.9976              3071.6158
 Red. masses --      1.0601                 1.0682                 1.0646
 Frc consts  --      5.8087                 5.9047                 5.9180
 IR Inten    --     23.8590                26.3239                36.5669

                     88                     89                     90
                      A                      A                      A
 Frequencies --   3083.4193              3093.3526              3108.0019
 Red. masses --      1.0646                 1.1040                 1.1021
 Frc consts  --      5.9637                 6.2240                 6.2724
 IR Inten    --     56.1083                22.7833                 3.9471

                     91                     92                     93
                      A                      A                      A
 Frequencies --   3133.7409              3146.9615              3167.5099
 Red. masses --      1.1023                 1.0972                 1.0882
 Frc consts  --      6.3778                 6.4018                 6.4328
 IR Inten    --     30.5511                30.7680                37.9523

                     94                     95                     96
                      A                      A                      A
 Frequencies --   3170.8146              3183.4254              3189.0392
 Red. masses --      1.0920                 1.0854                 1.0873
 Frc consts  --      6.4685                 6.4807                 6.5152
 IR Inten    --     21.3525                 3.7169                 0.2029

                     97                     98                     99
                      A                      A                      A
 Frequencies --   3198.3178              3205.5958              3214.4401
 Red. masses --      1.0911                 1.0943                 1.0982
 Frc consts  --      6.5757                 6.6253                 6.6854
 IR Inten    --     14.3057                28.8795                18.1614

                    100                    101                    102
                      A                      A                      A
 Frequencies --   3231.9806              3471.1671              3566.3441
 Red. masses --      1.0911                 1.0501                 1.0914
 Frc consts  --      6.7148                 7.4550                 8.1788
 IR Inten    --     13.0595                 2.4162                 5.9402

 - Thermochemistry -
 -------------------
 Temperature   298.150 Kelvin.  Pressure   1.00000 Atm.
 Atom     1 has atomic number  6 and mass  12.00000

 Molecular mass:   238.14700 amu.
 Principal axes and moments of inertia in atomic units:
                           1         2         3
     Eigenvalues --  3433.987644457.093086752.86439
           X            0.99970   0.02450   0.00095
           Y           -0.02450   0.99968   0.00662
           Z           -0.00079  -0.00664   0.99998
 This molecule is an asymmetric top.
 Rotational symmetry number  1.
 Warning -- assumption of classical behavior for rotation
           may cause significant error
 Rotational temperatures (Kelvin)      0.02522     0.01943     0.01283
 Rotational constants (GHZ):           0.52555     0.40491     0.26726
 Zero-point vibrational energy     813338.8 (Joules/Mol)
                                  194.39265 (Kcal/Mol)
 Warning -- explicit consideration of  21 degrees of freedom as
           vibrations may cause significant error
 Vibrational temperatures:     36.28    66.31    82.01   102.58   120.29
          (Kelvin)            166.43   252.78   314.54   347.16   379.50
                              396.46   478.40   503.73   509.95   534.35
                              595.05   610.94   687.91   774.56   818.41
                              868.31   917.32   924.65   938.09   974.86
                             1038.27  1054.79  1118.63  1126.32  1146.71
                             1161.71  1207.71  1231.37  1245.06  1278.37
                             1310.10  1340.59  1347.75  1372.15  1398.49
                             1407.38  1421.61  1435.84  1452.67  1471.24
                             1480.41  1510.56  1516.93  1529.47  1536.92
                             1580.94  1596.76  1624.15  1718.67  1723.81
                             1746.46  1763.05  1770.16  1815.13  1820.31
                             1830.75  1865.75  1886.62  1898.94  1917.66
                             1923.85  1937.96  1961.89  1964.53  1972.81
                             1989.81  2080.74  2143.39  2173.09  2187.56
                             2190.59  2197.93  2223.27  2231.76  2302.10
                             2354.44  2358.62  2395.38  2442.19  4387.60
                             4406.97  4419.37  4436.35  4450.64  4471.72
                             4508.75  4527.78  4557.34  4562.10  4580.24
                             4588.32  4601.67  4612.14  4624.86  4650.10
                             4994.24  5131.17

 Zero-point correction=                           0.309784 (Hartree/Particle)
 Thermal correction to Energy=                    0.324988
 Thermal correction to Enthalpy=                  0.325932
 Thermal correction to Gibbs Free Energy=         0.266112
 Sum of electronic and zero-point Energies=           -729.808162
 Sum of electronic and thermal Energies=              -729.792958
 Sum of electronic and thermal Enthalpies=            -729.792014
 Sum of electronic and thermal Free Energies=         -729.851834

                     E (Thermal)             CV                S
                      KCal/Mol        Cal/Mol-Kelvin    Cal/Mol-Kelvin
 Total                  203.933             60.658            125.902
 Electronic               0.000              0.000              0.000
 Translational            0.889              2.981             42.305
 Rotational               0.889              2.981             33.002
 Vibrational            202.156             54.696             50.595
 Vibration     1          0.593              1.985              6.174
 Vibration     2          0.595              1.979              4.979
 Vibration     3          0.596              1.975              4.559
 Vibration     4          0.598              1.968              4.117
 Vibration     5          0.600              1.960              3.804
 Vibration     6          0.608              1.936              3.171
 Vibration     7          0.628              1.872              2.374
 Vibration     8          0.646              1.813              1.971
 Vibration     9          0.658              1.777              1.793
 Vibration    10          0.670              1.739              1.637
 Vibration    11          0.677              1.719              1.561
 Vibration    12          0.714              1.611              1.248
 Vibration    13          0.727              1.575              1.166
 Vibration    14          0.730              1.566              1.146
 Vibration    15          0.743              1.531              1.074
 Vibration    16          0.777              1.441              0.914
 Vibration    17          0.787              1.417              0.876
 Vibration    18          0.835              1.299              0.715
 Vibration    19          0.893              1.165              0.569
 Vibration    20          0.925              1.099              0.507
 Vibration    21          0.962              1.024              0.444

                           ! Non-Optimized Parameters !
 Normal termination of Gaussian 16 at Fri Dec 11 21:16:04 2020.

 ----------------------------------------------------------------------
 # B3LYP/6-311++G(d,p) empiricaldispersion=gd3bj scf=xqc pop=npa geom=c
 heck
 ----------------------------------------------------------------------

 ---------------------------------------
 CID_115008895_JID_8498_Energie_neutraal
 ---------------------------------------
 Structure from the checkpoint file:  "JID_8498.chk"
 Charge =  0 Multiplicity = 1

 SCF Done:  E(RB3LYP) =  -730.310060486     A.U. after   16 cycles
 Normal termination of Gaussian 16 at Fri Dec 11 21:24:39 2020.

 ----------------------------------------------------------------------
 # B3LYP/6-311++G(d,p) empiricaldispersion=gd3bj scf=xqc pop=npa geom=c
 heck
 ----------------------------------------------------------------------

 -------------------------------------
 CID_115008895_JID_8498_Energie_kation
 -------------------------------------
 Structure from the checkpoint file:  "JID_8498.chk"
 Charge =  1 Multiplicity = 2

 SCF Done:  E(UB3LYP) =  -730.008048214     A.U. after   27 cycles
 Normal termination of Gaussian 16 at Fri Dec 11 21:44:43 2020.
 Gaussian 16:  ES64L-G16RevA.03 25-Dec-2016

 ----------------------------------------------------------------------
 # B3LYP/6-311++G(d,p) empiricaldispersion=gd3bj scf=xqc pop=npa geom=c
 heck
 ----------------------------------------------------------------------

 ------------------------------------
 CID_115008895_JID_8498_Energie_anion
 ------------------------------------
 Structure from the checkpoint file:  "JID_8498.chk"
 Charge = -1 Multiplicity = 2

                         Standard orientation:
 ---------------------------------------------------------------------
 Center     Atomic      Atomic             Coordinates (Angstroms)
 Number     Number       Type             X           Y           Z
 ---------------------------------------------------------------------
      1          6           0       -1.841193   -2.753444   -0.789097
      2          6           0       -3.105444   -2.277879   -0.026312
      3          6           0       -2.935755   -0.758276    0.110750
      4          6           0       -1.410193   -0.556003    0.251918
      5          6           0       -0.876810   -1.542149   -0.816838
      6          6           0       -0.956065    0.897019    0.054520
      7          6           0        0.399595    1.281335   -0.060950
      8          6           0        0.696049    2.642636   -0.215339
      9          7           0       -0.204163    3.629902   -0.249333
     10          6           0       -1.482095    3.261627   -0.120898
     11          6           0       -1.892663    1.938875    0.027761
     12          6           0        1.558609    0.341231   -0.023277
     13          6           0        2.121336   -0.051693    1.199169
     14          6           0        3.223422   -0.906881    1.234603
     15          6           0        3.787968   -1.369043    0.045287
     16          6           0        3.252971   -0.961113   -1.177636
     17          6           0        2.150117   -0.108196   -1.210730
     18          7           0       -1.027871   -1.083434    1.578680
     19          1           0       -1.381829   -3.605900   -0.281529
     20          1           0       -2.079555   -3.078199   -1.807325
     21          1           0       -3.135869   -2.732510    0.966223
     22          1           0       -4.034526   -2.538454   -0.543386
     23          1           0       -3.494677   -0.342727    0.957112
     24          1           0       -3.284569   -0.254496   -0.798833
     25          1           0       -0.900053   -1.045276   -1.793503
     26          1           0        0.158865   -1.829140   -0.628862
     27          1           0        1.738600    2.940862   -0.314877
     28          1           0       -2.219161    4.062859   -0.141432
     29          1           0       -2.951506    1.729776    0.120163
     30          1           0        1.697266    0.328449    2.124589
     31          1           0        3.644495   -1.204944    2.190618
     32          1           0        4.644980   -2.035794    0.071065
     33          1           0        3.694657   -1.307235   -2.107851
     34          1           0        1.728933    0.204218   -2.161714
     35          1           0       -0.014846   -1.152738    1.642585
     36          1           0       -1.326066   -0.432293    2.303939
 ---------------------------------------------------------------------

 SCF Done:  E(UB3LYP) =  -730.302327291     A.U. after   33 cycles
 SCF Done:  E(UB3LYP) =  -730.302327290     a.u. after    1 cycles

 The electronic state is 2-A.
 Alpha  occ. eigenvalues --  -14.18310 -14.17995 -10.10350 -10.08629 -10.08226
 Alpha  occ. eigenvalues --  -10.08045 -10.07220 -10.07220 -10.06979 -10.06969
 Alpha  occ. eigenvalues --  -10.06954 -10.06924 -10.06717 -10.06140 -10.05888
 Alpha  occ. eigenvalues --  -10.05881 -10.05855 -10.05617  -0.82361  -0.79496
 Alpha  occ. eigenvalues --   -0.75653  -0.70445  -0.69519  -0.66468  -0.64414
 Alpha  occ. eigenvalues --   -0.62115  -0.60835  -0.58926  -0.52592  -0.51430
 Alpha  occ. eigenvalues --   -0.50364  -0.48025  -0.46302  -0.45019  -0.42182
 Alpha  occ. eigenvalues --   -0.40179  -0.38016  -0.37851  -0.36445  -0.36190
 Alpha  occ. eigenvalues --   -0.35218  -0.34364  -0.33429  -0.31963  -0.31727
 Alpha  occ. eigenvalues --   -0.31027  -0.30025  -0.28159  -0.26939  -0.26850
 Alpha  occ. eigenvalues --   -0.25637  -0.24479  -0.24177  -0.24107  -0.23368
 Alpha  occ. eigenvalues --   -0.23274  -0.21848  -0.21169  -0.17398  -0.15781
 Alpha  occ. eigenvalues --   -0.15412  -0.14675  -0.14314  -0.12698   0.04490
 Alpha virt. eigenvalues --    0.06484   0.06896   0.07560   0.08223   0.08256
 Alpha virt. eigenvalues --    0.08708   0.08764   0.08888   0.09684   0.09851
 Alpha virt. eigenvalues --    0.10356   0.10800   0.10971   0.11584   0.11718

  Beta  occ. eigenvalues --  -14.18250 -14.17738 -10.10363 -10.08627 -10.08178
  Beta  occ. eigenvalues --  -10.08057 -10.07238 -10.07233 -10.06925 -10.06879
  Beta  occ. eigenvalues --  -10.06859 -10.06758 -10.06667 -10.06132 -10.05867
  Beta  occ. eigenvalues --  -10.05857 -10.05843 -10.05613  -0.82032  -0.79368
  Beta  occ. eigenvalues --   -0.75552  -0.70373  -0.69302  -0.66294  -0.64254
  Beta  occ. eigenvalues --   -0.61990  -0.60807  -0.58851  -0.52528  -0.51154
  Beta  occ. eigenvalues --   -0.50176  -0.47947  -0.46255  -0.44959  -0.42107
  Beta  occ. eigenvalues --   -0.40100  -0.37948  -0.37815  -0.36340  -0.36085
  Beta  occ. eigenvalues --   -0.35137  -0.34303  -0.33352  -0.31898  -0.31638
  Beta  occ. eigenvalues --   -0.30992  -0.29998  -0.27564  -0.26865  -0.26632
  Beta  occ. eigenvalues --   -0.25488  -0.24363  -0.24124  -0.24046  -0.23315
  Beta  occ. eigenvalues --   -0.23224  -0.21802  -0.21133  -0.16671  -0.15500
  Beta  occ. eigenvalues --   -0.15006  -0.14269  -0.13974  -0.12451
  Beta virt. eigenvalues --    0.06632   0.07176   0.07905   0.08114   0.08337
  Beta virt. eigenvalues --    0.08448   0.09014   0.09105   0.09378   0.09737
  Beta virt. eigenvalues --    0.10174   0.10412   0.10997   0.11110   0.11516

 Mulliken charges and spin densities:
               1          2
     1  C    0.168333  -0.629814
     2  C   -0.499330  -0.003713
     3  C   -0.078196  -0.271169
     4  C    0.763350   0.563341
     5  C   -0.700100  -0.000573
     6  C   -0.262995  -0.321169
     7  C    0.552764  -0.667074
     8  C   -0.462791   0.069892
     9  N   -0.082185   0.111361
    10  C   -0.821982  -0.016313
    11  C    1.281587  -0.706668
    12  C    0.891833  -0.000247
    13  C   -1.413698   0.974192
    14  C   -0.018359  -0.431898
    15  C    0.847274  -1.019372
    16  C   -0.252814  -0.137082
    17  C   -0.830985   0.704403
    18  N   -0.409181   0.108251
    19  H    0.006892   0.145664
    20  H   -0.059031   0.188328
    21  H    0.050664   0.092808
    22  H   -0.022520   0.177112
    23  H    0.117273   0.014618
    24  H   -0.055806   0.178244
    25  H    0.047136   0.138146
    26  H    0.391255  -0.238465
    27  H    0.174741  -0.014180
    28  H    0.107495   0.033789
    29  H    0.112344   0.066822
    30  H    0.079692   0.102270
    31  H   -0.430249   0.593383
    32  H   -0.309407   0.470647
    33  H   -0.183490   0.339945
    34  H   -0.005782   0.178961
    35  H    0.221574   0.055221
    36  H    0.084697   0.150337
 Sum of Mulliken charges =  -1.00000   1.00000

 Dipole moment (field-independent basis, Debye):
    X=             -2.6588    Y=              0.2236    Z=              0.1803  Tot=              2.6743
 Quadrupole moment (field-independent basis, Debye-Ang):
   XX=           -162.6778   YY=           -162.4716   ZZ=           -134.1507
   XY=              1.7501   XZ=             -5.5673   YZ=              4.0014

 Summary of Natural Population Analysis:

                                       Natural Population
                Natural  -----------------------------------------------
    Atom  No    Charge         Core      Valence    Rydberg      Total
 -----------------------------------------------------------------------
      C    1   -0.19009      0.99965     2.18346    0.00698     3.19009
      C    2   -0.19050      0.99964     2.18379    0.00707     3.19050
      C    3   -0.19167      0.99960     2.18363    0.00843     3.19167
      C    4    0.04965      0.99953     1.93786    0.01296     2.95035
      C    5   -0.19191      0.99959     2.18268    0.00963     3.19191
      C    6    0.03733      0.99944     1.95221    0.01102     2.96267
      C    7   -0.04598      0.99944     2.03563    0.01091     3.04598
      C    8    0.03988      0.99954     1.94691    0.01367     2.96012
      N    9   -0.20826      0.99971     2.69584    0.01271     3.70826
      C   10    0.02197      0.99960     1.96382    0.01461     2.97803
      C   11   -0.12302      0.99951     2.11488    0.00863     3.12302
      C   12   -0.02272      0.99949     2.01156    0.01168     3.02272
      C   13   -0.10354      0.99951     2.09438    0.00965     3.10354
      C   14   -0.08811      0.99956     2.07800    0.01055     3.08811
      C   15   -0.11098      0.99956     2.10146    0.00996     3.11098
      C   16   -0.08908      0.99956     2.07953    0.00999     3.08908
      C   17   -0.09120      0.99951     2.08239    0.00930     3.09120
      N   18   -0.42304      0.99975     2.91280    0.01049     3.92304
      H   19    0.09886      0.00000     0.40002    0.00111     0.40114
      H   20    0.09455      0.00000     0.40427    0.00118     0.40545
      H   21    0.10127      0.00000     0.39723    0.00150     0.39873
      H   22    0.09375      0.00000     0.40500    0.00124     0.40625
      H   23    0.09877      0.00000     0.40023    0.00100     0.40123
      H   24    0.09928      0.00000     0.39938    0.00134     0.40072
      H   25    0.09904      0.00000     0.39965    0.00130     0.40096
      H   26    0.10824      0.00000     0.38990    0.00187     0.39176
      H   27    0.08690      0.00000     0.41133    0.00177     0.41310
      H   28    0.08325      0.00000     0.41541    0.00134     0.41675
      H   29    0.10018      0.00000     0.39836    0.00146     0.39982
      H   30    0.10192      0.00000     0.39674    0.00134     0.39808
      H   31    0.09944      0.00000     0.39947    0.00110     0.40056
      H   32    0.09992      0.00000     0.39901    0.00108     0.40008
      H   33    0.09819      0.00000     0.40099    0.00081     0.40181
      H   34    0.10188      0.00000     0.39679    0.00133     0.39812
      H   35    0.18279      0.00000     0.31528    0.00192     0.31721
      H   36    0.17302      0.00000     0.32549    0.00149     0.32698
 =======================================================================
   * Total *    0.00000     17.99220    45.79538    0.21242    64.00000

 Normal termination of Gaussian 16 at Fri Dec 11 22:09:50 2020.
