 Gaussian 16, Revision A.03,

 -----------------------------------------------------------
 # opt freq B3LYP/6-31G(d) empiricaldispersion=gd3bj scf=xqc
 -----------------------------------------------------------

 -------------------------------
 CID_114233085_JID_8041_neutraal
 -------------------------------
 Symbolic Z-matrix:
 Charge =  0 Multiplicity = 1

 SCF Done:  E(RB3LYP) =  -1260.84240089     A.U. after   14 cycles
 SCF Done:  E(RB3LYP) =  -1260.85038678     A.U. after   13 cycles
 SCF Done:  E(RB3LYP) =  -1260.84860871     A.U. after   13 cycles
 SCF Done:  E(RB3LYP) =  -1260.85201854     A.U. after   12 cycles
 SCF Done:  E(RB3LYP) =  -1260.85299527     A.U. after   12 cycles
 SCF Done:  E(RB3LYP) =  -1260.85330643     A.U. after   12 cycles
 SCF Done:  E(RB3LYP) =  -1260.85354067     A.U. after   11 cycles
 SCF Done:  E(RB3LYP) =  -1260.85367672     A.U. after   11 cycles
 SCF Done:  E(RB3LYP) =  -1260.85372335     A.U. after   11 cycles
 SCF Done:  E(RB3LYP) =  -1260.85374358     A.U. after   10 cycles
 SCF Done:  E(RB3LYP) =  -1260.85375586     A.U. after    8 cycles
 SCF Done:  E(RB3LYP) =  -1260.85375611     A.U. after    8 cycles
 SCF Done:  E(RB3LYP) =  -1260.85375621     A.U. after    7 cycles
 SCF Done:  E(RB3LYP) =  -1260.85375623     A.U. after    6 cycles
 Optimization completed.
    -- Stationary point found.
 Normal termination of Gaussian 16 at Fri Dec 11 18:41:46 2020.

 --------------------------------------------------------------------
 #N Geom=AllCheck Guess=TCheck SCRF=Check GenChk RB3LYP/6-31G(d) Freq
 --------------------------------------------------------------------

 Structure from the checkpoint file:  "JID_8041.chk"
 -------------------------------
 CID_114233085_JID_8041_neutraal
 -------------------------------
 Charge =  0 Multiplicity = 1

 SCF Done:  E(RB3LYP) =  -1260.85375623     A.U. after    1 cycles

  Exact polarizability: 188.074  -3.036 148.713   2.232  -5.177 125.742
 Approx polarizability: 230.323  -8.227 218.251  -1.211 -14.558 201.412

                      1                      2                      3
                      A                      A                      A
 Frequencies --     19.7331                42.9249                50.4771
 Red. masses --      4.9046                 4.6062                 4.9641
 Frc consts  --      0.0011                 0.0050                 0.0075
 IR Inten    --      1.2419                 3.1390                 0.6962

                      4                      5                      6
                      A                      A                      A
 Frequencies --     55.2136                68.6148                75.1669
 Red. masses --      2.4462                 2.7793                 3.1154
 Frc consts  --      0.0044                 0.0077                 0.0104
 IR Inten    --      0.7619                 0.6395                 0.8536

                      7                      8                      9
                      A                      A                      A
 Frequencies --     79.9549                98.2240               109.5819
 Red. masses --      2.8990                 3.1447                 3.8673
 Frc consts  --      0.0109                 0.0179                 0.0274
 IR Inten    --      1.7192                 1.8807                 1.2803

                     10                     11                     12
                      A                      A                      A
 Frequencies --    118.1216               123.7720               156.1755
 Red. masses --      2.2933                 5.0001                 5.8316
 Frc consts  --      0.0189                 0.0451                 0.0838
 IR Inten    --      3.7162                 1.5888                 1.2178

                     13                     14                     15
                      A                      A                      A
 Frequencies --    195.7241               204.4037               232.9089
 Red. masses --      4.6664                 2.9405                 3.7948
 Frc consts  --      0.1053                 0.0724                 0.1213
 IR Inten    --      3.2750                10.3994                 0.5079

                     16                     17                     18
                      A                      A                      A
 Frequencies --    233.7461               250.5725               263.9084
 Red. masses --      2.8389                 5.0852                 1.3641
 Frc consts  --      0.0914                 0.1881                 0.0560
 IR Inten    --      4.5678                 0.5936                 0.6571

                     19                     20                     21
                      A                      A                      A
 Frequencies --    273.6365               311.6059               343.0796
 Red. masses --      1.3421                 8.3855                 3.2394
 Frc consts  --      0.0592                 0.4797                 0.2247
 IR Inten    --      4.5885                 4.7961                 6.8170

                     22                     23                     24
                      A                      A                      A
 Frequencies --    353.3548               379.5985               392.4121
 Red. masses --      2.8663                 3.5702                 2.5677
 Frc consts  --      0.2109                 0.3031                 0.2330
 IR Inten    --      3.5576                 2.1376                32.9821

                     25                     26                     27
                      A                      A                      A
 Frequencies --    417.9510               463.3548               475.1556
 Red. masses --      4.0755                 5.7694                 3.0372
 Frc consts  --      0.4194                 0.7298                 0.4040
 IR Inten    --     21.2729                14.5822                 5.5341

                     28                     29                     30
                      A                      A                      A
 Frequencies --    533.0976               544.3849               572.2326
 Red. masses --      2.8622                 2.5228                 4.3991
 Frc consts  --      0.4792                 0.4405                 0.8487
 IR Inten    --     12.8171                69.9022                 7.5061

                     31                     32                     33
                      A                      A                      A
 Frequencies --    608.1508               629.2672               676.9620
 Red. masses --      3.6139                 2.6011                 2.4743
 Frc consts  --      0.7875                 0.6068                 0.6681
 IR Inten    --     25.3127                50.8573                13.5048

                     34                     35                     36
                      A                      A                      A
 Frequencies --    733.7433               783.2821               807.6851
 Red. masses --      4.3383                 1.3379                 2.4285
 Frc consts  --      1.3761                 0.4836                 0.9334
 IR Inten    --      3.4030                 5.3767                24.3270

                     37                     38                     39
                      A                      A                      A
 Frequencies --    833.0880               835.6785               847.6113
 Red. masses --      1.0889                 1.0941                 2.4642
 Frc consts  --      0.4453                 0.4502                 1.0431
 IR Inten    --      0.9740                 7.8638                 9.6657

                     40                     41                     42
                      A                      A                      A
 Frequencies --    856.0654               856.6596               900.7747
 Red. masses --      1.7170                 2.0196                 3.2986
 Frc consts  --      0.7414                 0.8732                 1.5769
 IR Inten    --     11.3658                 3.9320                 6.4009

                     43                     44                     45
                      A                      A                      A
 Frequencies --    931.8577               942.3245               949.8033
 Red. masses --      2.1612                 2.2348                 2.1491
 Frc consts  --      1.1057                 1.1692                 1.1423
 IR Inten    --     18.9824                21.0742                 5.0587

                     46                     47                     48
                      A                      A                      A
 Frequencies --    971.6100               978.0390              1046.9845
 Red. masses --      2.5586                 2.4993                 1.8218
 Frc consts  --      1.4231                 1.4086                 1.1766
 IR Inten    --     32.2110                17.7086                 4.0477

                     49                     50                     51
                      A                      A                      A
 Frequencies --   1060.1704              1070.6986              1077.8664
 Red. masses --      2.8658                 1.4229                 3.0700
 Frc consts  --      1.8978                 0.9610                 2.1014
 IR Inten    --     44.5549                 9.6067                15.1560

                     52                     53                     54
                      A                      A                      A
 Frequencies --   1091.7720              1098.4826              1104.0497
 Red. masses --      1.3817                 5.0367                 5.3972
 Frc consts  --      0.9703                 3.5808                 3.8761
 IR Inten    --      4.0022                75.3573               331.4795

                     55                     56                     57
                      A                      A                      A
 Frequencies --   1151.2105              1158.2655              1159.3794
 Red. masses --      1.9615                 1.2104                 1.9776
 Frc consts  --      1.5316                 0.9567                 1.5662
 IR Inten    --     47.2156                20.5866                27.2886

                     58                     59                     60
                      A                      A                      A
 Frequencies --   1178.5096              1195.6776              1199.0483
 Red. masses --      1.6002                 1.8151                 1.5333
 Frc consts  --      1.3094                 1.5289                 1.2988
 IR Inten    --     86.8348                28.8021                 7.7933

                     61                     62                     63
                      A                      A                      A
 Frequencies --   1205.0394              1212.2508              1216.0816
 Red. masses --      1.8525                 1.5560                 1.8865
 Frc consts  --      1.5849                 1.3472                 1.6437
 IR Inten    --     46.9324                14.5383                 1.5824

                     64                     65                     66
                      A                      A                      A
 Frequencies --   1257.1831              1260.8719              1269.1419
 Red. masses --      1.5000                 1.6897                 1.7851
 Frc consts  --      1.3968                 1.5827                 1.6941
 IR Inten    --     25.6620                41.3111                54.1255

                     67                     68                     69
                      A                      A                      A
 Frequencies --   1307.3990              1313.3709              1327.1695
 Red. masses --      1.1316                 2.4883                 1.1125
 Frc consts  --      1.1396                 2.5289                 1.1545
 IR Inten    --     14.6618                76.9433                 2.1650

                     70                     71                     72
                      A                      A                      A
 Frequencies --   1350.0926              1384.9868              1392.1054
 Red. masses --      2.0146                 1.2698                 1.7172
 Frc consts  --      2.1635                 1.4351                 1.9607
 IR Inten    --    115.5563               112.8045               164.3118

                     73                     74                     75
                      A                      A                      A
 Frequencies --   1400.1197              1422.8381              1425.9279
 Red. masses --      1.1839                 1.7992                 1.2683
 Frc consts  --      1.3674                 2.1460                 1.5194
 IR Inten    --     33.3022                56.8023                 5.4575

                     76                     77                     78
                      A                      A                      A
 Frequencies --   1433.7238              1455.5042              1462.5237
 Red. masses --      1.2364                 1.4138                 1.1043
 Frc consts  --      1.4974                 1.7646                 1.3916
 IR Inten    --     21.1734                 7.7157                12.7788

                     79                     80                     81
                      A                      A                      A
 Frequencies --   1465.3171              1471.7900              1482.7893
 Red. masses --      1.5928                 1.5278                 1.3060
 Frc consts  --      2.0151                 1.9498                 1.6918
 IR Inten    --     22.3032                22.7167                50.8793

                     82                     83                     84
                      A                      A                      A
 Frequencies --   1487.1569              1513.7690              1516.6358
 Red. masses --      1.1008                 1.0403                 1.0420
 Frc consts  --      1.4344                 1.4045                 1.4122
 IR Inten    --      1.5489                 4.9299                 1.1756

                     85                     86                     87
                      A                      A                      A
 Frequencies --   1526.8218              1528.9771              1531.9175
 Red. masses --      1.0963                 1.2955                 1.0472
 Frc consts  --      1.5058                 1.7844                 1.4479
 IR Inten    --      9.5098                 2.6437                 3.7023

                     88                     89                     90
                      A                      A                      A
 Frequencies --   1547.6709              1558.8967              1768.6434
 Red. masses --      1.0882                 1.0916                 7.6977
 Frc consts  --      1.5358                 1.5630                14.1869
 IR Inten    --      5.8546                 0.8223               415.9353

                     91                     92                     93
                      A                      A                      A
 Frequencies --   2919.0193              2987.9499              3007.8094
 Red. masses --      1.0815                 1.0704                 1.0679
 Frc consts  --      5.4295                 5.6305                 5.6924
 IR Inten    --     49.2088                47.3126                80.1528

                     94                     95                     96
                      A                      A                      A
 Frequencies --   3062.5243              3062.7417              3080.5411
 Red. masses --      1.0354                 1.0355                 1.0920
 Frc consts  --      5.7218                 5.7231                 6.1058
 IR Inten    --     23.8892                11.8300                19.4622

                     97                     98                     99
                      A                      A                      A
 Frequencies --   3091.4139              3105.8608              3128.5443
 Red. masses --      1.0948                 1.0593                 1.0578
 Frc consts  --      6.1643                 6.0204                 6.1001
 IR Inten    --     13.8439                 0.8242                 6.9370

                    100                    101                    102
                      A                      A                      A
 Frequencies --   3132.4308              3133.5179              3143.0666
 Red. masses --      1.1017                 1.1022                 1.1037
 Frc consts  --      6.3690                 6.3765                 6.4241
 IR Inten    --     25.5365                29.9176                24.8607

                    103                    104                    105
                      A                      A                      A
 Frequencies --   3145.9819              3154.7099              3158.5195
 Red. masses --      1.1033                 1.0509                 1.0583
 Frc consts  --      6.4336                 6.1623                 6.2208
 IR Inten    --     33.1623                13.8854                 3.1165

                    106                    107                    108
                      A                      A                      A
 Frequencies --   3169.1433              3183.8349              3200.9552
 Red. masses --      1.1070                 1.0903                 1.1089
 Frc consts  --      6.5507                 6.5120                 6.6941
 IR Inten    --      0.1875                 5.5057                13.8443

                    109                    110                    111
                      A                      A                      A
 Frequencies --   3234.3404              3247.5723              3571.9736
 Red. masses --      1.1202                 1.1167                 1.0756
 Frc consts  --      6.9044                 6.9391                 8.0856
 IR Inten    --      0.5951                13.3044                27.7589

 - Thermochemistry -
 -------------------
 Temperature   298.150 Kelvin.  Pressure   1.00000 Atm.
 Atom     1 has atomic number  6 and mass  12.00000

 Molecular mass:   279.11404 amu.
 Principal axes and moments of inertia in atomic units:
                           1         2         3
     Eigenvalues --  2886.644007981.790349558.79137
           X            0.99999  -0.00411   0.00182
           Y            0.00411   0.99999  -0.00217
           Z           -0.00181   0.00217   1.00000
 This molecule is an asymmetric top.
 Rotational symmetry number  1.
 Warning -- assumption of classical behavior for rotation
           may cause significant error
 Rotational temperatures (Kelvin)      0.03001     0.01085     0.00906
 Rotational constants (GHZ):           0.62520     0.22611     0.18880
 Zero-point vibrational energy     864858.0 (Joules/Mol)
                                  206.70603 (Kcal/Mol)
 Warning -- explicit consideration of  31 degrees of freedom as
           vibrations may cause significant error
 Vibrational temperatures:     28.39    61.76    72.63    79.44    98.72
          (Kelvin)            108.15   115.04   141.32   157.66   169.95
                              178.08   224.70   281.60   294.09   335.10
                              336.31   360.52   379.71   393.70   448.33
                              493.61   508.40   546.16   564.59   601.34
                              666.66   683.64   767.01   783.25   823.32
                              874.99   905.38   974.00  1055.69  1126.97
                             1162.08  1198.63  1202.35  1219.52  1231.69
                             1232.54  1296.01  1340.74  1355.79  1366.56
                             1397.93  1407.18  1506.38  1525.35  1540.50
                             1550.81  1570.82  1580.47  1588.48  1656.34
                             1666.49  1668.09  1695.61  1720.31  1725.16
                             1733.78  1744.16  1749.67  1808.81  1814.11
                             1826.01  1881.06  1889.65  1909.50  1942.48
                             1992.69  2002.93  2014.46  2047.15  2051.59
                             2062.81  2094.15  2104.25  2108.26  2117.58
                             2133.40  2139.69  2177.98  2182.10  2196.76
                             2199.86  2204.09  2226.75  2242.90  2544.68
                             4199.82  4298.99  4327.57  4406.29  4406.60
                             4432.21  4447.86  4468.64  4501.28  4506.87
                             4508.43  4522.17  4526.37  4538.92  4544.41
                             4559.69  4580.83  4605.46  4653.49  4672.53
                             5139.27

 Zero-point correction=                           0.329407 (Hartree/Particle)
 Thermal correction to Energy=                    0.349989
 Thermal correction to Enthalpy=                  0.350933
 Thermal correction to Gibbs Free Energy=         0.278343
 Sum of electronic and zero-point Energies=          -1260.524349
 Sum of electronic and thermal Energies=             -1260.503767
 Sum of electronic and thermal Enthalpies=           -1260.502823
 Sum of electronic and thermal Free Energies=        -1260.575413

                     E (Thermal)             CV                S
                      KCal/Mol        Cal/Mol-Kelvin    Cal/Mol-Kelvin
 Total                  219.621             74.378            152.778
 Electronic               0.000              0.000              0.000
 Translational            0.889              2.981             42.778
 Rotational               0.889              2.981             33.754
 Vibrational            217.844             68.417             76.247
 Vibration     1          0.593              1.986              6.661
 Vibration     2          0.595              1.980              5.119
 Vibration     3          0.595              1.977              4.799
 Vibration     4          0.596              1.975              4.621
 Vibration     5          0.598              1.969              4.193
 Vibration     6          0.599              1.966              4.013
 Vibration     7          0.600              1.963              3.892
 Vibration     8          0.604              1.950              3.489
 Vibration     9          0.606              1.942              3.276
 Vibration    10          0.608              1.934              3.131
 Vibration    11          0.610              1.929              3.041
 Vibration    12          0.620              1.896              2.596
 Vibration    13          0.636              1.846              2.173
 Vibration    14          0.640              1.834              2.093
 Vibration    15          0.654              1.791              1.856
 Vibration    16          0.654              1.789              1.850
 Vibration    17          0.663              1.762              1.727
 Vibration    18          0.670              1.739              1.636
 Vibration    19          0.676              1.722              1.573
 Vibration    20          0.700              1.652              1.354
 Vibration    21          0.722              1.589              1.198
 Vibration    22          0.730              1.568              1.151
 Vibration    23          0.750              1.514              1.041
 Vibration    24          0.760              1.486              0.991
 Vibration    25          0.781              1.431              0.899
 Vibration    26          0.821              1.331              0.756
 Vibration    27          0.832              1.305              0.723
 Vibration    28          0.888              1.177              0.580
 Vibration    29          0.900              1.152              0.556
 Vibration    30          0.928              1.091              0.500
 Vibration    31          0.967              1.015              0.436

 Optimization completed.
    -- Stationary point found.
 Normal termination of Gaussian 16 at Fri Dec 11 18:58:41 2020.

 ----------------------------------------------------------------------
 # B3LYP/6-311++G(d,p) empiricaldispersion=gd3bj scf=xqc pop=npa geom=c
 heck
 ----------------------------------------------------------------------

 ---------------------------------------
 CID_114233085_JID_8041_Energie_neutraal
 ---------------------------------------
 Structure from the checkpoint file:  "JID_8041.chk"
 Charge =  0 Multiplicity = 1

 SCF Done:  E(RB3LYP) =  -1261.13732218     A.U. after   15 cycles
 Normal termination of Gaussian 16 at Fri Dec 11 19:05:28 2020.

 ----------------------------------------------------------------------
 # B3LYP/6-311++G(d,p) empiricaldispersion=gd3bj scf=xqc pop=npa geom=c
 heck
 ----------------------------------------------------------------------

 -------------------------------------
 CID_114233085_JID_8041_Energie_kation
 -------------------------------------
 Structure from the checkpoint file:  "JID_8041.chk"
 Charge =  1 Multiplicity = 2

 SCF Done:  E(UB3LYP) =  -1260.80666048     A.U. after   33 cycles
 SCF Done:  E(UB3LYP) =  -1260.80666049     a.u. after    2 cycles
 Normal termination of Gaussian 16 at Fri Dec 11 19:43:42 2020.
 Gaussian 16:  ES64L-G16RevA.03 25-Dec-2016

 ----------------------------------------------------------------------
 # B3LYP/6-311++G(d,p) empiricaldispersion=gd3bj scf=xqc pop=npa geom=c
 heck
 ----------------------------------------------------------------------

 ------------------------------------
 CID_114233085_JID_8041_Energie_anion
 ------------------------------------
 Structure from the checkpoint file:  "JID_8041.chk"
 Charge = -1 Multiplicity = 2

                         Standard orientation:
 ---------------------------------------------------------------------
 Center     Atomic      Atomic             Coordinates (Angstroms)
 Number     Number       Type             X           Y           Z
 ---------------------------------------------------------------------
      1          6           0       -1.345997    3.398222    0.865573
      2          6           0       -1.822292    2.498387   -0.257488
      3          8           0       -1.862817    1.155696    0.239497
      4          6           0       -2.228568    0.184797   -0.723972
      5          6           0       -1.009873   -0.422122   -1.419469
      6         16           0        0.222857   -1.270968   -0.376179
      7          8           0       -0.408597   -2.194130    0.571467
      8          8           0        1.243868   -1.763723   -1.322305
      9          6           0        0.987970    0.062920    0.608255
     10          6           0        1.798368    0.989295   -0.279338
     11          8           0        1.261050    1.901259   -0.905717
     12          7           0        3.139017    0.756421   -0.352950
     13          6           0        3.818553   -0.435442    0.084458
     14          6           0        5.253637   -0.287283    0.506525
     15          6           0        4.196970   -0.566441    1.542979
     16          8           0       -2.942487   -0.838122   -0.123941
     17          6           0       -4.178650   -0.426423    0.460259
     18          6           0       -4.857127   -1.664192    1.016041
     19          1           0       -1.382140    4.445979    0.548847
     20          1           0       -0.311476    3.157563    1.125986
     21          1           0       -1.976356    3.278652    1.752747
     22          1           0       -2.830018    2.784724   -0.596264
     23          1           0       -1.131685    2.566625   -1.105045
     24          1           0       -2.842557    0.682907   -1.500731
     25          1           0       -1.319071   -1.195088   -2.128119
     26          1           0       -0.445629    0.350452   -1.946415
     27          1           0        0.162784    0.606069    1.068197
     28          1           0        1.580001   -0.468938    1.354001
     29          1           0        3.598819    1.325129   -1.055792
     30          1           0        3.529148   -1.341364   -0.441331
     31          1           0        5.943652   -1.078958    0.232271
     32          1           0        5.678685    0.712379    0.485812
     33          1           0        3.918835    0.249995    2.202544
     34          1           0        4.147137   -1.555268    1.988773
     35          1           0       -3.985532    0.310340    1.248112
     36          1           0       -4.802655    0.058404   -0.309410
     37          1           0       -4.215058   -2.142192    1.761890
     38          1           0       -5.808099   -1.396714    1.489245
     39          1           0       -5.053707   -2.388318    0.219262
 ---------------------------------------------------------------------

 SCF Done:  E(UB3LYP) =  -1261.12435862     A.U. after   33 cycles
 SCF Done:  E(UB3LYP) =  -1261.12435862     a.u. after    1 cycles

 The electronic state is 2-A.
 Alpha  occ. eigenvalues --  -88.94899 -19.04330 -19.04119 -19.01726 -19.01706
 Alpha  occ. eigenvalues --  -18.99858 -14.25222 -10.19432 -10.18214 -10.12966
 Alpha  occ. eigenvalues --  -10.12785 -10.12508 -10.11703 -10.11389 -10.09496
 Alpha  occ. eigenvalues --  -10.09469 -10.07710 -10.07303  -8.01386  -5.97630
 Alpha  occ. eigenvalues --   -5.97540  -5.97506  -1.01077  -0.99069  -0.95061
 Alpha  occ. eigenvalues --   -0.92936  -0.90616  -0.84971  -0.76109  -0.71906
 Alpha  occ. eigenvalues --   -0.68998  -0.66554  -0.65727  -0.57286  -0.54848
 Alpha  occ. eigenvalues --   -0.53627  -0.52941  -0.52438  -0.50692  -0.47931
 Alpha  occ. eigenvalues --   -0.44285  -0.43744  -0.43247  -0.41453  -0.40879
 Alpha  occ. eigenvalues --   -0.40432  -0.39681  -0.37939  -0.37512  -0.36497
 Alpha  occ. eigenvalues --   -0.34917  -0.34403  -0.33688  -0.32896  -0.32035
 Alpha  occ. eigenvalues --   -0.31670  -0.30506  -0.30351  -0.29544  -0.29249
 Alpha  occ. eigenvalues --   -0.29089  -0.28150  -0.27341  -0.25025  -0.24482
 Alpha  occ. eigenvalues --   -0.23971  -0.23367  -0.22886  -0.22373  -0.21161
 Alpha  occ. eigenvalues --   -0.19746  -0.18922  -0.17922  -0.17350  -0.16893
 Alpha  occ. eigenvalues --    0.04240
 Alpha virt. eigenvalues --    0.05292   0.06402   0.07072   0.07265   0.07595
 Alpha virt. eigenvalues --    0.07777   0.08564   0.09491   0.09566   0.10105
 Alpha virt. eigenvalues --    0.10603   0.10953   0.11468   0.11900   0.12302

  Beta  occ. eigenvalues --  -88.94877 -19.04328 -19.04113 -19.01726 -19.01690
  Beta  occ. eigenvalues --  -18.99760 -14.25225 -10.19413 -10.18049 -10.12960
  Beta  occ. eigenvalues --  -10.12768 -10.12484 -10.11692 -10.11388 -10.09471
  Beta  occ. eigenvalues --  -10.09436 -10.07707 -10.07289  -8.01361  -5.97612
  Beta  occ. eigenvalues --   -5.97500  -5.97480  -1.01036  -0.99056  -0.94853
  Beta  occ. eigenvalues --   -0.92926  -0.90594  -0.84913  -0.76065  -0.71861
  Beta  occ. eigenvalues --   -0.68913  -0.66531  -0.65677  -0.57208  -0.54734
  Beta  occ. eigenvalues --   -0.53582  -0.52873  -0.52364  -0.50586  -0.47859
  Beta  occ. eigenvalues --   -0.44236  -0.43712  -0.43203  -0.41366  -0.40793
  Beta  occ. eigenvalues --   -0.40347  -0.39609  -0.37881  -0.37469  -0.36455
  Beta  occ. eigenvalues --   -0.34860  -0.34345  -0.33610  -0.32858  -0.31968
  Beta  occ. eigenvalues --   -0.31528  -0.30432  -0.30062  -0.29516  -0.29217
  Beta  occ. eigenvalues --   -0.29050  -0.28126  -0.27317  -0.24990  -0.24436
  Beta  occ. eigenvalues --   -0.23862  -0.23311  -0.22842  -0.22348  -0.21136
  Beta  occ. eigenvalues --   -0.19697  -0.18906  -0.17896  -0.17245  -0.16695
  Beta virt. eigenvalues --    0.06259   0.06507   0.07259   0.07293   0.07866
  Beta virt. eigenvalues --    0.07955   0.08461   0.08935   0.09518   0.09696
  Beta virt. eigenvalues --    0.10437   0.10799   0.11191   0.11635   0.12090

 Mulliken charges and spin densities:
               1          2
     1  C   -0.210131  -0.269513
     2  C    0.039174  -0.269649
     3  O   -0.036261   0.023595
     4  C    0.143519  -0.411611
     5  C   -0.904214  -0.071012
     6  S    0.383227  -0.035633
     7  O   -0.067171   0.007547
     8  O   -0.147023   0.006450
     9  C   -0.495107   0.051429
    10  C    0.114627  -0.187926
    11  O   -0.325712   0.042689
    12  N   -0.106255  -0.036700
    13  C   -1.456903   1.347894
    14  C    1.069784  -1.578769
    15  C    0.150721  -0.438989
    16  O   -0.004802   0.043474
    17  C    0.364595  -0.192101
    18  C    0.037253  -0.641133
    19  H    0.090341   0.031349
    20  H    0.183998  -0.008740
    21  H    0.104725   0.043974
    22  H   -0.409327   0.569612
    23  H    0.099899   0.085672
    24  H   -0.256901   0.425634
    25  H    0.096958   0.181095
    26  H    0.208992   0.094822
    27  H    0.305064   0.004635
    28  H    0.280605   0.010517
    29  H    0.299945  -0.007429
    30  H    0.229293   0.059946
    31  H   -0.235955   0.399263
    32  H   -0.311150   0.448823
    33  H    0.053773   0.105212
    34  H   -0.060091   0.218788
    35  H    0.135467  -0.006280
    36  H   -0.381434   0.540545
    37  H    0.132379   0.018585
    38  H   -0.120719   0.255940
    39  H    0.004818   0.137993
 Sum of Mulliken charges =  -1.00000   1.00000

 Dipole moment (field-independent basis, Debye):
    X=              0.8547    Y=              1.6422    Z=              1.4439  Tot=              2.3479
 Quadrupole moment (field-independent basis, Debye-Ang):
   XX=           -230.1178   YY=           -159.9213   ZZ=           -144.3418
   XY=              9.1224   XZ=            -13.0706   YZ=              5.0816

 Summary of Natural Population Analysis:

                                       Natural Population
                Natural  -----------------------------------------------
    Atom  No    Charge         Core      Valence    Rydberg      Total
 -----------------------------------------------------------------------
      C    1   -0.29282      0.99966     2.28753    0.00563     3.29282
      C    2   -0.01519      0.99959     2.00402    0.01158     3.01519
      O    3   -0.31655      0.99987     3.30667    0.01001     4.31655
      C    4    0.22001      0.99956     1.75956    0.02087     2.77999
      C    5   -0.30622      0.99953     2.29328    0.01342     3.30622
      S    6    1.03196      4.99928     1.87461    0.09415     6.96804
      O    7   -0.45495      0.99991     3.44955    0.00549     4.45495
      O    8   -0.47653      0.99991     3.47107    0.00555     4.47653
      C    9   -0.33891      0.99954     2.32749    0.01189     3.33891
      C   10    0.35428      0.99967     1.62193    0.02412     2.64572
      O   11   -0.32219      0.99988     3.31620    0.00611     4.32219
      N   12   -0.31439      0.99965     2.80473    0.01001     3.81439
      C   13   -0.03212      0.99957     2.02035    0.01220     3.03212
      C   14   -0.19513      0.99962     2.18531    0.01020     3.19513
      C   15   -0.20253      0.99962     2.19449    0.00841     3.20253
      O   16   -0.29600      0.99986     3.28545    0.01069     4.29600
      C   17   -0.01173      0.99959     2.00071    0.01143     3.01173
      C   18   -0.29264      0.99966     2.28713    0.00585     3.29264
      H   19    0.09952      0.00000     0.39989    0.00059     0.40048
      H   20    0.10356      0.00000     0.39524    0.00120     0.39644
      H   21    0.09780      0.00000     0.40129    0.00091     0.40220
      H   22    0.08074      0.00000     0.41753    0.00173     0.41926
      H   23    0.09362      0.00000     0.40511    0.00128     0.40638
      H   24    0.07555      0.00000     0.42145    0.00300     0.42445
      H   25    0.12345      0.00000     0.37535    0.00120     0.37655
      H   26    0.12754      0.00000     0.37140    0.00106     0.37246
      H   27    0.13658      0.00000     0.36217    0.00126     0.36342
      H   28    0.12301      0.00000     0.37592    0.00106     0.37699
      H   29    0.19444      0.00000     0.30364    0.00191     0.30556
      H   30    0.11339      0.00000     0.38525    0.00136     0.38661
      H   31    0.10733      0.00000     0.39114    0.00153     0.39267
      H   32    0.10530      0.00000     0.39327    0.00143     0.39470
      H   33    0.10515      0.00000     0.39379    0.00106     0.39485
      H   34    0.10616      0.00000     0.39274    0.00110     0.39384
      H   35    0.08600      0.00000     0.41254    0.00146     0.41400
      H   36    0.08129      0.00000     0.41582    0.00289     0.41871
      H   37    0.10246      0.00000     0.39655    0.00099     0.39754
      H   38    0.09864      0.00000     0.40059    0.00077     0.40136
      H   39    0.10011      0.00000     0.39889    0.00100     0.39989
 =======================================================================
   * Total *   -0.00000     21.99395    52.69964    0.30641    75.00000

 Normal termination of Gaussian 16 at Fri Dec 11 20:04:35 2020.
