 Gaussian 16, Revision A.03,

 -----------------------------------------------------------
 # opt freq B3LYP/6-31G(d) empiricaldispersion=gd3bj scf=xqc
 -----------------------------------------------------------

 -------------------------------
 CID_143045292_JID_8856_neutraal
 -------------------------------
 Symbolic Z-matrix:
 Charge =  0 Multiplicity = 1

 SCF Done:  E(RB3LYP) =  -1189.11725986     A.U. after   14 cycles
 SCF Done:  E(RB3LYP) =  -1189.12372431     A.U. after   13 cycles
 SCF Done:  E(RB3LYP) =  -1189.12150238     A.U. after   12 cycles
 SCF Done:  E(RB3LYP) =  -1189.12588067     A.U. after   13 cycles
 SCF Done:  E(RB3LYP) =  -1189.12625520     A.U. after   13 cycles
 SCF Done:  E(RB3LYP) =  -1189.12778624     A.U. after   13 cycles
 SCF Done:  E(RB3LYP) =  -1189.12997077     A.U. after   13 cycles
 SCF Done:  E(RB3LYP) =  -1189.13111483     A.U. after   13 cycles
 SCF Done:  E(RB3LYP) =  -1189.13020281     A.U. after   13 cycles
 SCF Done:  E(RB3LYP) =  -1189.13142073     A.U. after   12 cycles
 SCF Done:  E(RB3LYP) =  -1189.13293601     A.U. after   10 cycles
 SCF Done:  E(RB3LYP) =  -1189.13293663     A.U. after    8 cycles
 SCF Done:  E(RB3LYP) =  -1189.13293709     A.U. after    8 cycles
 SCF Done:  E(RB3LYP) =  -1189.13293715     A.U. after    7 cycles
 Optimization completed.
    -- Stationary point found.
 Normal termination of Gaussian 16 at Fri Dec 11 22:57:04 2020.

 --------------------------------------------------------------------
 #N Geom=AllCheck Guess=TCheck SCRF=Check GenChk RB3LYP/6-31G(d) Freq
 --------------------------------------------------------------------

 Structure from the checkpoint file:  "JID_8856.chk"
 -------------------------------
 CID_143045292_JID_8856_neutraal
 -------------------------------
 Charge =  0 Multiplicity = 1

 SCF Done:  E(RB3LYP) =  -1189.13293715     A.U. after    1 cycles

  Exact polarizability: 189.452   1.661 167.594   5.250  -3.049 147.619
 Approx polarizability: 250.677   4.043 233.945  10.817  -0.534 229.819

                      1                      2                      3
                      A                      A                      A
 Frequencies --     19.5073                25.1488                38.2889
 Red. masses --      4.2235                 3.4540                 3.6143
 Frc consts  --      0.0009                 0.0013                 0.0031
 IR Inten    --      0.0800                 0.0243                 0.2506

                      4                      5                      6
                      A                      A                      A
 Frequencies --     47.9828                68.0553               109.9911
 Red. masses --      3.5302                 2.4313                 4.6188
 Frc consts  --      0.0048                 0.0066                 0.0329
 IR Inten    --      0.2370                 0.2249                 0.6902

                      7                      8                      9
                      A                      A                      A
 Frequencies --    116.3977               124.5594               129.9244
 Red. masses --      2.7834                 4.2317                 3.3104
 Frc consts  --      0.0222                 0.0387                 0.0329
 IR Inten    --      0.5719                 0.9186                 0.3256

                     10                     11                     12
                      A                      A                      A
 Frequencies --    149.6573               183.0603               211.2851
 Red. masses --      3.5872                 3.9332                 1.0901
 Frc consts  --      0.0473                 0.0777                 0.0287
 IR Inten    --      1.2481                 2.0737                 0.0215

                     13                     14                     15
                      A                      A                      A
 Frequencies --    223.0083               232.9044               244.2182
 Red. masses --      3.1362                 1.5267                 2.2413
 Frc consts  --      0.0919                 0.0488                 0.0788
 IR Inten    --      1.3151                 0.9083                 1.4431

                     16                     17                     18
                      A                      A                      A
 Frequencies --    259.3687               262.0218               275.4562
 Red. masses --      1.5171                 2.3629                 1.0923
 Frc consts  --      0.0601                 0.0956                 0.0488
 IR Inten    --      0.4860                 0.2128                 0.1263

                     19                     20                     21
                      A                      A                      A
 Frequencies --    296.0547               309.4409               324.5648
 Red. masses --      1.6043                 2.4392                 3.6743
 Frc consts  --      0.0829                 0.1376                 0.2280
 IR Inten    --      5.6400                 1.6282                 3.2048

                     22                     23                     24
                      A                      A                      A
 Frequencies --    337.2890               351.1873               362.5723
 Red. masses --      3.5100                 3.1937                 2.9765
 Frc consts  --      0.2353                 0.2321                 0.2305
 IR Inten    --     10.4770                 2.5529                 1.6455

                     25                     26                     27
                      A                      A                      A
 Frequencies --    403.0269               416.4926               446.2650
 Red. masses --      2.5903                 2.3959                 2.5786
 Frc consts  --      0.2479                 0.2449                 0.3026
 IR Inten    --      4.2585                 0.3118                 2.8111

                     28                     29                     30
                      A                      A                      A
 Frequencies --    451.6866               470.6033               473.8175
 Red. masses --      2.5617                 3.0782                 3.0644
 Frc consts  --      0.3079                 0.4017                 0.4053
 IR Inten    --      0.2324                 2.8602                 1.5480

                     31                     32                     33
                      A                      A                      A
 Frequencies --    528.7780               546.4670               567.1124
 Red. masses --      3.3080                 2.4839                 2.7563
 Frc consts  --      0.5450                 0.4370                 0.5223
 IR Inten    --      8.3862                24.7402                30.6676

                     34                     35                     36
                      A                      A                      A
 Frequencies --    592.6276               709.3591               759.8977
 Red. masses --      2.1135                 7.2066                 4.1540
 Frc consts  --      0.4373                 2.1365                 1.4133
 IR Inten    --      0.7406                 0.7645                 3.5883

                     37                     38                     39
                      A                      A                      A
 Frequencies --    764.5445               819.1988               839.3531
 Red. masses --      1.2338                 3.7532                 1.7309
 Frc consts  --      0.4249                 1.4840                 0.7185
 IR Inten    --     19.5555                 7.6078                 7.5124

                     40                     41                     42
                      A                      A                      A
 Frequencies --    842.7939               864.7676               868.8390
 Red. masses --      1.6578                 3.7830                 3.7733
 Frc consts  --      0.6938                 1.6668                 1.6782
 IR Inten    --      6.8698                 2.8002                24.6703

                     43                     44                     45
                      A                      A                      A
 Frequencies --    887.9435               895.4240               936.6670
 Red. masses --      2.3693                 3.9121                 1.4358
 Frc consts  --      1.1006                 1.8481                 0.7422
 IR Inten    --      0.4187                17.9291                 5.5752

                     46                     47                     48
                      A                      A                      A
 Frequencies --    937.8665               938.9176               940.4602
 Red. masses --      1.9404                 1.6330                 1.8636
 Frc consts  --      1.0056                 0.8482                 0.9712
 IR Inten    --      1.3934                 0.1661                 1.4662

                     49                     50                     51
                      A                      A                      A
 Frequencies --    972.6335               982.3573              1017.6853
 Red. masses --      3.0434                 1.1973                 1.9285
 Frc consts  --      1.6963                 0.6807                 1.1768
 IR Inten    --      4.6010                 0.3683                29.6826

                     52                     53                     54
                      A                      A                      A
 Frequencies --   1024.5997              1063.4245              1066.7176
 Red. masses --      2.2021                 2.2091                 1.4204
 Frc consts  --      1.3621                 1.4719                 0.9522
 IR Inten    --     17.0707                17.4085                 1.9819

                     55                     56                     57
                      A                      A                      A
 Frequencies --   1067.2024              1074.0375              1098.5871
 Red. masses --      1.7093                 1.4984                 2.7838
 Frc consts  --      1.1470                 1.0184                 1.9795
 IR Inten    --     28.7361                 3.1364                21.3382

                     58                     59                     60
                      A                      A                      A
 Frequencies --   1134.0424              1148.6570              1160.6001
 Red. masses --      5.1997                 2.3565                 1.6618
 Frc consts  --      3.9399                 1.8319                 1.3189
 IR Inten    --     32.0583                21.7710                 7.7096

                     61                     62                     63
                      A                      A                      A
 Frequencies --   1173.9876              1196.1938              1212.1217
 Red. masses --      2.6190                 2.8074                 2.5204
 Frc consts  --      2.1267                 2.3668                 2.1818
 IR Inten    --     86.2986                22.5746               315.7244

                     64                     65                     66
                      A                      A                      A
 Frequencies --   1241.0995              1270.8214              1276.6068
 Red. masses --      1.3999                 2.0850                 1.1965
 Frc consts  --      1.2705                 1.9839                 1.1489
 IR Inten    --     13.0631                54.5346                 4.7762

                     67                     68                     69
                      A                      A                      A
 Frequencies --   1282.8208              1287.2238              1299.5326
 Red. masses --      1.3613                 2.6906                 2.7119
 Frc consts  --      1.3199                 2.6267                 2.6984
 IR Inten    --     31.3994                13.7352                13.4350

                     70                     71                     72
                      A                      A                      A
 Frequencies --   1317.1500              1333.8832              1346.5216
 Red. masses --      1.1903                 1.2723                 1.9692
 Frc consts  --      1.2166                 1.3337                 2.1036
 IR Inten    --      3.1656                21.9949                66.0212

                     73                     74                     75
                      A                      A                      A
 Frequencies --   1367.3075              1388.4710              1391.5874
 Red. masses --      1.4268                 1.3332                 1.3819
 Frc consts  --      1.5716                 1.5143                 1.5767
 IR Inten    --      5.7956                14.1277                 6.6293

                     76                     77                     78
                      A                      A                      A
 Frequencies --   1397.2054              1406.7235              1422.0930
 Red. masses --      1.2282                 1.3189                 1.2859
 Frc consts  --      1.4126                 1.5377                 1.5322
 IR Inten    --      6.3684                 9.7080                15.9938

                     79                     80                     81
                      A                      A                      A
 Frequencies --   1426.5836              1439.0086              1441.5231
 Red. masses --      1.2886                 1.3199                 1.2610
 Frc consts  --      1.5451                 1.6103                 1.5439
 IR Inten    --     18.5261                12.9847                 9.5465

                     82                     83                     84
                      A                      A                      A
 Frequencies --   1451.2465              1465.0565              1496.5149
 Red. masses --      1.2371                 1.2018                 1.0909
 Frc consts  --      1.5351                 1.5198                 1.4395
 IR Inten    --     20.6525                 5.6788                 3.5202

                     85                     86                     87
                      A                      A                      A
 Frequencies --   1498.9045              1506.5351              1513.0304
 Red. masses --      1.0481                 1.0808                 1.0921
 Frc consts  --      1.3874                 1.4453                 1.4731
 IR Inten    --      0.3504                 4.1316                15.3270

                     88                     89                     90
                      A                      A                      A
 Frequencies --   1519.3330              1519.9086              1523.9801
 Red. masses --      1.0526                 1.0488                 1.0644
 Frc consts  --      1.4316                 1.4275                 1.4565
 IR Inten    --      1.1723                 0.2672                13.3556

                     91                     92                     93
                      A                      A                      A
 Frequencies --   1526.6150              1527.4886              1534.1102
 Red. masses --      1.0593                 1.0779                 1.0560
 Frc consts  --      1.4546                 1.4818                 1.4643
 IR Inten    --      6.4222                 2.3813                 0.3176

                     94                     95                     96
                      A                      A                      A
 Frequencies --   1535.4201              1538.3709              1542.5510
 Red. masses --      1.0752                 1.1009                 1.0478
 Frc consts  --      1.4934                 1.5350                 1.4690
 IR Inten    --      2.8971                 1.6397                 4.0107

                     97                     98                     99
                      A                      A                      A
 Frequencies --   1556.1621              1789.8560              2981.0077
 Red. masses --      1.0549                11.6213                 1.0733
 Frc consts  --      1.5051                21.9352                 5.6194
 IR Inten    --     10.6215               192.3042                91.2088

                    100                    101                    102
                      A                      A                      A
 Frequencies --   2989.4339              3005.4329              3041.9029
 Red. masses --      1.0709                 1.0705                 1.0475
 Frc consts  --      5.6389                 5.6970                 5.7107
 IR Inten    --     42.4982                52.6105                 9.3374

                    103                    104                    105
                      A                      A                      A
 Frequencies --   3043.4847              3058.1436              3059.7960
 Red. masses --      1.0497                 1.0357                 1.0379
 Frc consts  --      5.7288                 5.7068                 5.7250
 IR Inten    --     37.3792                 7.4782                26.1129

                    106                    107                    108
                      A                      A                      A
 Frequencies --   3066.9301              3069.2216              3074.0635
 Red. masses --      1.0382                 1.0637                 1.0647
 Frc consts  --      5.7533                 5.9036                 5.9279
 IR Inten    --     17.8262                 3.3664                19.3052

                    109                    110                    111
                      A                      A                      A
 Frequencies --   3079.6100              3108.4048              3109.0733
 Red. masses --      1.1020                 1.1019                 1.0935
 Frc consts  --      6.1578                 6.2729                 6.2275
 IR Inten    --     13.6726                72.5015                54.2026

                    112                    113                    114
                      A                      A                      A
 Frequencies --   3115.2294              3115.8173              3117.1028
 Red. masses --      1.0946                 1.0955                 1.0961
 Frc consts  --      6.2585                 6.2664                 6.2747
 IR Inten    --     56.2923                26.1767                27.0408

                    115                    116                    117
                      A                      A                      A
 Frequencies --   3121.4209              3124.2931              3133.2955
 Red. masses --      1.1026                 1.1022                 1.1011
 Frc consts  --      6.3293                 6.3388                 6.3693
 IR Inten    --      7.3126                20.7458                 8.3876

                    118                    119                    120
                      A                      A                      A
 Frequencies --   3134.8665              3138.4922              3142.8078
 Red. masses --      1.1028                 1.1027                 1.0988
 Frc consts  --      6.3856                 6.3997                 6.3943
 IR Inten    --     31.3946                46.9080                11.7048

                    121                    122                    123
                      A                      A                      A
 Frequencies --   3172.2265              3176.4515              3565.3786
 Red. masses --      1.0997                 1.0991                 1.0753
 Frc consts  --      6.5204                 6.5336                 8.0533
 IR Inten    --      2.2507                 8.4568                 7.0971

 - Thermochemistry -
 -------------------
 Temperature   298.150 Kelvin.  Pressure   1.00000 Atm.
 Atom     1 has atomic number  6 and mass  12.00000

 Molecular mass:   275.15552 amu.
 Principal axes and moments of inertia in atomic units:
                           1         2         3
     Eigenvalues --  4187.296575591.872287545.70099
           X            0.99994   0.00563   0.00982
           Y           -0.00570   0.99996   0.00741
           Z           -0.00977  -0.00746   0.99992
 This molecule is an asymmetric top.
 Rotational symmetry number  1.
 Warning -- assumption of classical behavior for rotation
           may cause significant error
 Rotational temperatures (Kelvin)      0.02068     0.01549     0.01148
 Rotational constants (GHZ):           0.43100     0.32274     0.23917
 Zero-point vibrational energy     993635.2 (Joules/Mol)
                                  237.48452 (Kcal/Mol)
 Warning -- explicit consideration of  34 degrees of freedom as
           vibrations may cause significant error
 Vibrational temperatures:     28.07    36.18    55.09    69.04    97.92
          (Kelvin)            158.25   167.47   179.21   186.93   215.32
                              263.38   303.99   320.86   335.10   351.38
                              373.17   376.99   396.32   425.96   445.22
                              466.98   485.28   505.28   521.66   579.87
                              599.24   642.08   649.88   677.09   681.72
                              760.79   786.24   815.95   852.66  1020.61
                             1093.32  1100.01  1178.64  1207.64  1212.59
                             1244.21  1250.07  1277.55  1288.32  1347.65
                             1349.38  1350.89  1353.11  1399.40  1413.39
                             1464.22  1474.17  1530.03  1534.77  1535.47
                             1545.30  1580.62  1631.63  1652.66  1669.84
                             1689.11  1721.06  1743.97  1785.67  1828.43
                             1836.75  1845.69  1852.03  1869.74  1895.09
                             1919.16  1937.34  1967.25  1997.70  2002.18
                             2010.27  2023.96  2046.07  2052.54  2070.41
                             2074.03  2088.02  2107.89  2153.15  2156.59
                             2167.57  2176.91  2185.98  2186.81  2192.67
                             2196.46  2197.72  2207.24  2209.13  2213.37
                             2219.39  2238.97  2575.20  4289.01  4301.13
                             4324.15  4376.62  4378.90  4399.99  4402.36
                             4412.63  4415.93  4422.89  4430.87  4472.30
                             4473.26  4482.12  4482.97  4484.82  4491.03
                             4495.16  4508.11  4510.37  4515.59  4521.80
                             4564.13  4570.21  5129.78

 Zero-point correction=                           0.378456 (Hartree/Particle)
 Thermal correction to Energy=                    0.399289
 Thermal correction to Enthalpy=                  0.400233
 Thermal correction to Gibbs Free Energy=         0.327986
 Sum of electronic and zero-point Energies=          -1188.754481
 Sum of electronic and thermal Energies=             -1188.733649
 Sum of electronic and thermal Enthalpies=           -1188.732704
 Sum of electronic and thermal Free Energies=        -1188.804951

                     E (Thermal)             CV                S
                      KCal/Mol        Cal/Mol-Kelvin    Cal/Mol-Kelvin
 Total                  250.557             77.959            152.056
 Electronic               0.000              0.000              0.000
 Translational            0.889              2.981             42.735
 Rotational               0.889              2.981             33.535
 Vibrational            248.780             71.997             75.786
 Vibration     1          0.593              1.986              6.684
 Vibration     2          0.593              1.985              6.179
 Vibration     3          0.594              1.982              5.346
 Vibration     4          0.595              1.978              4.899
 Vibration     5          0.598              1.969              4.209
 Vibration     6          0.606              1.941              3.269
 Vibration     7          0.608              1.936              3.159
 Vibration     8          0.610              1.928              3.028
 Vibration     9          0.612              1.923              2.947
 Vibration    10          0.618              1.903              2.677
 Vibration    11          0.631              1.863              2.297
 Vibration    12          0.643              1.824              2.033
 Vibration    13          0.649              1.806              1.935
 Vibration    14          0.654              1.791              1.856
 Vibration    15          0.660              1.772              1.772
 Vibration    16          0.668              1.747              1.666
 Vibration    17          0.669              1.742              1.648
 Vibration    18          0.677              1.719              1.562
 Vibration    19          0.690              1.681              1.439
 Vibration    20          0.699              1.656              1.365
 Vibration    21          0.709              1.626              1.287
 Vibration    22          0.718              1.601              1.225
 Vibration    23          0.728              1.573              1.161
 Vibration    24          0.736              1.549              1.111
 Vibration    25          0.768              1.464              0.952
 Vibration    26          0.780              1.434              0.904
 Vibration    27          0.806              1.369              0.807
 Vibration    28          0.810              1.357              0.791
 Vibration    29          0.828              1.315              0.736
 Vibration    30          0.831              1.308              0.727
 Vibration    31          0.884              1.186              0.590
 Vibration    32          0.902              1.147              0.552
 Vibration    33          0.923              1.102              0.510
 Vibration    34          0.950              1.047              0.463

 Optimization completed.
    -- Stationary point found.
 Normal termination of Gaussian 16 at Fri Dec 11 23:23:00 2020.

 ----------------------------------------------------------------------
 # B3LYP/6-311++G(d,p) empiricaldispersion=gd3bj scf=xqc pop=npa geom=c
 heck
 ----------------------------------------------------------------------

 ---------------------------------------
 CID_143045292_JID_8856_Energie_neutraal
 ---------------------------------------
 Structure from the checkpoint file:  "JID_8856.chk"
 Charge =  0 Multiplicity = 1

 SCF Done:  E(RB3LYP) =  -1189.38831394     A.U. after   15 cycles
 Normal termination of Gaussian 16 at Fri Dec 11 23:35:42 2020.

 ----------------------------------------------------------------------
 # B3LYP/6-311++G(d,p) empiricaldispersion=gd3bj scf=xqc pop=npa geom=c
 heck
 ----------------------------------------------------------------------

 -------------------------------------
 CID_143045292_JID_8856_Energie_kation
 -------------------------------------
 Structure from the checkpoint file:  "JID_8856.chk"
 Charge =  1 Multiplicity = 2

 SCF Done:  E(UB3LYP) =  -1189.08273792     A.U. after   33 cycles
 SCF Done:  E(UB3LYP) =  -1189.08666748     a.u. after   11 cycles
 Normal termination of Gaussian 16 at Sat Dec 12 03:28:18 2020.
 Gaussian 16:  ES64L-G16RevA.03 25-Dec-2016

 ----------------------------------------------------------------------
 # B3LYP/6-311++G(d,p) empiricaldispersion=gd3bj scf=xqc pop=npa geom=c
 heck
 ----------------------------------------------------------------------

 ------------------------------------
 CID_143045292_JID_8856_Energie_anion
 ------------------------------------
 Structure from the checkpoint file:  "JID_8856.chk"
 Charge = -1 Multiplicity = 2

                         Standard orientation:
 ---------------------------------------------------------------------
 Center     Atomic      Atomic             Coordinates (Angstroms)
 Number     Number       Type             X           Y           Z
 ---------------------------------------------------------------------
      1          6           0        4.353225    0.795961    0.369388
      2          6           0        3.281176    1.623664    1.084563
      3          6           0        2.303681    2.320569    0.133695
      4          7           0        1.561834    1.334817   -0.657240
      5         16           0        0.073194    1.789150   -1.368478
      6          6           0       -1.147748    0.802785   -0.353264
      7          6           0       -2.540484    1.165404   -0.890036
      8          6           0       -3.617078    0.535641    0.000854
      9          8           0       -3.480317    0.923625    1.361279
     10          6           0       -2.224718    0.529452    1.897392
     11          6           0       -1.063827    1.170695    1.133091
     12          6           0       -0.846469   -0.670379   -0.640283
     13          8           0       -1.326182   -1.288965   -1.570494
     14          8           0        0.034735   -1.160326    0.245300
     15          6           0        0.634291   -2.492691    0.085129
     16          6           0       -0.446061   -3.569656    0.194556
     17          6           0        1.391666   -2.556436   -1.242332
     18          6           0        1.601462   -2.561368    1.266108
     19          1           0        3.911513   -0.043673   -0.180309
     20          1           0        5.067945    0.373766    1.083769
     21          1           0        4.918027    1.408479   -0.344734
     22          1           0        2.707236    0.978963    1.761731
     23          1           0        3.764248    2.393394    1.700783
     24          1           0        1.568640    2.889841    0.708741
     25          1           0        2.848420    3.041355   -0.499599
     26          1           0        2.143141    0.849162   -1.330751
     27          1           0       -2.655545    2.255171   -0.876156
     28          1           0       -2.654320    0.811484   -1.918044
     29          1           0       -4.612728    0.864004   -0.309997
     30          1           0       -3.574687   -0.561920   -0.087635
     31          1           0       -2.130475   -0.569511    1.878030
     32          1           0       -2.226142    0.850907    2.943011
     33          1           0       -0.104607    0.856343    1.549725
     34          1           0       -1.143391    2.259720    1.222157
     35          1           0       -1.140842   -3.513877   -0.643998
     36          1           0        0.023189   -4.559593    0.203441
     37          1           0       -1.005609   -3.449459    1.128500
     38          1           0        2.119920   -1.740165   -1.296311
     39          1           0        1.935137   -3.505006   -1.309349
     40          1           0        0.709294   -2.480157   -2.089811
     41          1           0        2.332477   -1.748986    1.206871
     42          1           0        1.059065   -2.469891    2.212509
     43          1           0        2.135576   -3.516980    1.261913
 ---------------------------------------------------------------------

 SCF Done:  E(UB3LYP) =  -1189.37705489     A.U. after   33 cycles
 SCF Done:  E(UB3LYP) =  -1189.37705489     a.u. after    1 cycles

 The electronic state is 2-A.
 Alpha  occ. eigenvalues --  -88.77310 -19.06895 -19.04426 -19.01611 -14.23161
 Alpha  occ. eigenvalues --  -10.20993 -10.15148 -10.13832 -10.13356 -10.13004
 Alpha  occ. eigenvalues --  -10.10330 -10.09334 -10.08512 -10.07113 -10.06848
 Alpha  occ. eigenvalues --  -10.06627 -10.06616 -10.06032  -7.85671  -5.82137
 Alpha  occ. eigenvalues --   -5.81744  -5.80958  -1.01125  -0.95923  -0.92807
 Alpha  occ. eigenvalues --   -0.82580  -0.74997  -0.71807  -0.68647  -0.68301
 Alpha  occ. eigenvalues --   -0.62045  -0.60453  -0.60287  -0.58299  -0.56643
 Alpha  occ. eigenvalues --   -0.55691  -0.52585  -0.48895  -0.48810  -0.42666
 Alpha  occ. eigenvalues --   -0.42266  -0.40621  -0.39769  -0.39653  -0.38748
 Alpha  occ. eigenvalues --   -0.37931  -0.37198  -0.36314  -0.35342  -0.34785
 Alpha  occ. eigenvalues --   -0.34303  -0.33696  -0.32470  -0.32126  -0.31260
 Alpha  occ. eigenvalues --   -0.30804  -0.30125  -0.29662  -0.28915  -0.28027
 Alpha  occ. eigenvalues --   -0.27780  -0.27209  -0.26302  -0.26102  -0.25342
 Alpha  occ. eigenvalues --   -0.25139  -0.24762  -0.24317  -0.24146  -0.22775
 Alpha  occ. eigenvalues --   -0.21220  -0.18682  -0.17738  -0.14626  -0.14337
 Alpha  occ. eigenvalues --    0.04148
 Alpha virt. eigenvalues --    0.06090   0.06401   0.06915   0.07226   0.08189
 Alpha virt. eigenvalues --    0.08251   0.08538   0.09126   0.09542   0.09813
 Alpha virt. eigenvalues --    0.10315   0.10747   0.10876   0.11445   0.11729

  Beta  occ. eigenvalues --  -88.77299 -19.06890 -19.04425 -19.01594 -14.23125
  Beta  occ. eigenvalues --  -10.20974 -10.15146 -10.13829 -10.13348 -10.13000
  Beta  occ. eigenvalues --  -10.10311 -10.09332 -10.08506 -10.07093 -10.06820
  Beta  occ. eigenvalues --  -10.06600 -10.06581 -10.05981  -7.85662  -5.82103
  Beta  occ. eigenvalues --   -5.81739  -5.80953  -1.01103  -0.95919  -0.92783
  Beta  occ. eigenvalues --   -0.82522  -0.74973  -0.71786  -0.68637  -0.68250
  Beta  occ. eigenvalues --   -0.61998  -0.60403  -0.60235  -0.58237  -0.56609
  Beta  occ. eigenvalues --   -0.55642  -0.52550  -0.48867  -0.48712  -0.42634
  Beta  occ. eigenvalues --   -0.42236  -0.40577  -0.39757  -0.39603  -0.38720
  Beta  occ. eigenvalues --   -0.37889  -0.37183  -0.36260  -0.35311  -0.34759
  Beta  occ. eigenvalues --   -0.34260  -0.33645  -0.32442  -0.32084  -0.31229
  Beta  occ. eigenvalues --   -0.30771  -0.30092  -0.29611  -0.28878  -0.28008
  Beta  occ. eigenvalues --   -0.27748  -0.27169  -0.26274  -0.26053  -0.25294
  Beta  occ. eigenvalues --   -0.25101  -0.24727  -0.24286  -0.24108  -0.22759
  Beta  occ. eigenvalues --   -0.21177  -0.18665  -0.17720  -0.14590  -0.14294
  Beta virt. eigenvalues --    0.06213   0.06499   0.07055   0.07249   0.07546
  Beta virt. eigenvalues --    0.08536   0.08729   0.08921   0.09445   0.09709
  Beta virt. eigenvalues --    0.10116   0.10534   0.11008   0.11097   0.11697

 Mulliken charges and spin densities:
               1          2
     1  C    1.590178  -2.099319
     2  C   -0.907989   0.727822
     3  C    0.528934  -0.775473
     4  N   -0.067144  -0.159858
     5  S    0.318853  -0.339796
     6  C    1.143631  -0.141717
     7  C   -0.277444   0.018548
     8  C   -0.460386  -0.020618
     9  O   -0.105969   0.008479
    10  C   -0.027728  -0.484803
    11  C   -0.423509   0.172510
    12  C   -1.537767   0.215340
    13  O   -0.149750   0.008159
    14  O    0.380267  -0.012385
    15  C   -1.372632   1.311840
    16  C    0.399139  -0.836303
    17  C    0.659438  -1.021610
    18  C    0.004320  -0.443634
    19  H   -0.437512   0.572753
    20  H   -0.429289   0.577359
    21  H   -0.257239   0.401351
    22  H   -0.272233   0.413228
    23  H   -0.358847   0.522225
    24  H   -0.011246   0.129534
    25  H   -0.381517   0.545265
    26  H    0.117841   0.177665
    27  H    0.168668  -0.007915
    28  H    0.201210  -0.005119
    29  H    0.168873   0.026771
    30  H    0.132673   0.032218
    31  H    0.307569  -0.129798
    32  H    0.006060   0.196446
    33  H    0.379972  -0.270325
    34  H    0.170628   0.055136
    35  H    0.029733   0.155776
    36  H   -0.161759   0.337657
    37  H   -0.013060   0.146456
    38  H    0.212857  -0.113340
    39  H   -0.267434   0.453656
    40  H    0.061611   0.125346
    41  H    0.546158  -0.383781
    42  H   -0.454270   0.606576
    43  H   -0.153891   0.307681
 Sum of Mulliken charges =  -1.00000   1.00000

 Dipole moment (field-independent basis, Debye):
    X=             -8.4231    Y=              2.2156    Z=             -1.1400  Tot=              8.7839
 Quadrupole moment (field-independent basis, Debye-Ang):
   XX=           -202.0068   YY=           -181.6507   ZZ=           -160.1317
   XY=             -5.6364   XZ=             -2.0484   YZ=              0.9078

 Summary of Natural Population Analysis:

                                       Natural Population
                Natural  -----------------------------------------------
    Atom  No    Charge         Core      Valence    Rydberg      Total
 -----------------------------------------------------------------------
      C    1   -0.28880      0.99967     2.28352    0.00561     3.28880
      C    2   -0.19384      0.99964     2.18547    0.00874     3.19384
      C    3   -0.08213      0.99961     2.07058    0.01194     3.08213
      N    4   -0.40572      0.99975     2.89380    0.01217     3.90572
      S    5    0.20818      4.99954     2.77106    0.02122     7.79182
      C    6   -0.12956      0.99947     2.11347    0.01662     3.12956
      C    7   -0.21211      0.99958     2.20361    0.00891     3.21211
      C    8   -0.00916      0.99958     1.99762    0.01196     3.00916
      O    9   -0.30127      0.99989     3.29294    0.00844     4.30127
      C   10   -0.01250      0.99958     1.99897    0.01395     3.01250
      C   11   -0.21480      0.99957     2.20366    0.01156     3.21480
      C   12    0.41223      0.99956     1.55765    0.03056     2.58777
      O   13   -0.31575      0.99987     3.31087    0.00501     4.31575
      O   14   -0.29326      0.99984     3.28050    0.01292     4.29326
      C   15    0.13387      0.99953     1.85149    0.01512     2.86613
      C   16   -0.30055      0.99960     2.29415    0.00681     3.30055
      C   17   -0.30040      0.99960     2.29385    0.00696     3.30040
      C   18   -0.28794      0.99960     2.28092    0.00743     3.28794
      H   19    0.09509      0.00000     0.40299    0.00192     0.40491
      H   20    0.10325      0.00000     0.39526    0.00149     0.39675
      H   21    0.09726      0.00000     0.40105    0.00169     0.40274
      H   22    0.09639      0.00000     0.40174    0.00187     0.40361
      H   23    0.09730      0.00000     0.40132    0.00138     0.40270
      H   24    0.09604      0.00000     0.40258    0.00138     0.40396
      H   25    0.08304      0.00000     0.41551    0.00145     0.41696
      H   26    0.18747      0.00000     0.31030    0.00223     0.31253
      H   27    0.10298      0.00000     0.39581    0.00121     0.39702
      H   28    0.11635      0.00000     0.38263    0.00102     0.38365
      H   29    0.09018      0.00000     0.40884    0.00098     0.40982
      H   30    0.08345      0.00000     0.41516    0.00140     0.41655
      H   31    0.08135      0.00000     0.41717    0.00147     0.41865
      H   32    0.09235      0.00000     0.40658    0.00107     0.40765
      H   33    0.11903      0.00000     0.37931    0.00166     0.38097
      H   34    0.10256      0.00000     0.39615    0.00129     0.39744
      H   35    0.11238      0.00000     0.38660    0.00103     0.38762
      H   36    0.10430      0.00000     0.39469    0.00100     0.39570
      H   37    0.10133      0.00000     0.39757    0.00110     0.39867
      H   38    0.10263      0.00000     0.39566    0.00172     0.39737
      H   39    0.10460      0.00000     0.39443    0.00097     0.39540
      H   40    0.11180      0.00000     0.38713    0.00108     0.38820
      H   41    0.10655      0.00000     0.39160    0.00185     0.39345
      H   42    0.10249      0.00000     0.39614    0.00138     0.39751
      H   43    0.10334      0.00000     0.39539    0.00127     0.39666
 =======================================================================
   * Total *   -0.00000     21.99347    52.75574    0.25080    75.00000

 Normal termination of Gaussian 16 at Sat Dec 12 04:06:59 2020.
