 Gaussian 16, Revision A.03,

 -----------------------------------------------------------
 # opt freq B3LYP/6-31G(d) empiricaldispersion=gd3bj scf=xqc
 -----------------------------------------------------------

 --------------------------------
 CID_108140477_JID_10130_neutraal
 --------------------------------
 Symbolic Z-matrix:
 Charge =  0 Multiplicity = 1

 SCF Done:  E(RB3LYP) =  -1004.04489884     A.U. after   16 cycles
 SCF Done:  E(RB3LYP) =  -1004.05424527     A.U. after   15 cycles
 SCF Done:  E(RB3LYP) =  -1004.04996693     A.U. after   15 cycles
 SCF Done:  E(RB3LYP) =  -1004.05802983     A.U. after   15 cycles
 SCF Done:  E(RB3LYP) =  -1004.05966304     A.U. after   15 cycles
 SCF Done:  E(RB3LYP) =  -1004.06102468     A.U. after   15 cycles
 SCF Done:  E(RB3LYP) =  -1004.06283650     A.U. after   17 cycles
 SCF Done:  E(RB3LYP) =  -1004.06502415     A.U. after   14 cycles
 SCF Done:  E(RB3LYP) =  -1004.06496699     A.U. after   15 cycles
 SCF Done:  E(RB3LYP) =  -1004.06687715     A.U. after   15 cycles
 SCF Done:  E(RB3LYP) =  -1004.06769596     A.U. after    9 cycles
 SCF Done:  E(RB3LYP) =  -1004.06769662     A.U. after   10 cycles
 SCF Done:  E(RB3LYP) =  -1004.06769711     A.U. after    9 cycles
 SCF Done:  E(RB3LYP) =  -1004.06769737     A.U. after    9 cycles
 SCF Done:  E(RB3LYP) =  -1004.06769750     A.U. after    8 cycles
 SCF Done:  E(RB3LYP) =  -1004.06769756     A.U. after    8 cycles
 Optimization completed.
    -- Stationary point found.
 Normal termination of Gaussian 16 at Sun Dec 13 17:04:07 2020.

 --------------------------------------------------------------------
 #N Geom=AllCheck Guess=TCheck SCRF=Check GenChk RB3LYP/6-31G(d) Freq
 --------------------------------------------------------------------

 Structure from the checkpoint file:  "JID_10130.chk"
 --------------------------------
 CID_108140477_JID_10130_neutraal
 --------------------------------
 Charge =  0 Multiplicity = 1

 SCF Done:  E(RB3LYP) =  -1004.06769756     A.U. after    1 cycles

  Exact polarizability: 203.425  20.754 197.767  18.765  -9.809 116.632
 Approx polarizability: 266.602  38.302 310.603  39.128 -30.368 205.186

                      1                      2                      3
                      A                      A                      A
 Frequencies --     21.7530                27.7049                37.1531
 Red. masses --      4.4800                 4.3160                 4.2404
 Frc consts  --      0.0012                 0.0020                 0.0034
 IR Inten    --      0.7138                 0.0927                 0.3343

                      4                      5                      6
                      A                      A                      A
 Frequencies --     46.7969                51.9073                56.8280
 Red. masses --      1.1933                 4.5873                 7.1456
 Frc consts  --      0.0015                 0.0073                 0.0136
 IR Inten    --      1.4542                 0.2550                 1.2362

                      7                      8                      9
                      A                      A                      A
 Frequencies --     79.5669                92.4734               104.5415
 Red. masses --      3.5033                 3.5398                 3.4056
 Frc consts  --      0.0131                 0.0178                 0.0219
 IR Inten    --      0.8514                 3.6399                 3.2974

                     10                     11                     12
                      A                      A                      A
 Frequencies --    143.3995               168.6316               179.7095
 Red. masses --      3.8885                 4.7160                 3.4750
 Frc consts  --      0.0471                 0.0790                 0.0661
 IR Inten    --      3.9712                 0.2459                 1.2868

                     13                     14                     15
                      A                      A                      A
 Frequencies --    191.2534               204.8067               214.1399
 Red. masses --      1.9901                 2.2699                 1.7909
 Frc consts  --      0.0429                 0.0561                 0.0484
 IR Inten    --      1.4156                 4.6410                 2.0245

                     16                     17                     18
                      A                      A                      A
 Frequencies --    232.0387               238.7884               243.1788
 Red. masses --      2.7804                 1.7604                 1.1996
 Frc consts  --      0.0882                 0.0591                 0.0418
 IR Inten    --      2.4871                 1.6073                 0.3828

                     19                     20                     21
                      A                      A                      A
 Frequencies --    250.8165               279.6195               327.3598
 Red. masses --      4.4327                 3.7136                 4.2109
 Frc consts  --      0.1643                 0.1711                 0.2659
 IR Inten    --      2.0050                 7.2692                 7.9459

                     22                     23                     24
                      A                      A                      A
 Frequencies --    339.7260               352.3136               376.9348
 Red. masses --      3.6583                 3.8396                 4.0081
 Frc consts  --      0.2488                 0.2808                 0.3355
 IR Inten    --      2.7721                 3.0413                 6.2412

                     25                     26                     27
                      A                      A                      A
 Frequencies --    402.7904               439.8091               470.0296
 Red. masses --      3.8708                 4.1223                 1.1784
 Frc consts  --      0.3700                 0.4698                 0.1534
 IR Inten    --     11.1083                16.1127                80.3402

                     28                     29                     30
                      A                      A                      A
 Frequencies --    473.6235               522.1135               566.3858
 Red. masses --      5.1612                 4.4698                 6.0723
 Frc consts  --      0.6821                 0.7179                 1.1477
 IR Inten    --      2.8869                15.6819                 5.4195

                     31                     32                     33
                      A                      A                      A
 Frequencies --    590.4007               633.3894               641.9972
 Red. masses --      3.3443                 4.5804                 5.3759
 Frc consts  --      0.6868                 1.0827                 1.3055
 IR Inten    --      9.3464                 7.1374                15.1366

                     34                     35                     36
                      A                      A                      A
 Frequencies --    654.1534               697.6214               726.0434
 Red. masses --      2.1081                 4.2958                 6.7763
 Frc consts  --      0.5315                 1.2318                 2.1046
 IR Inten    --     50.2927                26.4317                 3.5036

                     37                     38                     39
                      A                      A                      A
 Frequencies --    755.4341               759.6793               773.7283
 Red. masses --      3.3863                 3.6432                 4.9764
 Frc consts  --      1.1386                 1.2388                 1.7553
 IR Inten    --     27.7653                21.7988                14.2595

                     40                     41                     42
                      A                      A                      A
 Frequencies --    797.2036               802.8499               846.4236
 Red. masses --      2.5626                 2.4188                 9.2902
 Frc consts  --      0.9595                 0.9186                 3.9215
 IR Inten    --     17.9668                16.3122                23.7985

                     43                     44                     45
                      A                      A                      A
 Frequencies --    868.9949               904.0656               931.3282
 Red. masses --      2.6775                 2.1306                 2.2261
 Frc consts  --      1.1913                 1.0260                 1.1377
 IR Inten    --      7.1553                 3.1632                 4.3260

                     46                     47                     48
                      A                      A                      A
 Frequencies --    989.7948              1022.3092              1042.6426
 Red. masses --      2.9455                 2.4762                 2.2021
 Frc consts  --      1.7002                 1.5247                 1.4105
 IR Inten    --      1.8108                16.0358                 7.1381

                     49                     50                     51
                      A                      A                      A
 Frequencies --   1069.5672              1083.2506              1096.6453
 Red. masses --      1.5998                 2.8982                 2.4577
 Frc consts  --      1.0783                 2.0037                 1.7414
 IR Inten    --      3.4557                65.2062               133.4400

                     52                     53                     54
                      A                      A                      A
 Frequencies --   1115.4671              1128.2471              1132.8030
 Red. masses --      3.2750                 2.8956                 2.0688
 Frc consts  --      2.4009                 2.1717                 1.5641
 IR Inten    --     10.0587                25.5162                23.6008

                     55                     56                     57
                      A                      A                      A
 Frequencies --   1163.9952              1176.7013              1190.7999
 Red. masses --      1.2898                 2.8863                 2.3219
 Frc consts  --      1.0296                 2.3547                 1.9398
 IR Inten    --     18.0620                51.2428                 3.5353

                     58                     59                     60
                      A                      A                      A
 Frequencies --   1209.8101              1224.7697              1280.5720
 Red. masses --      1.7707                 3.1131                 4.5455
 Frc consts  --      1.5270                 2.7514                 4.3918
 IR Inten    --      6.5404                50.8046               320.5516

                     61                     62                     63
                      A                      A                      A
 Frequencies --   1308.7736              1336.4033              1343.4437
 Red. masses --      1.3457                 2.1722                 1.2161
 Frc consts  --      1.3581                 2.2857                 1.2932
 IR Inten    --     28.0463                26.6897                44.9564

                     64                     65                     66
                      A                      A                      A
 Frequencies --   1360.5020              1380.8716              1398.1976
 Red. masses --      3.1377                 7.9933                 1.4894
 Frc consts  --      3.4219                 8.9802                 1.7155
 IR Inten    --    127.4176               379.9045                20.5790

                     67                     68                     69
                      A                      A                      A
 Frequencies --   1417.9805              1427.0591              1428.4604
 Red. masses --      1.2652                 1.2810                 1.4062
 Frc consts  --      1.4988                 1.5371                 1.6906
 IR Inten    --      4.7226                 4.1131                11.0887

                     70                     71                     72
                      A                      A                      A
 Frequencies --   1444.5652              1452.3209              1454.6498
 Red. masses --      1.3290                 1.9113                 2.8451
 Frc consts  --      1.6339                 2.3752                 3.5471
 IR Inten    --     10.5002                37.5914               228.8123

                     73                     74                     75
                      A                      A                      A
 Frequencies --   1485.5503              1499.1872              1508.1457
 Red. masses --      1.2254                 1.4301                 1.0642
 Frc consts  --      1.5933                 1.8937                 1.4262
 IR Inten    --     17.6416                39.6723                20.3330

                     76                     77                     78
                      A                      A                      A
 Frequencies --   1508.9994              1515.9482              1518.9059
 Red. masses --      1.0710                 1.0527                 1.0924
 Frc consts  --      1.4369                 1.4254                 1.4848
 IR Inten    --     17.6486                 4.7463                20.1065

                     79                     80                     81
                      A                      A                      A
 Frequencies --   1521.2015              1525.5176              1536.1595
 Red. masses --      1.1169                 1.0483                 1.2447
 Frc consts  --      1.5227                 1.4373                 1.7306
 IR Inten    --     30.4723                 6.9702                22.3616

                     82                     83                     84
                      A                      A                      A
 Frequencies --   1537.5412              1555.1432              1573.0032
 Red. masses --      1.0589                 1.6300                 6.8343
 Frc consts  --      1.4749                 2.3226                 9.9634
 IR Inten    --      6.4621               150.3586                95.7811

                     85                     86                     87
                      A                      A                      A
 Frequencies --   1624.0207              1631.0356              1644.9901
 Red. masses --      6.6192                 4.3531                 4.0563
 Frc consts  --     10.2858                 6.8231                 6.4670
 IR Inten    --    477.2308               819.3783               614.0057

                     88                     89                     90
                      A                      A                      A
 Frequencies --   1832.4070              3049.0413              3063.2877
 Red. masses --     11.0779                 1.0441                 1.0360
 Frc consts  --     21.9155                 5.7190                 5.7277
 IR Inten    --    183.3106                68.4337                13.4849

                     91                     92                     93
                      A                      A                      A
 Frequencies --   3066.5393              3079.0539              3099.5029
 Red. masses --      1.0369                 1.0354                 1.0592
 Frc consts  --      5.7448                 5.7836                 5.9953
 IR Inten    --     21.7666                 3.8562                19.6707

                     94                     95                     96
                      A                      A                      A
 Frequencies --   3122.5593              3130.1287              3134.8752
 Red. masses --      1.0915                 1.1016                 1.1019
 Frc consts  --      6.2703                 6.3590                 6.3803
 IR Inten    --     27.8234                23.1910                14.0012

                     97                     98                     99
                      A                      A                      A
 Frequencies --   3141.5250              3143.2678              3161.2227
 Red. masses --      1.0997                 1.1038                 1.1054
 Frc consts  --      6.3943                 6.4255                 6.5086
 IR Inten    --      4.5298                 6.0606                14.1417

                    100                    101                    102
                      A                      A                      A
 Frequencies --   3163.1827              3172.6430              3178.1065
 Red. masses --      1.1086                 1.1052                 1.1012
 Frc consts  --      6.5356                 6.5542                 6.5530
 IR Inten    --     23.3449                12.0861                 5.9755

                    103                    104                    105
                      A                      A                      A
 Frequencies --   3193.6456              3569.9859              3649.2052
 Red. masses --      1.0866                 1.0740                 1.0771
 Frc consts  --      6.5295                 8.0645                 8.4507
 IR Inten    --      3.6707                53.1349                65.1135

 - Thermochemistry -
 -------------------
 Temperature   298.150 Kelvin.  Pressure   1.00000 Atm.
 Atom     1 has atomic number  6 and mass  12.00000

 Molecular mass:   283.12805 amu.
 Principal axes and moments of inertia in atomic units:
                           1         2         3
     Eigenvalues --  3896.215668321.62416**********
           X            0.99996   0.00179   0.00838
           Y           -0.00184   0.99998   0.00550
           Z           -0.00837  -0.00552   0.99995
 This molecule is an asymmetric top.
 Rotational symmetry number  1.
 Warning -- assumption of classical behavior for rotation
           may cause significant error
 Rotational temperatures (Kelvin)      0.02223     0.01041     0.00789
 Rotational constants (GHZ):           0.46320     0.21687     0.16430
 Zero-point vibrational energy     785561.6 (Joules/Mol)
                                  187.75372 (Kcal/Mol)
 Warning -- explicit consideration of  31 degrees of freedom as
           vibrations may cause significant error
 Vibrational temperatures:     31.30    39.86    53.46    67.33    74.68
          (Kelvin)             81.76   114.48   133.05   150.41   206.32
                              242.62   258.56   275.17   294.67   308.10
                              333.85   343.56   349.88   360.87   402.31
                              471.00   488.79   506.90   542.33   579.53
                              632.79   676.27   681.44   751.20   814.90
                              849.45   911.31   923.69   941.18  1003.72
                             1044.61  1086.90  1093.01  1113.22  1147.00
                             1155.12  1217.81  1250.29  1300.75  1339.97
                             1424.09  1470.87  1500.13  1538.87  1558.56
                             1577.83  1604.91  1623.30  1629.85  1674.73
                             1693.01  1713.30  1740.65  1762.17  1842.46
                             1883.03  1922.79  1932.92  1957.46  1986.77
                             2011.69  2040.16  2053.22  2055.24  2078.41
                             2089.57  2092.92  2137.38  2157.00  2169.89
                             2171.11  2181.11  2185.37  2188.67  2194.88
                             2210.19  2212.18  2237.50  2263.20  2336.60
                             2346.70  2366.77  2636.43  4386.89  4407.39
                             4412.07  4430.07  4459.49  4492.67  4503.56
                             4510.39  4519.95  4522.46  4548.29  4551.11
                             4564.73  4572.59  4594.94  5136.41  5250.39

 Zero-point correction=                           0.299205 (Hartree/Particle)
 Thermal correction to Energy=                    0.320252
 Thermal correction to Enthalpy=                  0.321196
 Thermal correction to Gibbs Free Energy=         0.246678
 Sum of electronic and zero-point Energies=          -1003.768493
 Sum of electronic and thermal Energies=             -1003.747445
 Sum of electronic and thermal Enthalpies=           -1003.746501
 Sum of electronic and thermal Free Energies=        -1003.821019

                     E (Thermal)             CV                S
                      KCal/Mol        Cal/Mol-Kelvin    Cal/Mol-Kelvin
 Total                  200.961             75.021            156.837
 Electronic               0.000              0.000              0.000
 Translational            0.889              2.981             42.820
 Rotational               0.889              2.981             34.231
 Vibrational            199.184             69.059             79.786
 Vibration     1          0.593              1.985              6.467
 Vibration     2          0.593              1.984              5.987
 Vibration     3          0.594              1.982              5.405
 Vibration     4          0.595              1.979              4.948
 Vibration     5          0.596              1.977              4.743
 Vibration     6          0.596              1.975              4.564
 Vibration     7          0.600              1.963              3.902
 Vibration     8          0.602              1.955              3.607
 Vibration     9          0.605              1.946              3.368
 Vibration    10          0.616              1.910              2.758
 Vibration    11          0.625              1.881              2.451
 Vibration    12          0.629              1.867              2.331
 Vibration    13          0.634              1.852              2.216
 Vibration    14          0.640              1.833              2.089
 Vibration    15          0.644              1.819              2.008
 Vibration    16          0.653              1.792              1.863
 Vibration    17          0.657              1.781              1.812
 Vibration    18          0.659              1.774              1.780
 Vibration    19          0.663              1.761              1.725
 Vibration    20          0.680              1.711              1.536
 Vibration    21          0.711              1.621              1.273
 Vibration    22          0.720              1.596              1.213
 Vibration    23          0.729              1.571              1.156
 Vibration    24          0.747              1.519              1.051
 Vibration    25          0.768              1.464              0.952
 Vibration    26          0.800              1.383              0.827
 Vibration    27          0.827              1.317              0.737
 Vibration    28          0.830              1.309              0.727
 Vibration    29          0.877              1.201              0.605
 Vibration    30          0.922              1.104              0.511
 Vibration    31          0.948              1.052              0.466

 Optimization completed.
    -- Stationary point found.
 Normal termination of Gaussian 16 at Sun Dec 13 17:24:26 2020.

 ----------------------------------------------------------------------
 # B3LYP/6-311++G(d,p) empiricaldispersion=gd3bj scf=xqc pop=npa geom=c
 heck
 ----------------------------------------------------------------------

 ----------------------------------------
 CID_108140477_JID_10130_Energie_neutraal
 ----------------------------------------
 Structure from the checkpoint file:  "JID_10130.chk"
 Charge =  0 Multiplicity = 1

 SCF Done:  E(RB3LYP) =  -1004.35913600     A.U. after   16 cycles
 Normal termination of Gaussian 16 at Sun Dec 13 17:33:32 2020.

 ----------------------------------------------------------------------
 # B3LYP/6-311++G(d,p) empiricaldispersion=gd3bj scf=xqc pop=npa geom=c
 heck
 ----------------------------------------------------------------------

 --------------------------------------
 CID_108140477_JID_10130_Energie_kation
 --------------------------------------
 Structure from the checkpoint file:  "JID_10130.chk"
 Charge =  1 Multiplicity = 2

 SCF Done:  E(UB3LYP) =  -1004.05840198     A.U. after   32 cycles
 Normal termination of Gaussian 16 at Sun Dec 13 17:59:49 2020.
 Gaussian 16:  ES64L-G16RevA.03 25-Dec-2016

 ----------------------------------------------------------------------
 # B3LYP/6-311++G(d,p) empiricaldispersion=gd3bj scf=xqc pop=npa geom=c
 heck
 ----------------------------------------------------------------------

 -------------------------------------
 CID_108140477_JID_10130_Energie_anion
 -------------------------------------
 Structure from the checkpoint file:  "JID_10130.chk"
 Charge = -1 Multiplicity = 2

                         Standard orientation:
 ---------------------------------------------------------------------
 Center     Atomic      Atomic             Coordinates (Angstroms)
 Number     Number       Type             X           Y           Z
 ---------------------------------------------------------------------
      1          6           0       -5.304480    1.609664    0.272410
      2          6           0       -3.891544    1.935279    0.725823
      3          8           0       -2.920978    1.120811    0.020874
      4          6           0       -2.708267   -0.120656    0.509202
      5          8           0       -3.259002   -0.577944    1.484784
      6          6           0       -1.740430   -0.910123   -0.373512
      7          6           0       -2.538448   -1.614770   -1.479937
      8          7           0       -0.713449   -0.039202   -0.938153
      9          6           0        0.584604    0.078650   -0.543402
     10          7           0        1.085286    1.312893   -0.678614
     11          6           0        2.343284    1.519991   -0.263200
     12          7           0        3.148695    0.626793    0.352966
     13          6           0        2.684258   -0.616176    0.472916
     14          6           0        1.402708   -0.963826   -0.009212
     15          7           0        1.011263   -2.349225   -0.077160
     16          8           0        0.349905   -2.717652   -1.057780
     17          8           0        1.373448   -3.113882    0.823467
     18          6           0        3.634345   -1.594098    1.109427
     19          7           0        2.846854    2.758578   -0.469875
     20          6           0        4.143612    3.195136    0.010856
     21          1           0       -5.402532    1.732374   -0.810990
     22          1           0       -6.016531    2.283211    0.762053
     23          1           0       -5.563765    0.581836    0.539526
     24          1           0       -3.610805    2.961452    0.479597
     25          1           0       -3.768190    1.769486    1.798328
     26          1           0       -1.289043   -1.653885    0.277292
     27          1           0       -3.017438   -0.875311   -2.130569
     28          1           0       -1.857734   -2.228312   -2.071566
     29          1           0       -3.313564   -2.250498   -1.041262
     30          1           0       -1.072793    0.861006   -1.238060
     31          1           0        4.598934   -1.098294    1.228068
     32          1           0        3.260178   -1.916956    2.084814
     33          1           0        3.750190   -2.500872    0.509345
     34          1           0        2.198749    3.428749   -0.855661
     35          1           0        4.381816    4.152638   -0.458037
     36          1           0        4.159159    3.316816    1.101364
     37          1           0        4.907970    2.462610   -0.257381
 ---------------------------------------------------------------------

 SCF Done:  E(UB3LYP) =  -1004.38282942     A.U. after   29 cycles

 The electronic state is 2-A.
 Alpha  occ. eigenvalues --  -19.08459 -19.02345 -18.93283 -18.93281 -14.30645
 Alpha  occ. eigenvalues --  -14.21525 -14.20995 -14.17358 -14.16682 -10.20846
 Alpha  occ. eigenvalues --  -10.15455 -10.13320 -10.12817 -10.11367 -10.10320
 Alpha  occ. eigenvalues --  -10.09738 -10.08540 -10.06476 -10.05819 -10.03216
 Alpha  occ. eigenvalues --   -1.02277  -1.01475  -0.93553  -0.88138  -0.84349
 Alpha  occ. eigenvalues --   -0.83501  -0.79183  -0.75291  -0.70291  -0.67502
 Alpha  occ. eigenvalues --   -0.65099  -0.60616  -0.59987  -0.58896  -0.54343
 Alpha  occ. eigenvalues --   -0.52210  -0.49864  -0.48025  -0.46528  -0.44676
 Alpha  occ. eigenvalues --   -0.41726  -0.41174  -0.39832  -0.38606  -0.37261
 Alpha  occ. eigenvalues --   -0.36931  -0.35417  -0.35165  -0.34418  -0.34277
 Alpha  occ. eigenvalues --   -0.33642  -0.32479  -0.32099  -0.30907  -0.30411
 Alpha  occ. eigenvalues --   -0.30166  -0.29883  -0.28984  -0.27632  -0.27229
 Alpha  occ. eigenvalues --   -0.26861  -0.26271  -0.25705  -0.25098  -0.22837
 Alpha  occ. eigenvalues --   -0.22392  -0.19875  -0.19237  -0.17748  -0.13032
 Alpha  occ. eigenvalues --   -0.12895  -0.12218  -0.11423  -0.10246  -0.08225
 Alpha  occ. eigenvalues --    0.03769
 Alpha virt. eigenvalues --    0.05330   0.06849   0.07872   0.08237   0.09069
 Alpha virt. eigenvalues --    0.09348   0.09451   0.10419   0.10539   0.11103
 Alpha virt. eigenvalues --    0.11265   0.11511   0.12279   0.12991   0.13190

  Beta  occ. eigenvalues --  -19.08457 -19.02342 -18.92783 -18.92704 -14.29811
  Beta  occ. eigenvalues --  -14.21457 -14.20973 -14.17430 -14.16774 -10.20841
  Beta  occ. eigenvalues --  -10.15451 -10.13106 -10.12707 -10.11365 -10.10324
  Beta  occ. eigenvalues --  -10.09732 -10.08301 -10.06549 -10.05807 -10.03230
  Beta  occ. eigenvalues --   -1.02272  -1.00202  -0.93547  -0.87983  -0.83876
  Beta  occ. eigenvalues --   -0.82837  -0.79065  -0.75265  -0.70271  -0.67301
  Beta  occ. eigenvalues --   -0.64922  -0.60430  -0.59798  -0.58880  -0.54267
  Beta  occ. eigenvalues --   -0.51759  -0.49693  -0.47905  -0.46033  -0.44531
  Beta  occ. eigenvalues --   -0.41606  -0.41117  -0.39782  -0.38517  -0.37202
  Beta  occ. eigenvalues --   -0.36763  -0.34811  -0.34568  -0.34234  -0.33598
  Beta  occ. eigenvalues --   -0.33024  -0.32385  -0.31566  -0.30709  -0.30104
  Beta  occ. eigenvalues --   -0.29666  -0.29059  -0.28476  -0.27500  -0.27126
  Beta  occ. eigenvalues --   -0.26765  -0.26219  -0.25584  -0.24884  -0.22662
  Beta  occ. eigenvalues --   -0.22238  -0.19889  -0.19127  -0.17331  -0.13032
  Beta  occ. eigenvalues --   -0.12106  -0.10989  -0.09938  -0.09216  -0.07612
  Beta virt. eigenvalues --    0.05316   0.06796   0.07790   0.08154   0.09077
  Beta virt. eigenvalues --    0.09257   0.09382   0.10490   0.10700   0.11066
  Beta virt. eigenvalues --    0.11160   0.11433   0.11627   0.12240   0.12996

 Mulliken charges and spin densities:
               1          2
     1  C   -0.248789  -0.129185
     2  C   -0.147318  -0.021857
     3  O    0.008355   0.003193
     4  C   -0.383387   0.101171
     5  O   -0.226900   0.000709
     6  C   -0.262335  -0.053920
     7  C   -0.338235  -0.089486
     8  N    0.195926   0.001882
     9  C   -0.209619   0.073061
    10  N   -0.237187  -0.036235
    11  C    0.041532   0.097016
    12  N   -0.162884  -0.049464
    13  C    0.334600   0.154011
    14  C   -0.254878  -0.075293
    15  N   -0.371464   0.268053
    16  O   -0.150002   0.188989
    17  O   -0.141589   0.218569
    18  C   -0.683738  -0.004293
    19  N   -0.230873   0.021051
    20  C   -0.261001  -0.002213
    21  H    0.109399   0.030614
    22  H    0.069648   0.062971
    23  H    0.145844   0.034494
    24  H    0.078309   0.076530
    25  H    0.161396   0.010567
    26  H    0.245177   0.036784
    27  H    0.079700   0.028125
    28  H    0.237068  -0.005474
    29  H    0.135072   0.013996
    30  H    0.306530   0.007811
    31  H    0.104185   0.005146
    32  H    0.182961   0.005461
    33  H    0.174057   0.008170
    34  H    0.275215   0.008188
    35  H    0.102814  -0.000122
    36  H    0.146559   0.010199
    37  H    0.175851   0.000784
 Sum of Mulliken charges =  -1.00000   1.00000

 Dipole moment (field-independent basis, Debye):
    X=             -4.1660    Y=              9.6603    Z=             -0.6939  Tot=             10.5432
 Quadrupole moment (field-independent basis, Debye-Ang):
   XX=           -145.6208   YY=           -154.8029   ZZ=           -134.3835
   XY=              3.5830   XZ=              1.2941   YZ=              1.9644

 Summary of Natural Population Analysis:

                                       Natural Population
                Natural  -----------------------------------------------
    Atom  No    Charge         Core      Valence    Rydberg      Total
 -----------------------------------------------------------------------
      C    1   -0.30008      0.99966     2.29627    0.00415     3.30008
      C    2   -0.01779      0.99959     2.00725    0.01095     3.01779
      O    3   -0.28811      0.99986     3.27970    0.00856     4.28811
      C    4    0.41341      0.99966     1.56115    0.02578     2.58659
      O    5   -0.30784      0.99987     3.30226    0.00571     4.30784
      C    6   -0.05380      0.99954     2.04029    0.01397     3.05380
      C    7   -0.28324      0.99964     2.27813    0.00546     3.28324
      N    8   -0.30071      0.99964     2.78900    0.01207     3.80071
      C    9    0.24383      0.99952     1.74023    0.01642     2.75617
      N   10   -0.31939      0.99964     2.80868    0.01107     3.81939
      C   11    0.33810      0.99961     1.64606    0.01623     2.66190
      N   12   -0.31897      0.99965     2.80934    0.00997     3.81897
      C   13    0.18093      0.99956     1.80731    0.01220     2.81907
      C   14   -0.04472      0.99935     2.03350    0.01188     3.04472
      N   15    0.32478      0.99970     2.15022    0.02530     3.17522
      O   16   -0.21283      0.99990     3.20429    0.00864     4.21283
      O   17   -0.18648      0.99990     3.17883    0.00774     4.18648
      C   18   -0.30250      0.99963     2.29787    0.00500     3.30250
      N   19   -0.30075      0.99966     2.79176    0.00933     3.80075
      C   20   -0.17573      0.99967     2.16966    0.00640     3.17573
      H   21    0.09970      0.00000     0.39909    0.00122     0.40030
      H   22    0.09907      0.00000     0.39988    0.00105     0.40093
      H   23    0.10759      0.00000     0.39112    0.00129     0.39241
      H   24    0.08924      0.00000     0.40927    0.00150     0.41076
      H   25    0.09567      0.00000     0.40254    0.00179     0.40433
      H   26    0.12612      0.00000     0.37102    0.00285     0.37388
      H   27    0.09083      0.00000     0.40780    0.00137     0.40917
      H   28    0.12369      0.00000     0.37518    0.00113     0.37631
      H   29    0.09746      0.00000     0.40144    0.00110     0.40254
      H   30    0.19211      0.00000     0.30448    0.00341     0.30789
      H   31    0.09586      0.00000     0.40299    0.00114     0.40414
      H   32    0.11448      0.00000     0.38454    0.00097     0.38552
      H   33    0.11373      0.00000     0.38520    0.00107     0.38627
      H   34    0.18961      0.00000     0.30870    0.00169     0.31039
      H   35    0.08667      0.00000     0.41254    0.00079     0.41333
      H   36    0.08791      0.00000     0.41072    0.00137     0.41209
      H   37    0.10215      0.00000     0.39670    0.00114     0.39785
 =======================================================================
   * Total *    0.00000     19.99326    54.75504    0.25170    75.00000

 Normal termination of Gaussian 16 at Sun Dec 13 18:23:23 2020.
