 Gaussian 16, Revision A.03,

 -----------------------------------------------------------
 # opt freq B3LYP/6-31G(d) empiricaldispersion=gd3bj scf=xqc
 -----------------------------------------------------------

 ------------------------------
 CID_84733132_JID_4776_neutraal
 ------------------------------
 Symbolic Z-matrix:
 Charge =  0 Multiplicity = 1

 SCF Done:  E(RB3LYP) =  -594.911619831     A.U. after   14 cycles
 SCF Done:  E(RB3LYP) =  -594.914796959     A.U. after   12 cycles
 SCF Done:  E(RB3LYP) =  -594.913842363     A.U. after   12 cycles
 SCF Done:  E(RB3LYP) =  -594.915921097     A.U. after   11 cycles
 SCF Done:  E(RB3LYP) =  -594.916208330     A.U. after   11 cycles
 SCF Done:  E(RB3LYP) =  -594.916339725     A.U. after   11 cycles
 SCF Done:  E(RB3LYP) =  -594.916390430     A.U. after   10 cycles
 SCF Done:  E(RB3LYP) =  -594.916422606     A.U. after   10 cycles
 SCF Done:  E(RB3LYP) =  -594.916427675     A.U. after    9 cycles
 SCF Done:  E(RB3LYP) =  -594.916428887     A.U. after    7 cycles
 SCF Done:  E(RB3LYP) =  -594.916430380     A.U. after    7 cycles
 SCF Done:  E(RB3LYP) =  -594.916430641     A.U. after    7 cycles
 SCF Done:  E(RB3LYP) =  -594.916430785     A.U. after    7 cycles
 SCF Done:  E(RB3LYP) =  -594.916430866     A.U. after    7 cycles
 SCF Done:  E(RB3LYP) =  -594.916430923     A.U. after    7 cycles
 SCF Done:  E(RB3LYP) =  -594.916430950     A.U. after    6 cycles
 Optimization completed.
    -- Stationary point found.
 Normal termination of Gaussian 16 at Thu Dec 10 10:40:33 2020.

 --------------------------------------------------------------------
 #N Geom=AllCheck Guess=TCheck SCRF=Check GenChk RB3LYP/6-31G(d) Freq
 --------------------------------------------------------------------

 Structure from the checkpoint file:  "JID_4776.chk"
 ------------------------------
 CID_84733132_JID_4776_neutraal
 ------------------------------
 Charge =  0 Multiplicity = 1

 SCF Done:  E(RB3LYP) =  -594.916430950     A.U. after    1 cycles

  Exact polarizability: 147.033   1.305 136.129  -2.510   4.725 100.408
 Approx polarizability: 207.638   1.873 197.225  -5.909  11.652 150.395

                      1                      2                      3
                      A                      A                      A
 Frequencies --     20.4328                71.6269                85.3302
 Red. masses --      3.7672                 2.1399                 3.2611
 Frc consts  --      0.0009                 0.0065                 0.0140
 IR Inten    --      1.2251                 0.1675                 0.5402

                      4                      5                      6
                      A                      A                      A
 Frequencies --    101.4537               143.7335               172.7221
 Red. masses --      3.2636                 2.8315                 3.3642
 Frc consts  --      0.0198                 0.0345                 0.0591
 IR Inten    --      0.0159                 0.2752                 0.1698

                      7                      8                      9
                      A                      A                      A
 Frequencies --    212.7767               238.8212               267.8429
 Red. masses --      2.0392                 1.2289                 2.0626
 Frc consts  --      0.0544                 0.0413                 0.0872
 IR Inten    --      0.2676                 0.2453                 0.5531

                     10                     11                     12
                      A                      A                      A
 Frequencies --    272.0054               296.5032               303.5973
 Red. masses --      2.6729                 2.9507                 1.4347
 Frc consts  --      0.1165                 0.1528                 0.0779
 IR Inten    --      3.0923                 0.1790                 0.6469

                     13                     14                     15
                      A                      A                      A
 Frequencies --    361.8054               378.9801               399.1644
 Red. masses --      2.2419                 2.5218                 2.0364
 Frc consts  --      0.1729                 0.2134                 0.1912
 IR Inten    --      2.6247                 0.9355                 2.7152

                     16                     17                     18
                      A                      A                      A
 Frequencies --    439.9329               498.7088               527.0900
 Red. masses --      3.1121                 3.5384                 2.5097
 Frc consts  --      0.3549                 0.5185                 0.4108
 IR Inten    --      1.0448                 0.5323                 2.4138

                     19                     20                     21
                      A                      A                      A
 Frequencies --    603.4443               636.5226               681.5161
 Red. masses --      3.0765                 3.3199                 3.7634
 Frc consts  --      0.6601                 0.7925                 1.0299
 IR Inten    --      5.1210                 1.0084                12.1559

                     22                     23                     24
                      A                      A                      A
 Frequencies --    684.6762               752.7271               783.8068
 Red. masses --      3.3548                 3.0838                 1.3564
 Frc consts  --      0.9266                 1.0295                 0.4910
 IR Inten    --      3.1271                 8.0349                 7.1079

                     25                     26                     27
                      A                      A                      A
 Frequencies --    797.4607               800.6753               837.5433
 Red. masses --      1.2853                 2.3753                 1.3565
 Frc consts  --      0.4816                 0.8972                 0.5607
 IR Inten    --      2.8879                 5.5674                12.9762

                     28                     29                     30
                      A                      A                      A
 Frequencies --    869.5787               894.1410               928.6412
 Red. masses --      2.2523                 1.8442                 2.5446
 Frc consts  --      1.0034                 0.8687                 1.2929
 IR Inten    --      9.9602                 3.3435                 6.5721

                     31                     32                     33
                      A                      A                      A
 Frequencies --    932.1330               967.6058              1006.0996
 Red. masses --      3.9052                 1.8687                 2.0543
 Frc consts  --      1.9992                 1.0308                 1.2252
 IR Inten    --     13.6137                 4.9812                 4.0715

                     34                     35                     36
                      A                      A                      A
 Frequencies --   1035.4336              1061.4416              1072.7512
 Red. masses --      2.0410                 2.0668                 1.7029
 Frc consts  --      1.2893                 1.3719                 1.1546
 IR Inten    --      9.7578                 8.7506                11.7615

                     37                     38                     39
                      A                      A                      A
 Frequencies --   1088.3511              1105.0578              1124.3095
 Red. masses --      1.9542                 2.0090                 1.5195
 Frc consts  --      1.3638                 1.4455                 1.1316
 IR Inten    --      2.4999                 7.1357                 0.5434

                     40                     41                     42
                      A                      A                      A
 Frequencies --   1145.4589              1156.7973              1170.0964
 Red. masses --      1.5608                 1.9646                 1.8452
 Frc consts  --      1.2065                 1.5489                 1.4884
 IR Inten    --      3.7347                 6.6762                25.8517

                     43                     44                     45
                      A                      A                      A
 Frequencies --   1181.7863              1185.4599              1208.6173
 Red. masses --      1.4458                 2.1385                 2.7658
 Frc consts  --      1.1897                 1.7706                 2.3804
 IR Inten    --      3.8350                22.3400                13.1572

                     46                     47                     48
                      A                      A                      A
 Frequencies --   1227.4953              1250.5356              1283.9371
 Red. masses --      1.3578                 1.7299                 2.3496
 Frc consts  --      1.2053                 1.5939                 2.2821
 IR Inten    --      7.6494                44.1066                 4.1274

                     49                     50                     51
                      A                      A                      A
 Frequencies --   1301.2604              1307.4097              1321.6805
 Red. masses --      1.8744                 1.1579                 1.9328
 Frc consts  --      1.8700                 1.1662                 1.9892
 IR Inten    --      8.4187                 0.6321                 6.8896

                     52                     53                     54
                      A                      A                      A
 Frequencies --   1332.0093              1351.0555              1361.3386
 Red. masses --      1.8630                 1.5021                 1.4451
 Frc consts  --      1.9475                 1.6154                 1.5779
 IR Inten    --     35.0344                10.1830                 8.5756

                     55                     56                     57
                      A                      A                      A
 Frequencies --   1376.4159              1383.6212              1406.9168
 Red. masses --      1.9554                 1.3382                 1.5038
 Frc consts  --      2.1826                 1.5094                 1.7538
 IR Inten    --      7.4847                 5.8220                 6.1444

                     58                     59                     60
                      A                      A                      A
 Frequencies --   1416.4851              1423.3257              1438.9186
 Red. masses --      1.5838                 1.9430                 1.3191
 Frc consts  --      1.8722                 2.3191                 1.6092
 IR Inten    --     30.5595                26.4273                 1.7244

                     61                     62                     63
                      A                      A                      A
 Frequencies --   1440.4619              1460.7738              1485.8855
 Red. masses --      1.4730                 1.4756                 1.1873
 Frc consts  --      1.8007                 1.8552                 1.5444
 IR Inten    --     16.6346                 7.8578                 1.4727

                     64                     65                     66
                      A                      A                      A
 Frequencies --   1494.6670              1509.4329              1514.6023
 Red. masses --      1.2054                 1.0986                 1.0645
 Frc consts  --      1.5867                 1.4747                 1.4387
 IR Inten    --     15.3981                10.5924                 8.8525

                     67                     68                     69
                      A                      A                      A
 Frequencies --   1516.5249              1520.2584              1527.9102
 Red. masses --      1.1162                 1.0983                 1.0413
 Frc consts  --      1.5125                 1.4956                 1.4323
 IR Inten    --      9.1195                 3.4744                 6.1375

                     70                     71                     72
                      A                      A                      A
 Frequencies --   1533.5736              1536.9789              1541.7822
 Red. masses --      2.1534                 1.0997                 1.2079
 Frc consts  --      2.9839                 1.5306                 1.6917
 IR Inten    --     43.2005                 7.7348                 0.8014

                     73                     74                     75
                      A                      A                      A
 Frequencies --   1542.4750              1605.2295              2893.1931
 Red. masses --      1.0936                 4.7984                 1.0742
 Frc consts  --      1.5330                 7.2849                 5.2978
 IR Inten    --      8.2104                 7.9118                37.7100

                     76                     77                     78
                      A                      A                      A
 Frequencies --   2901.9469              2939.1194              3035.7492
 Red. masses --      1.0728                 1.0620                 1.0686
 Frc consts  --      5.3227                 5.4052                 5.8020
 IR Inten    --     98.3100               141.0823                21.5371

                     79                     80                     81
                      A                      A                      A
 Frequencies --   3043.6276              3055.0917              3060.8610
 Red. masses --      1.0726                 1.0350                 1.0624
 Frc consts  --      5.8543                 5.6918                 5.8646
 IR Inten    --     33.5184                29.8263                13.6013

                     82                     83                     84
                      A                      A                      A
 Frequencies --   3067.2785              3076.1223              3079.7712
 Red. masses --      1.0849                 1.0725                 1.0834
 Frc consts  --      6.0137                 5.9793                 6.0542
 IR Inten    --     34.5791                21.7576                51.0524

                     85                     86                     87
                      A                      A                      A
 Frequencies --   3087.5487              3100.5871              3103.0078
 Red. masses --      1.0861                 1.0972                 1.0921
 Frc consts  --      6.1002                 6.2146                 6.1957
 IR Inten    --     22.2748                26.0515                 6.5050

                     88                     89                     90
                      A                      A                      A
 Frequencies --   3108.0659              3122.3411              3124.6830
 Red. masses --      1.1015                 1.1037                 1.1028
 Frc consts  --      6.2695                 6.3396                 6.3441
 IR Inten    --     37.4237                27.9258                34.5947

                     91                     92                     93
                      A                      A                      A
 Frequencies --   3127.8961              3242.7680              3265.0665
 Red. masses --      1.1005                 1.0951                 1.0960
 Frc consts  --      6.3436                 6.7845                 6.8843
 IR Inten    --     40.5626                 5.8590                 9.1846

 - Thermochemistry -
 -------------------
 Temperature   298.150 Kelvin.  Pressure   1.00000 Atm.
 Atom     1 has atomic number  6 and mass  12.00000

 Molecular mass:   193.15790 amu.
 Principal axes and moments of inertia in atomic units:
                           1         2         3
     Eigenvalues --  1815.537213196.409604136.19919
           X            0.99953  -0.02953  -0.00801
           Y            0.02952   0.99956  -0.00057
           Z            0.00802   0.00034   0.99997
 This molecule is an asymmetric top.
 Rotational symmetry number  1.
 Warning -- assumption of classical behavior for rotation
           may cause significant error
 Rotational temperatures (Kelvin)      0.04771     0.02710     0.02094
 Rotational constants (GHZ):           0.99405     0.56462     0.43633
 Zero-point vibrational energy     779680.2 (Joules/Mol)
                                  186.34804 (Kcal/Mol)
 Warning -- explicit consideration of  19 degrees of freedom as
           vibrations may cause significant error
 Vibrational temperatures:     29.40   103.06   122.77   145.97   206.80
          (Kelvin)            248.51   306.14   343.61   385.37   391.36
                              426.60   436.81   520.56   545.27   574.31
                              632.97   717.53   758.36   868.22   915.81
                              980.55   985.10  1083.01  1127.72  1147.37
                             1151.99  1205.04  1251.13  1286.47  1336.11
                             1341.13  1392.17  1447.55  1489.76  1527.18
                             1543.45  1565.89  1589.93  1617.63  1648.06
                             1664.37  1683.51  1700.33  1705.61  1738.93
                             1766.09  1799.24  1847.30  1872.22  1881.07
                             1901.60  1916.46  1943.87  1958.66  1980.36
                             1990.72  2024.24  2038.01  2047.85  2070.28
                             2072.50  2101.73  2137.86  2150.49  2171.74
                             2179.17  2181.94  2187.31  2198.32  2206.47
                             2211.37  2218.28  2219.28  2309.57  4162.66
                             4175.25  4228.74  4367.77  4379.10  4395.60
                             4403.90  4413.13  4425.85  4431.10  4442.29
                             4461.05  4464.54  4471.81  4492.35  4495.72
                             4500.34  4665.62  4697.70

 Zero-point correction=                           0.296964 (Hartree/Particle)
 Thermal correction to Energy=                    0.310446
 Thermal correction to Enthalpy=                  0.311390
 Thermal correction to Gibbs Free Energy=         0.256354
 Sum of electronic and zero-point Energies=           -594.619466
 Sum of electronic and thermal Energies=              -594.605985
 Sum of electronic and thermal Enthalpies=            -594.605041
 Sum of electronic and thermal Free Energies=         -594.660077

                     E (Thermal)             CV                S
                      KCal/Mol        Cal/Mol-Kelvin    Cal/Mol-Kelvin
 Total                  194.808             52.209            115.833
 Electronic               0.000              0.000              0.000
 Translational            0.889              2.981             41.680
 Rotational               0.889              2.981             31.551
 Vibrational            193.030             46.247             42.601
 Vibration     1          0.593              1.986              6.592
 Vibration     2          0.598              1.968              4.108
 Vibration     3          0.601              1.959              3.764
 Vibration     4          0.604              1.948              3.426
 Vibration     5          0.616              1.909              2.754
 Vibration     6          0.626              1.876              2.406
 Vibration     7          0.644              1.821              2.020
 Vibration     8          0.657              1.781              1.812
 Vibration     9          0.673              1.732              1.610
 Vibration    10          0.675              1.725              1.583
 Vibration    11          0.690              1.680              1.437
 Vibration    12          0.695              1.667              1.397
 Vibration    13          0.736              1.551              1.114
 Vibration    14          0.749              1.515              1.043
 Vibration    15          0.765              1.472              0.966
 Vibration    16          0.800              1.383              0.827
 Vibration    17          0.854              1.253              0.661
 Vibration    18          0.882              1.190              0.594
 Vibration    19          0.962              1.024              0.444

 Optimization completed.
    -- Stationary point found.
 Normal termination of Gaussian 16 at Thu Dec 10 10:51:38 2020.

 ----------------------------------------------------------------------
 # B3LYP/6-311++G(d,p) empiricaldispersion=gd3bj scf=xqc pop=npa geom=c
 heck
 ----------------------------------------------------------------------

 --------------------------------------
 CID_84733132_JID_4776_Energie_neutraal
 --------------------------------------
 Structure from the checkpoint file:  "JID_4776.chk"
 Charge =  0 Multiplicity = 1

 SCF Done:  E(RB3LYP) =  -595.074491836     A.U. after   14 cycles
 Normal termination of Gaussian 16 at Thu Dec 10 10:56:43 2020.

 ----------------------------------------------------------------------
 # B3LYP/6-311++G(d,p) empiricaldispersion=gd3bj scf=xqc pop=npa geom=c
 heck
 ----------------------------------------------------------------------

 ------------------------------------
 CID_84733132_JID_4776_Energie_kation
 ------------------------------------
 Structure from the checkpoint file:  "JID_4776.chk"
 Charge =  1 Multiplicity = 2

 SCF Done:  E(UB3LYP) =  -594.793740237     A.U. after   21 cycles
 Normal termination of Gaussian 16 at Thu Dec 10 11:07:45 2020.
 Gaussian 16:  ES64L-G16RevA.03 25-Dec-2016

 ----------------------------------------------------------------------
 # B3LYP/6-311++G(d,p) empiricaldispersion=gd3bj scf=xqc pop=npa geom=c
 heck
 ----------------------------------------------------------------------

 -----------------------------------
 CID_84733132_JID_4776_Energie_anion
 -----------------------------------
 Structure from the checkpoint file:  "JID_4776.chk"
 Charge = -1 Multiplicity = 2

                         Standard orientation:
 ---------------------------------------------------------------------
 Center     Atomic      Atomic             Coordinates (Angstroms)
 Number     Number       Type             X           Y           Z
 ---------------------------------------------------------------------
      1          6           0       -1.711529    2.880398    0.578054
      2          6           0       -0.790629    1.733147    0.150208
      3          6           0       -1.535927    0.443072   -0.017624
      4          6           0       -2.890462    0.216388    0.102198
      5          7           0       -3.220500   -1.090852   -0.178263
      6          6           0       -2.076227   -1.660681   -0.469521
      7          7           0       -1.007020   -0.796575   -0.398082
      8          6           0        0.354467   -1.323377   -0.600376
      9          6           0        0.927719   -1.968258    0.675948
     10          6           0        1.540108   -0.932531    1.617501
     11          6           0        2.580083   -0.101315    0.867303
     12          7           0        1.967062    0.570524   -0.272916
     13          6           0        1.366909   -0.354466   -1.223349
     14          6           0        2.879629    1.484318   -0.934443
     15          1           0       -2.495610    3.062963   -0.164510
     16          1           0       -1.135057    3.803722    0.695240
     17          1           0       -2.199261    2.661642    1.534078
     18          1           0       -0.291021    2.006001   -0.788325
     19          1           0        0.022834    1.621574    0.871843
     20          1           0       -3.650980    0.937876    0.365543
     21          1           0       -1.937863   -2.698780   -0.745405
     22          1           0        0.215104   -2.119131   -1.339863
     23          1           0        1.711097   -2.674394    0.366803
     24          1           0        0.143776   -2.549584    1.171496
     25          1           0        2.009200   -1.429434    2.474351
     26          1           0        0.759078   -0.271326    2.009992
     27          1           0        3.420165   -0.756657    0.551696
     28          1           0        3.003531    0.667343    1.523617
     29          1           0        0.882867    0.222493   -2.018730
     30          1           0        2.143836   -0.982234   -1.708667
     31          1           0        3.742136    0.972109   -1.404974
     32          1           0        2.347077    2.037387   -1.716032
     33          1           0        3.267451    2.206593   -0.208716
 ---------------------------------------------------------------------

 SCF Done:  E(UB3LYP) =  -595.064285172     A.U. after   32 cycles

 The electronic state is 2-A.
 Alpha  occ. eigenvalues --  -14.26653 -14.20720 -14.19207 -10.12610 -10.11685
 Alpha  occ. eigenvalues --  -10.10371 -10.10209 -10.09281 -10.08747 -10.07687
 Alpha  occ. eigenvalues --  -10.07625 -10.07545 -10.07063 -10.06997  -0.91328
 Alpha  occ. eigenvalues --   -0.83744  -0.78576  -0.70785  -0.69179  -0.66197
 Alpha  occ. eigenvalues --   -0.62272  -0.59872  -0.55150  -0.53810  -0.52660
 Alpha  occ. eigenvalues --   -0.49345  -0.48309  -0.43788  -0.41067  -0.39885
 Alpha  occ. eigenvalues --   -0.37497  -0.36932  -0.36380  -0.35354  -0.34302
 Alpha  occ. eigenvalues --   -0.33312  -0.32582  -0.30896  -0.30664  -0.29997
 Alpha  occ. eigenvalues --   -0.29022  -0.28729  -0.27742  -0.26726  -0.26170
 Alpha  occ. eigenvalues --   -0.26029  -0.24430  -0.23415  -0.22665  -0.17421
 Alpha  occ. eigenvalues --   -0.16913  -0.12565  -0.11963   0.04148
 Alpha virt. eigenvalues --    0.06353   0.07129   0.07409   0.08831   0.08927
 Alpha virt. eigenvalues --    0.09369   0.09556   0.10079   0.10871   0.11227
 Alpha virt. eigenvalues --    0.11607   0.12170   0.12452   0.12567   0.12967

  Beta  occ. eigenvalues --  -14.26654 -14.20709 -14.19207 -10.12597 -10.11677
  Beta  occ. eigenvalues --  -10.10370 -10.10179 -10.09252 -10.08710 -10.07678
  Beta  occ. eigenvalues --  -10.07622 -10.07524 -10.07047 -10.06983  -0.91322
  Beta  occ. eigenvalues --   -0.83717  -0.78564  -0.70759  -0.69153  -0.66157
  Beta  occ. eigenvalues --   -0.62251  -0.59809  -0.55111  -0.53775  -0.52593
  Beta  occ. eigenvalues --   -0.49314  -0.48268  -0.43751  -0.41027  -0.39814
  Beta  occ. eigenvalues --   -0.37464  -0.36899  -0.36342  -0.35332  -0.34273
  Beta  occ. eigenvalues --   -0.33289  -0.32546  -0.30869  -0.30629  -0.29951
  Beta  occ. eigenvalues --   -0.28984  -0.28692  -0.27712  -0.26692  -0.26143
  Beta  occ. eigenvalues --   -0.26012  -0.24391  -0.23373  -0.22617  -0.17417
  Beta  occ. eigenvalues --   -0.16904  -0.12535  -0.11907
  Beta virt. eigenvalues --    0.06434   0.07211   0.07855   0.08004   0.09374
  Beta virt. eigenvalues --    0.09429   0.09766   0.09831   0.10334   0.11141
  Beta virt. eigenvalues --    0.11656   0.12015   0.12420   0.12673   0.12986

 Mulliken charges and spin densities:
               1          2
     1  C   -0.321010  -0.620433
     2  C   -0.652380   0.355339
     3  C    0.677081  -0.069906
     4  C   -0.211664  -0.529867
     5  N   -0.118618   0.009870
     6  C    0.285877  -0.190852
     7  N    0.263801  -0.039019
     8  C   -1.428692   1.263073
     9  C    1.510212  -1.953031
    10  C   -0.606333   0.372651
    11  C    0.593723  -0.995970
    12  N   -0.036680   0.199297
    13  C    0.547415  -1.043190
    14  C    0.751144  -1.069282
    15  H    0.011326   0.131088
    16  H   -0.132683   0.274185
    17  H    0.064054   0.081897
    18  H    0.212773  -0.021771
    19  H    0.336634  -0.106374
    20  H    0.122367   0.007858
    21  H   -0.034444   0.196907
    22  H   -0.501508   0.730846
    23  H   -0.297501   0.451922
    24  H    0.028710   0.129931
    25  H   -0.415851   0.613711
    26  H    0.085266   0.034523
    27  H   -0.063731   0.198863
    28  H   -0.347355   0.515190
    29  H   -0.127073   0.328904
    30  H   -0.459175   0.613072
    31  H   -0.194975   0.315978
    32  H   -0.248273   0.374305
    33  H   -0.292437   0.440285
 Sum of Mulliken charges =  -1.00000   1.00000

 Dipole moment (field-independent basis, Debye):
    X=             -3.6958    Y=              1.4000    Z=              1.1770  Tot=              4.1236
 Quadrupole moment (field-independent basis, Debye-Ang):
   XX=           -158.1237   YY=           -137.1887   ZZ=           -125.2128
   XY=             -3.1510   XZ=             -0.4729   YZ=             -1.2058

 Summary of Natural Population Analysis:

                                       Natural Population
                Natural  -----------------------------------------------
    Atom  No    Charge         Core      Valence    Rydberg      Total
 -----------------------------------------------------------------------
      C    1   -0.28099      0.99967     2.27752    0.00380     3.28099
      C    2   -0.20943      0.99960     2.20126    0.00857     3.20943
      C    3    0.06765      0.99951     1.92136    0.01148     2.93235
      C    4   -0.04500      0.99951     2.03271    0.01278     3.04500
      N    5   -0.25796      0.99973     2.74747    0.01077     3.75796
      C    6    0.10280      0.99963     1.88030    0.01727     2.89720
      N    7   -0.21323      0.99962     2.70204    0.01158     3.71323
      C    8   -0.00401      0.99955     1.98998    0.01448     3.00401
      C    9   -0.19042      0.99960     2.18236    0.00846     3.19042
      C   10   -0.19566      0.99962     2.18741    0.00863     3.19566
      C   11   -0.08106      0.99960     2.07018    0.01128     3.08106
      N   12   -0.29015      0.99972     2.77639    0.01404     3.79015
      C   13   -0.08691      0.99959     2.07508    0.01225     3.08691
      C   14   -0.17363      0.99964     2.16527    0.00872     3.17363
      H   15    0.09581      0.00000     0.40304    0.00116     0.40419
      H   16    0.10049      0.00000     0.39867    0.00084     0.39951
      H   17    0.09602      0.00000     0.40290    0.00109     0.40398
      H   18    0.10501      0.00000     0.39331    0.00167     0.39499
      H   19    0.11179      0.00000     0.38580    0.00241     0.38821
      H   20    0.09522      0.00000     0.40349    0.00129     0.40478
      H   21    0.09127      0.00000     0.40726    0.00146     0.40873
      H   22    0.10506      0.00000     0.39248    0.00247     0.39494
      H   23    0.10289      0.00000     0.39524    0.00187     0.39711
      H   24    0.10321      0.00000     0.39558    0.00121     0.39679
      H   25    0.10226      0.00000     0.39672    0.00101     0.39774
      H   26    0.09737      0.00000     0.40079    0.00184     0.40263
      H   27    0.08135      0.00000     0.41655    0.00210     0.41865
      H   28    0.09909      0.00000     0.39934    0.00157     0.40091
      H   29    0.10308      0.00000     0.39534    0.00158     0.39692
      H   30    0.09154      0.00000     0.40622    0.00224     0.40846
      H   31    0.08339      0.00000     0.41515    0.00146     0.41661
      H   32    0.09560      0.00000     0.40300    0.00139     0.40440
      H   33    0.09754      0.00000     0.40101    0.00144     0.40246
 =======================================================================
   * Total *   -0.00000     13.99459    38.82121    0.18420    53.00000

 Normal termination of Gaussian 16 at Thu Dec 10 11:23:01 2020.
