 Gaussian 16, Revision A.03,

 -----------------------------------------------------------
 # opt freq B3LYP/6-31G(d) empiricaldispersion=gd3bj scf=xqc
 -----------------------------------------------------------

 ------------------------------
 CID_84077744_JID_4553_neutraal
 ------------------------------
 Symbolic Z-matrix:
 Charge =  0 Multiplicity = 1

 SCF Done:  E(RB3LYP) =  -633.247638042     A.U. after   14 cycles
 SCF Done:  E(RB3LYP) =  -633.242708934     A.U. after   13 cycles
 SCF Done:  E(RB3LYP) =  -633.252801919     A.U. after   12 cycles
 SCF Done:  E(RB3LYP) =  -633.251660630     A.U. after   13 cycles
 SCF Done:  E(RB3LYP) =  -633.254247987     A.U. after   11 cycles
 SCF Done:  E(RB3LYP) =  -633.254722971     A.U. after   12 cycles
 SCF Done:  E(RB3LYP) =  -633.255174194     A.U. after   11 cycles
 SCF Done:  E(RB3LYP) =  -633.255677910     A.U. after   11 cycles
 SCF Done:  E(RB3LYP) =  -633.256208502     A.U. after   11 cycles
 SCF Done:  E(RB3LYP) =  -633.256265559     A.U. after   12 cycles
 SCF Done:  E(RB3LYP) =  -633.257064895     A.U. after   10 cycles
 SCF Done:  E(RB3LYP) =  -633.257066797     A.U. after   10 cycles
 SCF Done:  E(RB3LYP) =  -633.257072946     A.U. after    9 cycles
 SCF Done:  E(RB3LYP) =  -633.257073766     A.U. after    7 cycles
 SCF Done:  E(RB3LYP) =  -633.257073901     A.U. after    7 cycles
 SCF Done:  E(RB3LYP) =  -633.257073802     A.U. after    7 cycles
 Optimization completed.
    -- Stationary point found.
 Normal termination of Gaussian 16 at Thu Dec 10 10:19:29 2020.

 --------------------------------------------------------------------
 #N Geom=AllCheck Guess=TCheck SCRF=Check GenChk RB3LYP/6-31G(d) Freq
 --------------------------------------------------------------------

 Structure from the checkpoint file:  "JID_4553.chk"
 ------------------------------
 CID_84077744_JID_4553_neutraal
 ------------------------------
 Charge =  0 Multiplicity = 1

 SCF Done:  E(RB3LYP) =  -633.257073802     A.U. after    1 cycles

  Exact polarizability: 122.356  -1.122 126.902   2.871   1.250 118.413
 Approx polarizability: 162.419  -8.041 179.020   4.106   2.413 183.245

                      1                      2                      3
                      A                      A                      A
 Frequencies --     50.5705                62.6076                81.0756
 Red. masses --      3.6957                 3.1777                 3.1767
 Frc consts  --      0.0056                 0.0073                 0.0123
 IR Inten    --      2.0275                 0.5410                 1.5045

                      4                      5                      6
                      A                      A                      A
 Frequencies --    121.0960               145.3426               186.2068
 Red. masses --      2.8789                 3.4660                 2.0485
 Frc consts  --      0.0249                 0.0431                 0.0418
 IR Inten    --      6.7157                 5.3500                 1.4469

                      7                      8                      9
                      A                      A                      A
 Frequencies --    217.1519               226.7273               243.5852
 Red. masses --      1.6979                 1.4282                 3.8179
 Frc consts  --      0.0472                 0.0433                 0.1335
 IR Inten    --      1.8917                 1.5203                 2.9841

                     10                     11                     12
                      A                      A                      A
 Frequencies --    263.6318               276.3202               286.7086
 Red. masses --      3.2491                 2.9033                 1.6723
 Frc consts  --      0.1330                 0.1306                 0.0810
 IR Inten    --      3.1660                 2.9885                 1.6084

                     13                     14                     15
                      A                      A                      A
 Frequencies --    306.6796               356.7327               373.9365
 Red. masses --      2.4546                 1.9642                 3.4620
 Frc consts  --      0.1360                 0.1473                 0.2852
 IR Inten    --      1.4279                 1.5000                 3.3366

                     16                     17                     18
                      A                      A                      A
 Frequencies --    378.4158               412.9621               449.6731
 Red. masses --      2.2644                 3.1789                 1.2845
 Frc consts  --      0.1911                 0.3194                 0.1530
 IR Inten    --     16.3902                 6.0589                38.0748

                     19                     20                     21
                      A                      A                      A
 Frequencies --    473.6463               509.0632               525.3714
 Red. masses --      1.7725                 3.1887                 2.7140
 Frc consts  --      0.2343                 0.4869                 0.4414
 IR Inten    --     20.5934                 2.8322                 4.6038

                     22                     23                     24
                      A                      A                      A
 Frequencies --    552.7057               588.7608               628.7448
 Red. masses --      2.1718                 1.3079                 4.1636
 Frc consts  --      0.3909                 0.2671                 0.9698
 IR Inten    --     14.3686               217.1264                 8.0746

                     25                     26                     27
                      A                      A                      A
 Frequencies --    675.5417               734.5438               757.1732
 Red. masses --      3.1223                 1.9580                 2.1020
 Frc consts  --      0.8395                 0.6224                 0.7100
 IR Inten    --     10.5741                37.6791                58.5142

                     28                     29                     30
                      A                      A                      A
 Frequencies --    787.5307               790.9748               804.9470
 Red. masses --      3.3525                 2.6210                 2.0612
 Frc consts  --      1.2251                 0.9662                 0.7869
 IR Inten    --     85.1282                 3.6788                 3.8634

                     31                     32                     33
                      A                      A                      A
 Frequencies --    828.4492               897.4692               913.5706
 Red. masses --      1.9717                 2.1251                 2.2257
 Frc consts  --      0.7973                 1.0085                 1.0945
 IR Inten    --      4.2906                16.5745                 3.4683

                     34                     35                     36
                      A                      A                      A
 Frequencies --    919.9349               975.0955               989.9547
 Red. masses --      1.7658                 1.9695                 2.0320
 Frc consts  --      0.8804                 1.1033                 1.1733
 IR Inten    --      1.3198                 7.5448                 1.7360

                     37                     38                     39
                      A                      A                      A
 Frequencies --   1015.9403              1053.9779              1055.5222
 Red. masses --      1.8495                 1.8307                 1.9758
 Frc consts  --      1.1247                 1.1982                 1.2969
 IR Inten    --      7.7873                 2.8443                 5.6364

                     40                     41                     42
                      A                      A                      A
 Frequencies --   1080.3958              1093.5570              1114.6130
 Red. masses --      1.9094                 1.9320                 2.2786
 Frc consts  --      1.3131                 1.3613                 1.6679
 IR Inten    --     11.5696                 0.7266                10.6989

                     43                     44                     45
                      A                      A                      A
 Frequencies --   1122.3035              1143.8431              1158.7488
 Red. masses --      1.5548                 1.7107                 1.2994
 Frc consts  --      1.1538                 1.3188                 1.0279
 IR Inten    --     35.8248                22.3073                 1.7492

                     46                     47                     48
                      A                      A                      A
 Frequencies --   1183.8779              1215.7931              1227.9283
 Red. masses --      2.1948                 1.3890                 2.5134
 Frc consts  --      1.8124                 1.2096                 2.2329
 IR Inten    --     10.4665                25.2604                36.2904

                     49                     50                     51
                      A                      A                      A
 Frequencies --   1235.1663              1252.6991              1269.2456
 Red. masses --      1.9336                 2.0016                 2.1507
 Frc consts  --      1.7380                 1.8506                 2.0414
 IR Inten    --      7.7415                 3.7942                 2.9204

                     52                     53                     54
                      A                      A                      A
 Frequencies --   1296.9304              1313.7573              1337.7913
 Red. masses --      1.2742                 1.3042                 1.2043
 Frc consts  --      1.2628                 1.3262                 1.2699
 IR Inten    --      5.5985                 3.0984                 1.7086

                     55                     56                     57
                      A                      A                      A
 Frequencies --   1342.6624              1378.6837              1381.7624
 Red. masses --      1.2762                 1.3253                 1.3791
 Frc consts  --      1.3555                 1.4842                 1.5513
 IR Inten    --      0.8680                 1.3455                 0.9809

                     58                     59                     60
                      A                      A                      A
 Frequencies --   1398.1969              1406.4320              1409.5745
 Red. masses --      1.3730                 1.3926                 1.4676
 Frc consts  --      1.5815                 1.6230                 1.7181
 IR Inten    --      2.0356                13.1411                41.1517

                     61                     62                     63
                      A                      A                      A
 Frequencies --   1414.0075              1425.6172              1435.6756
 Red. masses --      1.6532                 1.5167                 1.2807
 Frc consts  --      1.9475                 1.8161                 1.5553
 IR Inten    --     84.3845                87.4584                24.6512

                     64                     65                     66
                      A                      A                      A
 Frequencies --   1443.9084              1461.9946              1506.9086
 Red. masses --      1.3215                 1.2313                 1.0759
 Frc consts  --      1.6233                 1.5506                 1.4394
 IR Inten    --     20.9848                 4.7420                 9.0725

                     67                     68                     69
                      A                      A                      A
 Frequencies --   1513.5366              1514.8547              1519.8228
 Red. masses --      1.1759                 1.0588                 1.0969
 Frc consts  --      1.5871                 1.4316                 1.4928
 IR Inten    --      6.3269                 3.7921                 0.7533

                     70                     71                     72
                      A                      A                      A
 Frequencies --   1520.0620              1529.0531              1529.9131
 Red. masses --      1.1348                 1.0752                 1.1387
 Frc consts  --      1.5449                 1.4811                 1.5703
 IR Inten    --     16.3828                 9.9888                22.0271

                     73                     74                     75
                      A                      A                      A
 Frequencies --   1537.0418              1544.8992              1562.2555
 Red. masses --      1.0899                 1.0604                 1.1420
 Frc consts  --      1.5171                 1.4911                 1.6421
 IR Inten    --      7.4054                 0.5239                44.8400

                     76                     77                     78
                      A                      A                      A
 Frequencies --   1584.8370              1657.8974              1763.8636
 Red. masses --      1.1792                 1.2443                 5.6697
 Frc consts  --      1.7450                 2.0151                10.3930
 IR Inten    --     25.2787               120.4861               312.4792

                     79                     80                     81
                      A                      A                      A
 Frequencies --   2977.8073              2978.8848              3012.6656
 Red. masses --      1.0757                 1.0788                 1.0533
 Frc consts  --      5.6198                 5.6402                 5.6323
 IR Inten    --    106.6841                26.5259                37.5949

                     82                     83                     84
                      A                      A                      A
 Frequencies --   3022.9640              3025.7606              3031.2661
 Red. masses --      1.0632                 1.0619                 1.0645
 Frc consts  --      5.7245                 5.7279                 5.7631
 IR Inten    --     15.2568                37.4514                70.1473

                     85                     86                     87
                      A                      A                      A
 Frequencies --   3040.7976              3046.0234              3050.3553
 Red. masses --      1.0679                 1.0916                 1.0807
 Frc consts  --      5.8180                 5.9674                 5.9247
 IR Inten    --     24.8120                36.7565                11.1875

                     88                     89                     90
                      A                      A                      A
 Frequencies --   3056.7457              3061.6412              3063.1813
 Red. masses --      1.0949                 1.0857                 1.0659
 Frc consts  --      6.0278                 5.9958                 5.8928
 IR Inten    --     56.7541                18.3853               100.1624

                     91                     92                     93
                      A                      A                      A
 Frequencies --   3068.9010              3090.7190              3098.7757
 Red. masses --      1.0995                 1.0943                 1.0854
 Frc consts  --      6.1013                 6.1589                 6.1405
 IR Inten    --     43.4211                75.7925                25.9669

                     94                     95                     96
                      A                      A                      A
 Frequencies --   3120.0468              3155.4781              3199.5924
 Red. masses --      1.1015                 1.0999                 1.0959
 Frc consts  --      6.3176                 6.4528                 6.6099
 IR Inten    --     31.3813                13.4541                 5.1372

                     97                     98                     99
                      A                      A                      A
 Frequencies --   3538.6132              3569.8178              3679.5796
 Red. masses --      1.0761                 1.0475                 1.1001
 Frc consts  --      7.9389                 7.8648                 8.7754
 IR Inten    --    166.0270                19.3922                25.8738

 - Thermochemistry -
 -------------------
 Temperature   298.150 Kelvin.  Pressure   1.00000 Atm.
 Atom     1 has atomic number  6 and mass  12.00000

 Molecular mass:   199.16846 amu.
 Principal axes and moments of inertia in atomic units:
                           1         2         3
     Eigenvalues --  2069.885053029.430343182.08178
           X            0.99956   0.02408   0.01726
           Y           -0.02253   0.99617  -0.08451
           Z           -0.01923   0.08408   0.99627
 This molecule is an asymmetric top.
 Rotational symmetry number  1.
 Warning -- assumption of classical behavior for rotation
           may cause significant error
 Rotational temperatures (Kelvin)      0.04184     0.02859     0.02722
 Rotational constants (GHZ):           0.87190     0.59574     0.56716
 Zero-point vibrational energy     841202.5 (Joules/Mol)
                                  201.05221 (Kcal/Mol)
 Warning -- explicit consideration of  23 degrees of freedom as
           vibrations may cause significant error
 Vibrational temperatures:     72.76    90.08   116.65   174.23   209.12
          (Kelvin)            267.91   312.43   326.21   350.46   379.31
                              397.56   412.51   441.24   513.26   538.01
                              544.46   594.16   646.98   681.47   732.43
                              755.89   795.22   847.10   904.62   971.95
                             1056.84  1089.40  1133.08  1138.04  1158.14
                             1191.95  1291.26  1314.42  1323.58  1402.94
                             1424.32  1461.71  1516.44  1518.66  1554.45
                             1573.38  1603.68  1614.74  1645.74  1667.18
                             1703.34  1749.26  1766.71  1777.13  1802.35
                             1826.16  1865.99  1890.20  1924.78  1931.79
                             1983.62  1988.05  2011.69  2023.54  2028.06
                             2034.44  2051.15  2065.62  2077.46  2103.48
                             2168.11  2177.64  2179.54  2186.69  2187.03
                             2199.97  2201.20  2211.46  2222.77  2247.74
                             2280.23  2385.34  2537.81  4284.40  4285.95
                             4334.55  4349.37  4353.39  4361.32  4375.03
                             4382.55  4388.78  4397.98  4405.02  4407.23
                             4415.46  4446.86  4458.45  4489.05  4540.03
                             4603.50  5091.28  5136.17  5294.09

 Zero-point correction=                           0.320397 (Hartree/Particle)
 Thermal correction to Energy=                    0.334983
 Thermal correction to Enthalpy=                  0.335927
 Thermal correction to Gibbs Free Energy=         0.279964
 Sum of electronic and zero-point Energies=           -632.936677
 Sum of electronic and thermal Energies=              -632.922091
 Sum of electronic and thermal Enthalpies=            -632.921146
 Sum of electronic and thermal Free Energies=         -632.977110

                     E (Thermal)             CV                S
                      KCal/Mol        Cal/Mol-Kelvin    Cal/Mol-Kelvin
 Total                  210.205             57.355            117.785
 Electronic               0.000              0.000              0.000
 Translational            0.889              2.981             41.772
 Rotational               0.889              2.981             31.368
 Vibrational            208.428             51.394             44.646
 Vibration     1          0.595              1.977              4.795
 Vibration     2          0.597              1.972              4.373
 Vibration     3          0.600              1.962              3.865
 Vibration     4          0.609              1.932              3.083
 Vibration     5          0.617              1.908              2.732
 Vibration     6          0.632              1.859              2.265
 Vibration     7          0.646              1.815              1.983
 Vibration     8          0.650              1.800              1.905
 Vibration     9          0.659              1.773              1.777
 Vibration    10          0.670              1.740              1.638
 Vibration    11          0.678              1.717              1.556
 Vibration    12          0.684              1.698              1.493
 Vibration    13          0.697              1.661              1.380
 Vibration    14          0.732              1.561              1.136
 Vibration    15          0.745              1.526              1.064
 Vibration    16          0.749              1.516              1.045
 Vibration    17          0.777              1.442              0.916
 Vibration    18          0.809              1.362              0.797
 Vibration    19          0.830              1.309              0.727
 Vibration    20          0.864              1.230              0.636
 Vibration    21          0.880              1.194              0.598
 Vibration    22          0.908              1.134              0.539
 Vibration    23          0.946              1.056              0.469

                           ! Non-Optimized Parameters !
 Normal termination of Gaussian 16 at Thu Dec 10 10:33:43 2020.

 ----------------------------------------------------------------------
 # B3LYP/6-311++G(d,p) empiricaldispersion=gd3bj scf=xqc pop=npa geom=c
 heck
 ----------------------------------------------------------------------

 --------------------------------------
 CID_84077744_JID_4553_Energie_neutraal
 --------------------------------------
 Structure from the checkpoint file:  "JID_4553.chk"
 Charge =  0 Multiplicity = 1

 SCF Done:  E(RB3LYP) =  -633.445656091     A.U. after   15 cycles
 Normal termination of Gaussian 16 at Thu Dec 10 10:40:37 2020.

 ----------------------------------------------------------------------
 # B3LYP/6-311++G(d,p) empiricaldispersion=gd3bj scf=xqc pop=npa geom=c
 heck
 ----------------------------------------------------------------------

 ------------------------------------
 CID_84077744_JID_4553_Energie_kation
 ------------------------------------
 Structure from the checkpoint file:  "JID_4553.chk"
 Charge =  1 Multiplicity = 2

 SCF Done:  E(UB3LYP) =  -633.173946438     A.U. after   24 cycles
 Normal termination of Gaussian 16 at Thu Dec 10 10:56:15 2020.
 Gaussian 16:  ES64L-G16RevA.03 25-Dec-2016

 ----------------------------------------------------------------------
 # B3LYP/6-311++G(d,p) empiricaldispersion=gd3bj scf=xqc pop=npa geom=c
 heck
 ----------------------------------------------------------------------

 -----------------------------------
 CID_84077744_JID_4553_Energie_anion
 -----------------------------------
 Structure from the checkpoint file:  "JID_4553.chk"
 Charge = -1 Multiplicity = 2

                         Standard orientation:
 ---------------------------------------------------------------------
 Center     Atomic      Atomic             Coordinates (Angstroms)
 Number     Number       Type             X           Y           Z
 ---------------------------------------------------------------------
      1          6           0        1.436803    2.279866   -0.585431
      2          6           0        0.947690    1.319491    0.503548
      3          6           0       -0.597754    1.365333    0.735107
      4          6           0       -1.070897    0.321511    1.765040
      5          6           0       -1.380273   -1.096668    1.253291
      6          6           0       -2.619988   -1.159545    0.350457
      7          6           0       -2.366532   -0.827343   -1.133127
      8          7           0       -1.540355    0.331208   -1.439352
      9          6           0       -1.502965    1.448959   -0.522548
     10          7           0        1.561146   -0.030572    0.410266
     11          6           0        2.120909   -0.614759    1.623975
     12          6           0        1.597488   -0.748087   -0.756516
     13          8           0        1.250675   -0.313153   -1.857862
     14          7           0        2.116481   -2.038326   -0.654711
     15          1           0        1.084218    2.000163   -1.575837
     16          1           0        2.531341    2.292334   -0.607417
     17          1           0        1.086703    3.291769   -0.350821
     18          1           0        1.362219    1.698884    1.443576
     19          1           0       -0.731519    2.346476    1.219701
     20          1           0       -0.334544    0.263309    2.578096
     21          1           0       -1.990645    0.701297    2.231341
     22          1           0       -0.518582   -1.521661    0.725213
     23          1           0       -1.549742   -1.733405    2.131859
     24          1           0       -3.066364   -2.162640    0.392673
     25          1           0       -3.382144   -0.480546    0.756893
     26          1           0       -1.883976   -1.690862   -1.608973
     27          1           0       -3.352717   -0.729288   -1.616954
     28          1           0       -0.606471    0.070690   -1.738482
     29          1           0       -2.525159    1.649930   -0.174209
     30          1           0       -1.205798    2.342652   -1.086513
     31          1           0        3.085433   -1.085408    1.410189
     32          1           0        2.284647    0.174267    2.359296
     33          1           0        1.455963   -1.361754    2.083318
     34          1           0        1.938645   -2.573926    0.184497
     35          1           0        1.965292   -2.555766   -1.510753
 ---------------------------------------------------------------------

 SCF Done:  E(UB3LYP) =  -633.437060241     A.U. after   29 cycles

 The electronic state is 2-A.
 Alpha  occ. eigenvalues --  -18.98011 -14.23933 -14.22274 -14.17123 -10.19402
 Alpha  occ. eigenvalues --  -10.11331 -10.09764 -10.08499 -10.08457 -10.07113
 Alpha  occ. eigenvalues --  -10.06199 -10.06096 -10.05898 -10.05765  -0.94728
 Alpha  occ. eigenvalues --   -0.84031  -0.79584  -0.78736  -0.70108  -0.67986
 Alpha  occ. eigenvalues --   -0.64082  -0.60231  -0.56985  -0.56736  -0.53698
 Alpha  occ. eigenvalues --   -0.47791  -0.45866  -0.45800  -0.41714  -0.40166
 Alpha  occ. eigenvalues --   -0.39044  -0.38282  -0.36727  -0.35219  -0.34809
 Alpha  occ. eigenvalues --   -0.33760  -0.32356  -0.31306  -0.31208  -0.29863
 Alpha  occ. eigenvalues --   -0.29710  -0.29085  -0.28644  -0.27427  -0.27216
 Alpha  occ. eigenvalues --   -0.25905  -0.23544  -0.22365  -0.22188  -0.22064
 Alpha  occ. eigenvalues --   -0.20696  -0.18225  -0.16147  -0.14243  -0.10124
 Alpha  occ. eigenvalues --    0.04149
 Alpha virt. eigenvalues --    0.06438   0.07253   0.07927   0.08816   0.09249
 Alpha virt. eigenvalues --    0.09452   0.10092   0.10644   0.11643   0.11925
 Alpha virt. eigenvalues --    0.12058   0.12607   0.13065   0.13139   0.14033

  Beta  occ. eigenvalues --  -18.98005 -14.23928 -14.22225 -14.17121 -10.19399
  Beta  occ. eigenvalues --  -10.11317 -10.09704 -10.08491 -10.08452 -10.07108
  Beta  occ. eigenvalues --  -10.06182 -10.06087 -10.05875 -10.05755  -0.94714
  Beta  occ. eigenvalues --   -0.84013  -0.79548  -0.78694  -0.70078  -0.67957
  Beta  occ. eigenvalues --   -0.64055  -0.60146  -0.56955  -0.56709  -0.53661
  Beta  occ. eigenvalues --   -0.47747  -0.45820  -0.45729  -0.41665  -0.40087
  Beta  occ. eigenvalues --   -0.39021  -0.38248  -0.36695  -0.35188  -0.34787
  Beta  occ. eigenvalues --   -0.33729  -0.32329  -0.31283  -0.31168  -0.29832
  Beta  occ. eigenvalues --   -0.29682  -0.29059  -0.28616  -0.27404  -0.27190
  Beta  occ. eigenvalues --   -0.25882  -0.23518  -0.22333  -0.22159  -0.22041
  Beta  occ. eigenvalues --   -0.20667  -0.18187  -0.16113  -0.14224  -0.10111
  Beta virt. eigenvalues --    0.06569   0.07434   0.07761   0.08489   0.09205
  Beta virt. eigenvalues --    0.09679   0.09970   0.10384   0.11096   0.12043
  Beta virt. eigenvalues --    0.12275   0.12401   0.12838   0.13406   0.13472

 Mulliken charges and spin densities:
               1          2
     1  C    0.218879  -0.824059
     2  C   -0.473265   0.175017
     3  C    0.121621   0.482756
     4  C    0.390260  -0.902716
     5  C    0.056843  -0.068982
     6  C    0.148716  -0.655269
     7  C   -0.245401  -0.126723
     8  N   -0.186116   0.000685
     9  C   -0.336028  -0.405375
    10  N   -0.084730   0.135692
    11  C    1.420994  -1.792705
    12  C    0.320614  -0.537589
    13  O   -0.356669   0.004097
    14  N   -0.358546   0.100856
    15  H    0.191090   0.005302
    16  H    0.019106   0.130670
    17  H    0.064331   0.066614
    18  H   -0.346040   0.515748
    19  H   -0.113131   0.325698
    20  H    0.078782   0.073099
    21  H   -0.174988   0.338599
    22  H    0.001856   0.123565
    23  H   -0.460816   0.654308
    24  H   -0.178510   0.339941
    25  H    0.174857  -0.056481
    26  H    0.043203   0.107748
    27  H    0.106632   0.029576
    28  H    0.278325   0.031565
    29  H    0.055800   0.089193
    30  H    0.175680   0.002383
    31  H   -0.355668   0.527398
    32  H   -0.481842   0.640907
    33  H   -0.458543   0.681802
    34  H   -0.248656   0.497545
    35  H   -0.008640   0.289136
 Sum of Mulliken charges =  -1.00000   1.00000

 Dipole moment (field-independent basis, Debye):
    X=             -3.0675    Y=              3.3624    Z=             -3.4800  Tot=              5.7294
 Quadrupole moment (field-independent basis, Debye-Ang):
   XX=           -134.3536   YY=           -134.0224   ZZ=           -140.5869
   XY=              3.6399   XZ=             -6.4496   YZ=              5.1556

 Summary of Natural Population Analysis:

                                       Natural Population
                Natural  -----------------------------------------------
    Atom  No    Charge         Core      Valence    Rydberg      Total
 -----------------------------------------------------------------------
      C    1   -0.29239      0.99964     2.28670    0.00606     3.29239
      C    2    0.00559      0.99955     1.98010    0.01477     2.99441
      C    3   -0.11694      0.99955     2.10589    0.01150     3.11694
      C    4   -0.18851      0.99960     2.17902    0.00988     3.18851
      C    5   -0.19574      0.99962     2.18624    0.00988     3.19574
      C    6   -0.19822      0.99963     2.19044    0.00816     3.19822
      C    7   -0.08249      0.99962     2.07099    0.01187     3.08249
      N    8   -0.36261      0.99973     2.85103    0.01185     3.86261
      C    9   -0.08936      0.99960     2.07640    0.01336     3.08936
      N   10   -0.26903      0.99963     2.75622    0.01318     3.76903
      C   11   -0.18133      0.99962     2.17297    0.00874     3.18133
      C   12    0.40851      0.99967     1.56854    0.02328     2.59149
      O   13   -0.35681      0.99987     3.35165    0.00529     4.35681
      N   14   -0.41504      0.99972     2.90699    0.00833     3.91504
      H   15    0.11375      0.00000     0.38536    0.00089     0.38625
      H   16    0.10148      0.00000     0.39769    0.00082     0.39852
      H   17    0.09657      0.00000     0.40269    0.00074     0.40343
      H   18    0.09812      0.00000     0.40002    0.00185     0.40188
      H   19    0.09729      0.00000     0.40115    0.00157     0.40271
      H   20    0.10140      0.00000     0.39699    0.00161     0.39860
      H   21    0.09448      0.00000     0.40425    0.00128     0.40552
      H   22    0.09482      0.00000     0.40198    0.00320     0.40518
      H   23    0.10033      0.00000     0.39811    0.00156     0.39967
      H   24    0.09902      0.00000     0.39987    0.00111     0.40098
      H   25    0.08894      0.00000     0.40958    0.00148     0.41106
      H   26    0.09231      0.00000     0.40663    0.00106     0.40769
      H   27    0.07986      0.00000     0.41898    0.00116     0.42014
      H   28    0.19766      0.00000     0.29906    0.00328     0.30234
      H   29    0.09067      0.00000     0.40844    0.00089     0.40933
      H   30    0.09344      0.00000     0.40542    0.00114     0.40656
      H   31    0.10344      0.00000     0.39479    0.00177     0.39656
      H   32    0.10427      0.00000     0.39337    0.00236     0.39573
      H   33    0.09629      0.00000     0.40072    0.00299     0.40371
      H   34    0.19617      0.00000     0.29964    0.00419     0.30383
      H   35    0.19407      0.00000     0.30428    0.00165     0.30593
 =======================================================================
   * Total *    0.00000     13.99505    40.81223    0.19272    55.00000

 Normal termination of Gaussian 16 at Thu Dec 10 11:15:58 2020.
