 Gaussian 16, Revision A.03,

 -----------------------------------------------------------
 # opt freq B3LYP/6-31G(d) empiricaldispersion=gd3bj scf=xqc
 -----------------------------------------------------------

 ------------------------------
 CID_63000479_JID_2857_neutraal
 ------------------------------
 Symbolic Z-matrix:
 Charge =  0 Multiplicity = 1

 SCF Done:  E(RB3LYP) =  -538.746398430     A.U. after   14 cycles
 SCF Done:  E(RB3LYP) =  -538.751841320     A.U. after   13 cycles
 SCF Done:  E(RB3LYP) =  -538.752378015     A.U. after   12 cycles
 SCF Done:  E(RB3LYP) =  -538.752296529     A.U. after   12 cycles
 SCF Done:  E(RB3LYP) =  -538.752557174     A.U. after   11 cycles
 SCF Done:  E(RB3LYP) =  -538.752594061     A.U. after   11 cycles
 SCF Done:  E(RB3LYP) =  -538.752626496     A.U. after   11 cycles
 SCF Done:  E(RB3LYP) =  -538.752637808     A.U. after   10 cycles
 SCF Done:  E(RB3LYP) =  -538.752653699     A.U. after   11 cycles
 SCF Done:  E(RB3LYP) =  -538.752660632     A.U. after   10 cycles
 SCF Done:  E(RB3LYP) =  -538.752695442     A.U. after   12 cycles
 SCF Done:  E(RB3LYP) =  -538.752705148     A.U. after   11 cycles
 SCF Done:  E(RB3LYP) =  -538.752709300     A.U. after   10 cycles
 SCF Done:  E(RB3LYP) =  -538.752709997     A.U. after    9 cycles
 SCF Done:  E(RB3LYP) =  -538.752710109     A.U. after    8 cycles
 Optimization completed.
    -- Stationary point found.
 Normal termination of Gaussian 16 at Wed Dec  9 18:11:59 2020.

 --------------------------------------------------------------------
 #N Geom=AllCheck Guess=TCheck SCRF=Check GenChk RB3LYP/6-31G(d) Freq
 --------------------------------------------------------------------

 Structure from the checkpoint file:  "JID_2857.chk"
 ------------------------------
 CID_63000479_JID_2857_neutraal
 ------------------------------
 Charge =  0 Multiplicity = 1

 SCF Done:  E(RB3LYP) =  -538.752710109     A.U. after    1 cycles

  Exact polarizability: 126.937  12.251  89.976   7.626  -7.494  83.782
 Approx polarizability: 160.544  24.166 139.230  14.550 -19.264 141.013

                      1                      2                      3
                      A                      A                      A
 Frequencies --     26.1283                42.1729                65.8490
 Red. masses --      3.8446                 5.0665                 4.6624
 Frc consts  --      0.0015                 0.0053                 0.0119
 IR Inten    --      1.1895                 0.9205                 1.6516

                      4                      5                      6
                      A                      A                      A
 Frequencies --     99.8650               190.4186               208.9625
 Red. masses --      2.9343                 3.3360                 2.7953
 Frc consts  --      0.0172                 0.0713                 0.0719
 IR Inten    --      0.3710                 1.9537                 1.0052

                      7                      8                      9
                      A                      A                      A
 Frequencies --    302.9417               320.5333               347.3412
 Red. masses --      4.9863                 2.1459                 2.7218
 Frc consts  --      0.2696                 0.1299                 0.1935
 IR Inten    --      1.0833                 2.9310                 2.4008

                     10                     11                     12
                      A                      A                      A
 Frequencies --    454.2792               543.7239               576.5878
 Red. masses --      4.2346                 2.2541                 2.9649
 Frc consts  --      0.5149                 0.3926                 0.5808
 IR Inten    --     12.6189                 2.0275                 4.8693

                     13                     14                     15
                      A                      A                      A
 Frequencies --    613.2684               621.9623               657.6202
 Red. masses --      3.4303                 3.0336                 4.0704
 Frc consts  --      0.7601                 0.6914                 1.0371
 IR Inten    --      6.9284                 1.1139                 0.4612

                     16                     17                     18
                      A                      A                      A
 Frequencies --    710.8658               728.2476               745.8062
 Red. masses --      2.6229                 1.6091                 3.2859
 Frc consts  --      0.7809                 0.5028                 1.0769
 IR Inten    --      7.0643                26.6418                 7.0804

                     19                     20                     21
                      A                      A                      A
 Frequencies --    801.3192               827.2093               854.8868
 Red. masses --      1.2780                 1.7961                 1.2767
 Frc consts  --      0.4835                 0.7241                 0.5497
 IR Inten    --     21.3715                 6.9628                 0.2793

                     22                     23                     24
                      A                      A                      A
 Frequencies --    881.2884               909.8476               926.6482
 Red. masses --      1.7655                 5.6748                 2.2181
 Frc consts  --      0.8079                 2.7678                 1.1222
 IR Inten    --      6.7009                 4.3072                 1.9685

                     25                     26                     27
                      A                      A                      A
 Frequencies --    941.4205               958.3364               974.2573
 Red. masses --      1.9236                 1.8854                 2.1073
 Frc consts  --      1.0045                 1.0202                 1.1785
 IR Inten    --      6.7145                 2.7397                10.3054

                     28                     29                     30
                      A                      A                      A
 Frequencies --   1021.6940              1038.8896              1043.6680
 Red. masses --      1.8876                 1.5217                 2.1583
 Frc consts  --      1.1609                 0.9676                 1.3851
 IR Inten    --      3.4623                31.8076                 7.1103

                     31                     32                     33
                      A                      A                      A
 Frequencies --   1094.1408              1120.0916              1139.2085
 Red. masses --      2.0233                 2.5779                 1.7936
 Frc consts  --      1.4271                 1.9055                 1.3715
 IR Inten    --      2.4717                 3.0864                 6.1803

                     34                     35                     36
                      A                      A                      A
 Frequencies --   1168.7989              1186.1268              1195.6525
 Red. masses --      2.8370                 1.8424                 1.4897
 Frc consts  --      2.2834                 1.5272                 1.2548
 IR Inten    --     64.3095                 8.5262                 0.5092

                     37                     38                     39
                      A                      A                      A
 Frequencies --   1213.5844              1244.5307              1261.6830
 Red. masses --      1.6296                 1.5467                 1.9592
 Frc consts  --      1.4141                 1.4115                 1.8376
 IR Inten    --      7.1173                 2.1554                 1.4148

                     40                     41                     42
                      A                      A                      A
 Frequencies --   1289.9440              1304.4613              1316.4984
 Red. masses --      1.5815                 1.3622                 1.3713
 Frc consts  --      1.5504                 1.3657                 1.4003
 IR Inten    --      7.2629                 0.5273                 3.8630

                     43                     44                     45
                      A                      A                      A
 Frequencies --   1348.1833              1358.3818              1374.8797
 Red. masses --      1.3490                 1.3542                 1.5654
 Frc consts  --      1.4446                 1.4722                 1.7435
 IR Inten    --      2.3691                 1.7907                 2.8255

                     46                     47                     48
                      A                      A                      A
 Frequencies --   1382.4597              1448.6765              1479.3221
 Red. masses --      1.7044                 2.4884                 1.0837
 Frc consts  --      1.9193                 3.0769                 1.3973
 IR Inten    --     12.0648                 1.5566                 8.0941

                     49                     50                     51
                      A                      A                      A
 Frequencies --   1504.6950              1523.2166              1535.5781
 Red. masses --      1.0992                 1.0847                 1.1034
 Frc consts  --      1.4663                 1.4828                 1.5330
 IR Inten    --      1.7069                 4.9637                 0.5108

                     52                     53                     54
                      A                      A                      A
 Frequencies --   1546.5397              1646.1765              1845.4832
 Red. masses --      5.1032                 6.0834                12.7156
 Frc consts  --      7.1914                 9.7128                25.5157
 IR Inten    --     18.1425                 6.6269               156.4762

                     55                     56                     57
                      A                      A                      A
 Frequencies --   3012.9299              3039.1311              3044.7170
 Red. masses --      1.0813                 1.0679                 1.0657
 Frc consts  --      5.7834                 5.8115                 5.8208
 IR Inten    --      4.1465                10.5815                41.5451

                     58                     59                     60
                      A                      A                      A
 Frequencies --   3045.9138              3057.6686              3098.4182
 Red. masses --      1.0707                 1.0641                 1.0985
 Frc consts  --      5.8525                 5.8616                 6.2134
 IR Inten    --      5.1695                38.1579                 7.1299

                     61                     62                     63
                      A                      A                      A
 Frequencies --   3107.6840              3114.1493              3121.4285
 Red. masses --      1.0956                 1.0975                 1.0985
 Frc consts  --      6.2339                 6.2710                 6.3058
 IR Inten    --     36.3173                28.7923                21.8324

                     64                     65                     66
                      A                      A                      A
 Frequencies --   3256.3566              3270.5969              3303.8548
 Red. masses --      1.0926                 1.0958                 1.1041
 Frc consts  --      6.8264                 6.9060                 7.1010
 IR Inten    --      7.3039                 3.2892                 2.2158

 - Thermochemistry -
 -------------------
 Temperature   298.150 Kelvin.  Pressure   1.00000 Atm.
 Atom     1 has atomic number  6 and mass  12.00000

 Molecular mass:   164.08373 amu.
 Principal axes and moments of inertia in atomic units:
                           1         2         3
     Eigenvalues --   768.424923313.446423656.47723
           X            0.99997   0.00650   0.00508
           Y           -0.00646   0.99994  -0.00856
           Z           -0.00513   0.00853   0.99995
 This molecule is an asymmetric top.
 Rotational symmetry number  1.
 Warning -- assumption of classical behavior for rotation
           may cause significant error
 Rotational temperatures (Kelvin)      0.11272     0.02614     0.02369
 Rotational constants (GHZ):           2.34862     0.54467     0.49357
 Zero-point vibrational energy     528971.9 (Joules/Mol)
                                  126.42733 (Kcal/Mol)
 Warning -- explicit consideration of  13 degrees of freedom as
           vibrations may cause significant error
 Vibrational temperatures:     37.59    60.68    94.74   143.68   273.97
          (Kelvin)            300.65   435.87   461.18   499.75   653.61
                              782.30   829.58   882.36   894.87   946.17
                             1022.78  1047.79  1073.05  1152.92  1190.17
                             1229.99  1267.98  1309.07  1333.24  1354.49
                             1378.83  1401.74  1469.99  1494.73  1501.61
                             1574.22  1611.56  1639.07  1681.64  1706.57
                             1720.28  1746.08  1790.60  1815.28  1855.94
                             1876.83  1894.15  1939.74  1954.41  1978.15
                             1989.05  2084.32  2128.41  2164.92  2191.57
                             2209.35  2225.13  2368.48  2655.24  4334.93
                             4372.63  4380.67  4382.39  4399.30  4457.93
                             4471.26  4480.57  4491.04  4685.17  4705.66
                             4753.51

 Zero-point correction=                           0.201475 (Hartree/Particle)
 Thermal correction to Energy=                    0.212110
 Thermal correction to Enthalpy=                  0.213054
 Thermal correction to Gibbs Free Energy=         0.163159
 Sum of electronic and zero-point Energies=           -538.551235
 Sum of electronic and thermal Energies=              -538.540600
 Sum of electronic and thermal Enthalpies=            -538.539656
 Sum of electronic and thermal Free Energies=         -538.589552

                     E (Thermal)             CV                S
                      KCal/Mol        Cal/Mol-Kelvin    Cal/Mol-Kelvin
 Total                  133.101             40.235            105.015
 Electronic               0.000              0.000              0.000
 Translational            0.889              2.981             41.194
 Rotational               0.889              2.981             30.610
 Vibrational            131.324             34.273             33.210
 Vibration     1          0.593              1.985              6.104
 Vibration     2          0.595              1.980              5.154
 Vibration     3          0.597              1.971              4.274
 Vibration     4          0.604              1.949              3.457
 Vibration     5          0.634              1.853              2.224
 Vibration     6          0.642              1.827              2.053
 Vibration     7          0.694              1.668              1.401
 Vibration     8          0.706              1.634              1.307
 Vibration     9          0.725              1.581              1.178
 Vibration    10          0.813              1.351              0.783
 Vibration    11          0.899              1.153              0.557
 Vibration    12          0.933              1.082              0.492
 Vibration    13          0.973              1.004              0.427

 Optimization completed.
    -- Stationary point found.
 Normal termination of Gaussian 16 at Wed Dec  9 18:17:40 2020.

 ----------------------------------------------------------------------
 # B3LYP/6-311++G(d,p) empiricaldispersion=gd3bj scf=xqc pop=npa geom=c
 heck
 ----------------------------------------------------------------------

 --------------------------------------
 CID_63000479_JID_2857_Energie_neutraal
 --------------------------------------
 Structure from the checkpoint file:  "JID_2857.chk"
 Charge =  0 Multiplicity = 1

 SCF Done:  E(RB3LYP) =  -538.902760766     A.U. after   14 cycles
 Normal termination of Gaussian 16 at Wed Dec  9 18:20:24 2020.

 ----------------------------------------------------------------------
 # B3LYP/6-311++G(d,p) empiricaldispersion=gd3bj scf=xqc pop=npa geom=c
 heck
 ----------------------------------------------------------------------

 ------------------------------------
 CID_63000479_JID_2857_Energie_kation
 ------------------------------------
 Structure from the checkpoint file:  "JID_2857.chk"
 Charge =  1 Multiplicity = 2

 SCF Done:  E(UB3LYP) =  -538.614754959     A.U. after   22 cycles
 Normal termination of Gaussian 16 at Wed Dec  9 18:26:13 2020.
 Gaussian 16:  ES64L-G16RevA.03 25-Dec-2016

 ----------------------------------------------------------------------
 # B3LYP/6-311++G(d,p) empiricaldispersion=gd3bj scf=xqc pop=npa geom=c
 heck
 ----------------------------------------------------------------------

 -----------------------------------
 CID_63000479_JID_2857_Energie_anion
 -----------------------------------
 Structure from the checkpoint file:  "JID_2857.chk"
 Charge = -1 Multiplicity = 2

                         Standard orientation:
 ---------------------------------------------------------------------
 Center     Atomic      Atomic             Coordinates (Angstroms)
 Number     Number       Type             X           Y           Z
 ---------------------------------------------------------------------
      1          6           0       -3.448887   -0.260203    0.330982
      2          6           0       -2.408580   -1.231700   -0.264498
      3          6           0       -1.052678   -0.632264    0.144023
      4          6           0       -1.308088    0.883801    0.144281
      5          8           0       -0.458113    1.745680    0.147923
      6          6           0       -2.821745    1.125657    0.115747
      7          6           0        0.147384   -1.070310   -0.714427
      8          6           0        1.469250   -0.587031   -0.216234
      9          6           0        2.222342   -0.877737    0.884555
     10          6           0        3.388315   -0.044526    0.817220
     11          6           0        3.261291    0.687358   -0.322848
     12          8           0        2.102009    0.365624   -0.965237
     13          1           0       -4.436034   -0.363272   -0.128618
     14          1           0       -3.565126   -0.456883    1.404096
     15          1           0       -2.489560   -1.237947   -1.360485
     16          1           0       -2.539200   -2.262678    0.078311
     17          1           0       -0.848735   -0.900023    1.192680
     18          1           0       -3.110089    1.889469    0.843771
     19          1           0       -3.067802    1.522982   -0.879026
     20          1           0        0.149029   -2.167043   -0.759167
     21          1           0        0.010809   -0.711459   -1.740477
     22          1           0        1.977206   -1.595702    1.655396
     23          1           0        4.205954   -0.002534    1.523090
     24          1           0        3.870742    1.436373   -0.803861
 ---------------------------------------------------------------------

 SCF Done:  E(UB3LYP) =  -538.889698904     A.U. after   33 cycles
 SCF Done:  E(UB3LYP) =  -538.889698905     a.u. after    1 cycles

 The electronic state is 2-A.
 Alpha  occ. eigenvalues --  -19.07850 -18.98415 -10.12520 -10.11699 -10.11398
 Alpha  occ. eigenvalues --  -10.07373 -10.06779 -10.06595 -10.06093 -10.06068
 Alpha  occ. eigenvalues --  -10.05738 -10.05660  -1.00299  -0.91928  -0.73045
 Alpha  occ. eigenvalues --   -0.69345  -0.67958  -0.62106  -0.57766  -0.54603
 Alpha  occ. eigenvalues --   -0.49560  -0.47314  -0.44813  -0.42398  -0.40582
 Alpha  occ. eigenvalues --   -0.37712  -0.35299  -0.34426  -0.34241  -0.31642
 Alpha  occ. eigenvalues --   -0.31067  -0.30008  -0.29328  -0.28161  -0.27678
 Alpha  occ. eigenvalues --   -0.26597  -0.25749  -0.24076  -0.23285  -0.22321
 Alpha  occ. eigenvalues --   -0.21934  -0.17428  -0.12836  -0.11089   0.04981
 Alpha virt. eigenvalues --    0.07308   0.07711   0.08469   0.08733   0.09490
 Alpha virt. eigenvalues --    0.09772   0.10600   0.11063   0.11211   0.11591
 Alpha virt. eigenvalues --    0.12839   0.13422   0.14178   0.15057   0.15488

  Beta  occ. eigenvalues --  -19.07848 -18.98286 -10.12364 -10.11701 -10.11396
  Beta  occ. eigenvalues --  -10.07350 -10.06774 -10.06599 -10.06085 -10.06058
  Beta  occ. eigenvalues --  -10.05702 -10.05637  -1.00295  -0.91668  -0.72942
  Beta  occ. eigenvalues --   -0.69325  -0.67934  -0.62072  -0.57654  -0.54462
  Beta  occ. eigenvalues --   -0.49534  -0.47191  -0.44780  -0.42332  -0.40409
  Beta  occ. eigenvalues --   -0.37590  -0.35152  -0.34391  -0.34199  -0.31542
  Beta  occ. eigenvalues --   -0.31024  -0.29837  -0.29170  -0.28078  -0.27586
  Beta  occ. eigenvalues --   -0.26518  -0.25626  -0.23983  -0.23218  -0.22189
  Beta  occ. eigenvalues --   -0.21555  -0.17416  -0.12764  -0.11043
  Beta virt. eigenvalues --    0.07324   0.07707   0.08649   0.09098   0.09256
  Beta virt. eigenvalues --    0.10037   0.10458   0.10867   0.11617   0.11807
  Beta virt. eigenvalues --    0.12064   0.13037   0.13872   0.14386   0.14965

 Mulliken charges and spin densities:
               1          2
     1  C    0.392218  -0.660042
     2  C    1.280072  -1.880757
     3  C   -0.972579   1.994777
     4  C   -0.645878   0.476103
     5  O   -0.303066   0.063264
     6  C    0.467636  -0.967546
     7  C    3.714449  -5.048411
     8  C   -0.876735   1.070394
     9  C   -2.212320   2.444973
    10  C    1.224059  -1.638687
    11  C   -0.752437   0.777664
    12  O    0.028764   0.011412
    13  H   -0.207523   0.356453
    14  H   -0.218046   0.374414
    15  H    0.139352  -0.018272
    16  H   -0.815202   0.998138
    17  H    0.024393   0.181247
    18  H   -0.114719   0.292327
    19  H    0.163217  -0.008705
    20  H   -0.103625   0.300897
    21  H    0.031559   0.146468
    22  H   -1.223470   1.422491
    23  H   -0.063355   0.205307
    24  H    0.043237   0.106092
 Sum of Mulliken charges =  -1.00000   1.00000

 Dipole moment (field-independent basis, Debye):
    X=              2.9120    Y=              4.1266    Z=             -4.4830  Tot=              6.7533
 Quadrupole moment (field-independent basis, Debye-Ang):
   XX=           -119.1942   YY=           -116.7710   ZZ=            -98.9353
   XY=             -3.1741   XZ=              4.9781   YZ=              6.1289

 Summary of Natural Population Analysis:

                                       Natural Population
                Natural  -----------------------------------------------
    Atom  No    Charge         Core      Valence    Rydberg      Total
 -----------------------------------------------------------------------
      C    1   -0.19100      0.99964     2.18312    0.00824     3.19100
      C    2   -0.18594      0.99963     2.17686    0.00945     3.18594
      C    3   -0.15375      0.99955     2.14290    0.01130     3.15375
      C    4    0.32015      0.99965     1.65788    0.02232     2.67985
      O    5   -0.27674      0.99987     3.27045    0.00642     4.27674
      C    6   -0.24048      0.99960     2.23209    0.00879     3.24048
      C    7   -0.20873      0.99957     2.19824    0.01091     3.20873
      C    8    0.16315      0.99947     1.82051    0.01688     2.83685
      C    9   -0.15259      0.99948     2.14407    0.00904     3.15259
      C   10   -0.15132      0.99957     2.14177    0.00998     3.15132
      C   11    0.05065      0.99951     1.93676    0.01309     2.94935
      O   12   -0.23156      0.99986     3.22408    0.00762     4.23156
      H   13    0.09673      0.00000     0.40234    0.00093     0.40327
      H   14    0.09926      0.00000     0.39846    0.00227     0.40074
      H   15    0.09016      0.00000     0.40848    0.00135     0.40984
      H   16    0.10824      0.00000     0.38729    0.00447     0.39176
      H   17    0.11872      0.00000     0.37665    0.00462     0.38128
      H   18    0.11106      0.00000     0.38755    0.00139     0.38894
      H   19    0.10651      0.00000     0.39251    0.00098     0.39349
      H   20    0.11176      0.00000     0.38688    0.00136     0.38824
      H   21    0.10722      0.00000     0.39129    0.00148     0.39278
      H   22    0.11245      0.00000     0.38566    0.00190     0.38755
      H   23    0.10496      0.00000     0.39437    0.00067     0.39504
      H   24    0.09105      0.00000     0.40813    0.00081     0.40895
 =======================================================================
   * Total *   -0.00000     11.99540    31.84833    0.15627    44.00000

 Normal termination of Gaussian 16 at Wed Dec  9 18:33:49 2020.
