 Gaussian 16, Revision A.03,

 -----------------------------------------------------------
 # opt freq B3LYP/6-31G(d) empiricaldispersion=gd3bj scf=xqc
 -----------------------------------------------------------

 ------------------------------
 CID_57448392_JID_8459_neutraal
 ------------------------------
 Symbolic Z-matrix:
 Charge =  0 Multiplicity = 1

 SCF Done:  E(RB3LYP) =  -1159.57408498     A.U. after   15 cycles
 SCF Done:  E(RB3LYP) =  -1159.58045047     A.U. after   13 cycles
 SCF Done:  E(RB3LYP) =  -1159.58134841     A.U. after   12 cycles
 SCF Done:  E(RB3LYP) =  -1159.58144789     A.U. after   11 cycles
 SCF Done:  E(RB3LYP) =  -1159.58150889     A.U. after   11 cycles
 SCF Done:  E(RB3LYP) =  -1159.58157916     A.U. after   11 cycles
 SCF Done:  E(RB3LYP) =  -1159.58168072     A.U. after   12 cycles
 SCF Done:  E(RB3LYP) =  -1159.58197098     A.U. after   11 cycles
 SCF Done:  E(RB3LYP) =  -1159.58364502     A.U. after   14 cycles
 SCF Done:  E(RB3LYP) =  -1159.58423478     A.U. after   12 cycles
 SCF Done:  E(RB3LYP) =  -1159.58563879     A.U. after   11 cycles
 SCF Done:  E(RB3LYP) =  -1159.58563918     A.U. after    8 cycles
 SCF Done:  E(RB3LYP) =  -1159.58563926     A.U. after    7 cycles
 SCF Done:  E(RB3LYP) =  -1159.58563930     A.U. after    7 cycles
 SCF Done:  E(RB3LYP) =  -1159.58563932     A.U. after    7 cycles
 Optimization completed.
    -- Stationary point found.
 Normal termination of Gaussian 16 at Mon Dec 14 16:48:37 2020.

 --------------------------------------------------------------------
 #N Geom=AllCheck Guess=TCheck SCRF=Check GenChk RB3LYP/6-31G(d) Freq
 --------------------------------------------------------------------

 Structure from the checkpoint file:  "JID_8459.chk"
 ------------------------------
 CID_57448392_JID_8459_neutraal
 ------------------------------
 Charge =  0 Multiplicity = 1

 SCF Done:  E(RB3LYP) =  -1159.58563932     A.U. after    1 cycles

  Exact polarizability: 260.824   4.779 137.479  -6.034  -1.943 110.327
 Approx polarizability: 366.857  21.526 257.075 -10.435  -7.107 194.163

                      1                      2                      3
                      A                      A                      A
 Frequencies --     11.9278                25.5813                35.7467
 Red. masses --      4.7881                 6.7512                 6.7012
 Frc consts  --      0.0004                 0.0026                 0.0050
 IR Inten    --      0.4675                 0.6196                 0.3844

                      4                      5                      6
                      A                      A                      A
 Frequencies --     66.2458               112.3218               134.8659
 Red. masses --      3.2882                 6.9993                 4.1028
 Frc consts  --      0.0085                 0.0520                 0.0440
 IR Inten    --      3.0094                 0.1058                 0.6199

                      7                      8                      9
                      A                      A                      A
 Frequencies --    192.8276               207.0319               224.8158
 Red. masses --      8.1325                 5.7171                 6.8279
 Frc consts  --      0.1782                 0.1444                 0.2033
 IR Inten    --      0.1930                 1.9570                 0.6267

                     10                     11                     12
                      A                      A                      A
 Frequencies --    294.7265               312.0544               379.8889
 Red. masses --      3.2014                 4.5559                 1.9095
 Frc consts  --      0.1638                 0.2614                 0.1624
 IR Inten    --     16.3510                 5.3524                91.8507

                     13                     14                     15
                      A                      A                      A
 Frequencies --    384.5249               403.8107               426.5724
 Red. masses --      3.3230                 5.5045                 3.0309
 Frc consts  --      0.2895                 0.5288                 0.3249
 IR Inten    --     43.0119                17.4233                 1.5401

                     16                     17                     18
                      A                      A                      A
 Frequencies --    432.5369               450.9559               478.9125
 Red. masses --      3.3130                 4.8019                 4.1304
 Frc consts  --      0.3652                 0.5754                 0.5582
 IR Inten    --      3.8598                14.3787                10.7429

                     19                     20                     21
                      A                      A                      A
 Frequencies --    507.3809               554.8789               563.3913
 Red. masses --     10.1991                 7.0683                 8.3709
 Frc consts  --      1.5470                 1.2822                 1.5655
 IR Inten    --      0.6867                16.5012                 0.5827

                     22                     23                     24
                      A                      A                      A
 Frequencies --    594.7429               618.7100               651.0867
 Red. masses --      4.7155                 8.7000                 7.1003
 Frc consts  --      0.9827                 1.9622                 1.7734
 IR Inten    --     14.6763                10.7806                 0.0566

                     25                     26                     27
                      A                      A                      A
 Frequencies --    668.0711               681.9875               718.8940
 Red. masses --      6.3410                 6.8979                 4.9007
 Frc consts  --      1.6675                 1.8903                 1.4922
 IR Inten    --      2.7142                11.5378                13.5688

                     28                     29                     30
                      A                      A                      A
 Frequencies --    728.5731               750.5578               798.2010
 Red. masses --      4.9031                 4.3273                 5.1162
 Frc consts  --      1.5334                 1.4363                 1.9205
 IR Inten    --     14.8362                 3.0323                 5.7907

                     31                     32                     33
                      A                      A                      A
 Frequencies --    830.3662               841.9119               850.9489
 Red. masses --      1.3363                 1.5940                 1.6843
 Frc consts  --      0.5429                 0.6657                 0.7186
 IR Inten    --     20.1879                20.5651                14.9674

                     34                     35                     36
                      A                      A                      A
 Frequencies --    866.8040               928.1725               938.7317
 Red. masses --      2.9060                 8.3068                 1.3273
 Frc consts  --      1.2864                 4.2164                 0.6891
 IR Inten    --      9.4113                35.2022                 1.8249

                     37                     38                     39
                      A                      A                      A
 Frequencies --    958.9485               966.8992               975.8433
 Red. masses --      1.3093                 1.4251                 1.3138
 Frc consts  --      0.7094                 0.7850                 0.7371
 IR Inten    --      2.0740                 0.4864                 2.2007

                     40                     41                     42
                      A                      A                      A
 Frequencies --    998.5971              1039.8887              1067.7270
 Red. masses --      1.5375                 2.7378                 1.9655
 Frc consts  --      0.9033                 1.7443                 1.3202
 IR Inten    --     25.8981                27.5336                 2.6845

                     43                     44                     45
                      A                      A                      A
 Frequencies --   1080.2347              1111.3310              1136.0815
 Red. masses --      5.1064                 7.0959                 1.3425
 Frc consts  --      3.5108                 5.1635                 1.0209
 IR Inten    --     77.0206                23.7379                 3.5258

                     46                     47                     48
                      A                      A                      A
 Frequencies --   1191.3936              1216.9076              1220.5251
 Red. masses --      1.3172                 1.2411                 2.6440
 Frc consts  --      1.1016                 1.0828                 2.3206
 IR Inten    --     22.8830                12.7747                48.1270

                     49                     50                     51
                      A                      A                      A
 Frequencies --   1224.9962              1229.8125              1262.8383
 Red. masses --      1.6547                 2.6130                 6.2770
 Frc consts  --      1.4630                 2.3285                 5.8979
 IR Inten    --     16.1114                56.4519               478.7622

                     52                     53                     54
                      A                      A                      A
 Frequencies --   1292.6251              1316.9636              1328.1814
 Red. masses --      3.2089                 9.0582                 1.3583
 Frc consts  --      3.1590                 9.2564                 1.4117
 IR Inten    --     70.4167                 4.2020                 5.0139

                     55                     56                     57
                      A                      A                      A
 Frequencies --   1342.5386              1343.4172              1398.2742
 Red. masses --      1.7911                 3.6732                 1.5373
 Frc consts  --      1.9021                 3.9059                 1.7709
 IR Inten    --      8.1722                 0.3644                 4.9000

                     58                     59                     60
                      A                      A                      A
 Frequencies --   1429.2944              1464.6725              1471.5437
 Red. masses --      1.3448                 2.4531                 2.7316
 Frc consts  --      1.6187                 3.1006                 3.4851
 IR Inten    --     81.2356                15.0081                32.5882

                     61                     62                     63
                      A                      A                      A
 Frequencies --   1491.5777              1527.2864              1551.7626
 Red. masses --      2.3994                 1.1039                 2.4832
 Frc consts  --      3.1451                 1.5171                 3.5229
 IR Inten    --     47.9877                 7.0242               177.1403

                     64                     65                     66
                      A                      A                      A
 Frequencies --   1592.2899              1604.7096              1645.8622
 Red. masses --      6.3222                 8.0271                 6.9578
 Frc consts  --      9.4441                12.1787                11.1047
 IR Inten    --     11.4464               157.6295                 8.0621

                     67                     68                     69
                      A                      A                      A
 Frequencies --   1650.6568              1674.0102              3005.9256
 Red. masses --      7.2141                 6.6274                 1.0704
 Frc consts  --     11.5810                10.9423                 5.6987
 IR Inten    --    294.7687                74.0431                57.5701

                     70                     71                     72
                      A                      A                      A
 Frequencies --   3082.1413              3181.2403              3187.7915
 Red. masses --      1.0930                 1.0884                 1.0893
 Frc consts  --      6.1176                 6.4897                 6.5218
 IR Inten    --     22.9392                24.0991                13.2545

                     73                     74                     75
                      A                      A                      A
 Frequencies --   3190.3584              3212.7287              3217.3816
 Red. masses --      1.0918                 1.0880                 1.0943
 Frc consts  --      6.5473                 6.6168                 6.6741
 IR Inten    --     12.7394                 2.5005                12.7859

                     76                     77                     78
                      A                      A                      A
 Frequencies --   3223.3176              3226.0532              3732.2746
 Red. masses --      1.0937                 1.0950                 1.0661
 Frc consts  --      6.6948                 6.7144                 8.7497
 IR Inten    --      3.3618                 2.3110                11.2657

 - Thermochemistry -
 -------------------
 Temperature   298.150 Kelvin.  Pressure   1.00000 Atm.
 Atom     1 has atomic number  6 and mass  12.00000

 Molecular mass:   258.04630 amu.
 Principal axes and moments of inertia in atomic units:
                           1         2         3
     Eigenvalues --  1486.73972********************
           X            1.00000  -0.00001  -0.00212
           Y            0.00001   1.00000   0.00230
           Z            0.00212  -0.00230   1.00000
 This molecule is an asymmetric top.
 Rotational symmetry number  1.
 Warning -- assumption of classical behavior for rotation
           may cause significant error
 Rotational temperatures (Kelvin)      0.05826     0.00801     0.00748
 Rotational constants (GHZ):           1.21389     0.16695     0.15595
 Zero-point vibrational energy     548701.1 (Joules/Mol)
                                  131.14271 (Kcal/Mol)
 Warning -- explicit consideration of  23 degrees of freedom as
           vibrations may cause significant error
 Vibrational temperatures:     17.16    36.81    51.43    95.31   161.61
          (Kelvin)            194.04   277.44   297.87   323.46   424.05
                              448.98   546.58   553.25   580.99   613.74
                              622.32   648.82   689.05   730.01   798.35
                              810.59   855.70   890.19   936.77   961.21
                              981.23  1034.33  1048.25  1079.89  1148.43
                             1194.71  1211.32  1224.33  1247.14  1335.43
                             1350.63  1379.71  1391.15  1404.02  1436.76
                             1496.17  1536.22  1554.22  1598.96  1634.57
                             1714.15  1750.86  1756.06  1762.50  1769.43
                             1816.94  1859.80  1894.82  1910.96  1931.61
                             1932.88  2011.80  2056.44  2107.34  2117.22
                             2146.05  2197.42  2232.64  2290.95  2308.82
                             2368.03  2374.93  2408.53  4324.86  4434.51
                             4577.10  4586.52  4590.21  4622.40  4629.09
                             4637.64  4641.57  5369.91

 Zero-point correction=                           0.208989 (Hartree/Particle)
 Thermal correction to Energy=                    0.223685
 Thermal correction to Enthalpy=                  0.224629
 Thermal correction to Gibbs Free Energy=         0.163910
 Sum of electronic and zero-point Energies=          -1159.376650
 Sum of electronic and thermal Energies=             -1159.361954
 Sum of electronic and thermal Enthalpies=           -1159.361010
 Sum of electronic and thermal Free Energies=        -1159.421729

                     E (Thermal)             CV                S
                      KCal/Mol        Cal/Mol-Kelvin    Cal/Mol-Kelvin
 Total                  140.364             56.589            127.793
 Electronic               0.000              0.000              0.000
 Translational            0.889              2.981             42.544
 Rotational               0.889              2.981             33.586
 Vibrational            138.587             50.628             51.664
 Vibration     1          0.593              1.987              7.661
 Vibration     2          0.593              1.985              6.146
 Vibration     3          0.594              1.982              5.482
 Vibration     4          0.598              1.970              4.262
 Vibration     5          0.607              1.939              3.228
 Vibration     6          0.613              1.919              2.875
 Vibration     7          0.635              1.850              2.200
 Vibration     8          0.641              1.830              2.070
 Vibration     9          0.649              1.803              1.920
 Vibration    10          0.689              1.684              1.447
 Vibration    11          0.700              1.651              1.351
 Vibration    12          0.750              1.513              1.040
 Vibration    13          0.753              1.503              1.021
 Vibration    14          0.769              1.462              0.949
 Vibration    15          0.788              1.412              0.870
 Vibration    16          0.793              1.399              0.850
 Vibration    17          0.810              1.359              0.793
 Vibration    18          0.835              1.297              0.713
 Vibration    19          0.863              1.234              0.640
 Vibration    20          0.910              1.129              0.534
 Vibration    21          0.919              1.110              0.517
 Vibration    22          0.952              1.043              0.459
 Vibration    23          0.979              0.992              0.419

                           ! Non-Optimized Parameters !
 Normal termination of Gaussian 16 at Mon Dec 14 16:58:33 2020.

 ----------------------------------------------------------------------
 # B3LYP/6-311++G(d,p) empiricaldispersion=gd3bj scf=xqc pop=npa geom=c
 heck
 ----------------------------------------------------------------------

 --------------------------------------
 CID_57448392_JID_8459_Energie_neutraal
 --------------------------------------
 Structure from the checkpoint file:  "JID_8459.chk"
 Charge =  0 Multiplicity = 1

 SCF Done:  E(RB3LYP) =  -1159.81845964     A.U. after   16 cycles
 Normal termination of Gaussian 16 at Mon Dec 14 17:03:38 2020.

 ----------------------------------------------------------------------
 # B3LYP/6-311++G(d,p) empiricaldispersion=gd3bj scf=xqc pop=npa geom=c
 heck
 ----------------------------------------------------------------------

 ------------------------------------
 CID_57448392_JID_8459_Energie_kation
 ------------------------------------
 Structure from the checkpoint file:  "JID_8459.chk"
 Charge =  1 Multiplicity = 2

 SCF Done:  E(UB3LYP) =  -1159.50821482     A.U. after   30 cycles
 Normal termination of Gaussian 16 at Mon Dec 14 17:17:34 2020.
 Gaussian 16:  ES64L-G16RevA.03 25-Dec-2016

 ----------------------------------------------------------------------
 # B3LYP/6-311++G(d,p) empiricaldispersion=gd3bj scf=xqc pop=npa geom=c
 heck
 ----------------------------------------------------------------------

 -----------------------------------
 CID_57448392_JID_8459_Energie_anion
 -----------------------------------
 Structure from the checkpoint file:  "JID_8459.chk"
 Charge = -1 Multiplicity = 2

                         Standard orientation:
 ---------------------------------------------------------------------
 Center     Atomic      Atomic             Coordinates (Angstroms)
 Number     Number       Type             X           Y           Z
 ---------------------------------------------------------------------
      1          6           0        3.219035   -0.482358   -1.318783
      2          6           0        1.969771   -1.088468   -1.197001
      3          6           0        1.379774   -1.158060    0.060970
      4          6           0        2.008773   -0.647082    1.192740
      5          6           0        3.259743   -0.049744    1.055172
      6          6           0        3.876278    0.037701   -0.198698
      7          6           0        5.249458    0.666021   -0.328987
      8          8           0        5.493069    1.694131    0.619703
      9          8           0        0.142215   -1.795473    0.195178
     10          6           0       -0.969778   -1.046921    0.122392
     11          7           0       -2.142657   -1.553916    0.250704
     12          6           0       -3.105419   -0.562068    0.126663
     13          6           0       -2.622678    0.746070   -0.104990
     14         16           0       -0.867318    0.726609   -0.169807
     15          6           0       -3.515685    1.804774   -0.241736
     16          6           0       -4.871570    1.495205   -0.138535
     17          7           0       -5.356760    0.260770    0.080855
     18          6           0       -4.490744   -0.744465    0.210401
     19          1           0        3.685260   -0.411974   -2.298313
     20          1           0        1.448446   -1.496157   -2.056529
     21          1           0        1.519590   -0.724710    2.158055
     22          1           0        3.769260    0.360011    1.921104
     23          1           0        6.024990   -0.084775   -0.138185
     24          1           0        5.396722    1.022534   -1.360579
     25          1           0        4.818615    2.378701    0.483978
     26          1           0       -3.187008    2.823230   -0.419987
     27          1           0       -5.612614    2.285397   -0.237976
     28          1           0       -4.894277   -1.738865    0.387732
 ---------------------------------------------------------------------

 SCF Done:  E(UB3LYP) =  -1159.81841824     A.U. after   33 cycles
 SCF Done:  E(UB3LYP) =  -1159.81851018     a.u. after    5 cycles

 The electronic state is 2-A.
 Alpha  occ. eigenvalues --  -88.77393 -19.07643 -19.03092 -14.20675 -14.20590
 Alpha  occ. eigenvalues --  -10.18855 -10.12175 -10.11606 -10.11089 -10.11023
 Alpha  occ. eigenvalues --  -10.10299 -10.10019 -10.08278 -10.07180 -10.07125
 Alpha  occ. eigenvalues --  -10.06399 -10.06133 -10.05946  -7.85881  -5.82174
 Alpha  occ. eigenvalues --   -5.81867  -5.81435  -1.00170  -0.93221  -0.86642
 Alpha  occ. eigenvalues --   -0.83191  -0.75220  -0.71828  -0.67176  -0.65452
 Alpha  occ. eigenvalues --   -0.64960  -0.64463  -0.58737  -0.54155  -0.51407
 Alpha  occ. eigenvalues --   -0.51326  -0.50816  -0.46655  -0.43169  -0.41929
 Alpha  occ. eigenvalues --   -0.40738  -0.39514  -0.38743  -0.36952  -0.36062
 Alpha  occ. eigenvalues --   -0.34689  -0.34560  -0.34043  -0.33302  -0.32110
 Alpha  occ. eigenvalues --   -0.31064  -0.29611  -0.28624  -0.27770  -0.26669
 Alpha  occ. eigenvalues --   -0.25592  -0.24762  -0.23339  -0.22745  -0.20653
 Alpha  occ. eigenvalues --   -0.19127  -0.18708  -0.15912  -0.15881  -0.14660
 Alpha  occ. eigenvalues --   -0.14197  -0.13276   0.04289
 Alpha virt. eigenvalues --    0.06403   0.06763   0.07343   0.07481   0.08432
 Alpha virt. eigenvalues --    0.08633   0.08904   0.09267   0.09362   0.09731
 Alpha virt. eigenvalues --    0.11035   0.11425   0.11860   0.12337   0.12837

  Beta  occ. eigenvalues --  -88.77367 -19.07651 -19.03061 -14.20665 -14.20561
  Beta  occ. eigenvalues --  -10.18704 -10.12184 -10.11390 -10.11093 -10.10960
  Beta  occ. eigenvalues --  -10.10303 -10.09948 -10.08213 -10.07236 -10.07163
  Beta  occ. eigenvalues --  -10.06263 -10.05903 -10.05819  -7.85856  -5.82079
  Beta  occ. eigenvalues --   -5.81857  -5.81424  -1.00081  -0.93140  -0.86567
  Beta  occ. eigenvalues --   -0.83111  -0.74950  -0.71671  -0.66911  -0.65275
  Beta  occ. eigenvalues --   -0.64788  -0.64211  -0.58574  -0.54042  -0.51296
  Beta  occ. eigenvalues --   -0.51183  -0.50632  -0.46386  -0.43013  -0.41830
  Beta  occ. eigenvalues --   -0.40567  -0.39394  -0.38609  -0.36807  -0.35941
  Beta  occ. eigenvalues --   -0.34589  -0.34343  -0.33919  -0.33137  -0.32039
  Beta  occ. eigenvalues --   -0.30868  -0.29467  -0.28506  -0.27565  -0.26231
  Beta  occ. eigenvalues --   -0.25443  -0.24491  -0.23132  -0.22634  -0.20514
  Beta  occ. eigenvalues --   -0.18999  -0.18605  -0.15827  -0.15457  -0.14339
  Beta  occ. eigenvalues --   -0.13118  -0.13011
  Beta virt. eigenvalues --    0.06810   0.07137   0.07198   0.07520   0.08296
  Beta virt. eigenvalues --    0.08522   0.08826   0.09054   0.09501   0.09692
  Beta virt. eigenvalues --    0.10136   0.11127   0.11771   0.12272   0.12508

 Mulliken charges and spin densities:
               1          2
     1  C   -0.543911   0.032479
     2  C    0.232578   0.158391
     3  C   -0.586839   0.014483
     4  C    0.143842   0.062847
     5  C   -0.124340   0.076377
     6  C    0.333495   0.209022
     7  C   -0.124615  -0.395443
     8  O   -0.232050  -0.009014
     9  O    0.053349  -0.008470
    10  C    0.336794  -0.311193
    11  N   -0.097640  -0.008050
    12  C   -1.079942   0.180223
    13  C    2.108136  -1.562438
    14  S   -0.521742   0.026983
    15  C   -0.538360   1.459373
    16  C    0.197192  -0.764838
    17  N   -0.108429   0.030461
    18  C   -0.769422   0.401396
    19  H    0.140948   0.002611
    20  H    0.160069  -0.010102
    21  H    0.159710   0.001395
    22  H    0.121303   0.047891
    23  H   -0.094459   0.270359
    24  H    0.142516   0.013578
    25  H    0.183617   0.049666
    26  H   -0.668823   0.877894
    27  H    0.054709   0.102068
    28  H    0.122314   0.052047
 Sum of Mulliken charges =  -1.00000   1.00000

 Dipole moment (field-independent basis, Debye):
    X=              1.3252    Y=             -0.2766    Z=             -0.7578  Tot=              1.5514
 Quadrupole moment (field-independent basis, Debye-Ang):
   XX=           -215.3702   YY=           -138.0318   ZZ=           -121.0665
   XY=              1.8949   XZ=             -9.0534   YZ=              2.2835

 Summary of Natural Population Analysis:

                                       Natural Population
                Natural  -----------------------------------------------
    Atom  No    Charge         Core      Valence    Rydberg      Total
 -----------------------------------------------------------------------
      C    1   -0.10957      0.99953     2.09992    0.01012     3.10957
      C    2   -0.09090      0.99951     2.08180    0.00959     3.09090
      C    3    0.15948      0.99933     1.82758    0.01361     2.84052
      C    4   -0.11805      0.99951     2.10936    0.00919     3.11805
      C    5   -0.08208      0.99953     2.07177    0.01078     3.08208
      C    6   -0.00366      0.99950     1.99394    0.01022     3.00366
      C    7   -0.01131      0.99956     2.00020    0.01155     3.01131
      O    8   -0.36615      0.99990     3.35974    0.00652     4.36615
      O    9   -0.26010      0.99982     3.24952    0.01076     4.26010
      C   10    0.23632      0.99953     1.74054    0.02361     2.76368
      N   11   -0.26429      0.99960     2.75372    0.01096     3.76429
      C   12    0.03830      0.99941     1.94763    0.01466     2.96170
      C   13   -0.08672      0.99940     2.07598    0.01134     3.08672
      S   14    0.18705      4.99944     2.79551    0.01800     7.81295
      C   15   -0.12102      0.99949     2.11069    0.01083     3.12102
      C   16    0.01115      0.99960     1.97285    0.01640     2.98885
      N   17   -0.23840      0.99972     2.72737    0.01132     3.73840
      C   18    0.03711      0.99954     1.94984    0.01351     2.96289
      H   19    0.09495      0.00000     0.40410    0.00095     0.40505
      H   20    0.10260      0.00000     0.39658    0.00081     0.39740
      H   21    0.10353      0.00000     0.39562    0.00085     0.39647
      H   22    0.10296      0.00000     0.39593    0.00111     0.39704
      H   23    0.09135      0.00000     0.40648    0.00217     0.40865
      H   24    0.07503      0.00000     0.42352    0.00145     0.42497
      H   25    0.22611      0.00000     0.27096    0.00293     0.27389
      H   26    0.10812      0.00000     0.38943    0.00245     0.39188
      H   27    0.08774      0.00000     0.41096    0.00130     0.41226
      H   28    0.09046      0.00000     0.40787    0.00168     0.40954
 =======================================================================
   * Total *    0.00000     21.99191    44.76942    0.23867    67.00000

 Normal termination of Gaussian 16 at Mon Dec 14 18:40:32 2020.
