 Gaussian 16, Revision A.03,

 -----------------------------------------------------------
 # opt freq B3LYP/6-31G(d) empiricaldispersion=gd3bj scf=xqc
 -----------------------------------------------------------

 -------------------------------
 CID_150305033_JID_5002_neutraal
 -------------------------------
 Symbolic Z-matrix:
 Charge =  0 Multiplicity = 1

 SCF Done:  E(RB3LYP) =  -670.054627875     A.U. after   14 cycles
 SCF Done:  E(RB3LYP) =  -670.057352413     A.U. after   14 cycles
 SCF Done:  E(RB3LYP) =  -670.058743399     A.U. after   13 cycles
 SCF Done:  E(RB3LYP) =  -670.059234226     A.U. after   12 cycles
 SCF Done:  E(RB3LYP) =  -670.059466531     A.U. after   14 cycles
 SCF Done:  E(RB3LYP) =  -670.059912366     A.U. after   12 cycles
 SCF Done:  E(RB3LYP) =  -670.059724092     A.U. after   15 cycles
 SCF Done:  E(RB3LYP) =  -670.059700365     A.U. after   13 cycles
 SCF Done:  E(RB3LYP) =  -670.059633728     A.U. after   13 cycles
 SCF Done:  E(RB3LYP) =  -670.060147753     A.U. after    9 cycles
 SCF Done:  E(RB3LYP) =  -670.060720561     A.U. after   11 cycles
 SCF Done:  E(RB3LYP) =  -670.060731464     A.U. after    9 cycles
 SCF Done:  E(RB3LYP) =  -670.060733392     A.U. after    9 cycles
 SCF Done:  E(RB3LYP) =  -670.060733816     A.U. after    8 cycles
 SCF Done:  E(RB3LYP) =  -670.060733874     A.U. after    7 cycles
 Optimization completed.
    -- Stationary point found.
 Normal termination of Gaussian 16 at Thu Dec 10 14:52:56 2020.

 --------------------------------------------------------------------
 #N Geom=AllCheck Guess=TCheck SCRF=Check GenChk RB3LYP/6-31G(d) Freq
 --------------------------------------------------------------------

 Structure from the checkpoint file:  "JID_5002.chk"
 -------------------------------
 CID_150305033_JID_5002_neutraal
 -------------------------------
 Charge =  0 Multiplicity = 1

 SCF Done:  E(RB3LYP) =  -670.060733874     A.U. after    1 cycles

  Exact polarizability: 137.251  -5.015 128.256   3.632 -11.697 122.625
 Approx polarizability: 170.929  -8.996 208.200   8.021 -42.148 213.866

                      1                      2                      3
                      A                      A                      A
 Frequencies --     29.3242                48.1267                69.2577
 Red. masses --      5.3568                 4.5143                 3.9790
 Frc consts  --      0.0027                 0.0062                 0.0112
 IR Inten    --      0.5527                 1.7384                 0.4657

                      4                      5                      6
                      A                      A                      A
 Frequencies --     71.6134                92.6240               117.7783
 Red. masses --      8.1363                 3.4972                 3.9518
 Frc consts  --      0.0246                 0.0177                 0.0323
 IR Inten    --      1.0744                 1.0807                 2.6678

                      7                      8                      9
                      A                      A                      A
 Frequencies --    209.5459               218.5374               252.6686
 Red. masses --      3.0746                 3.4112                 1.6771
 Frc consts  --      0.0795                 0.0960                 0.0631
 IR Inten    --      0.4038                 3.4255                 1.8112

                     10                     11                     12
                      A                      A                      A
 Frequencies --    265.0411               280.7320               297.8733
 Red. masses --      2.6275                 2.5013                 2.4975
 Frc consts  --      0.1087                 0.1161                 0.1306
 IR Inten    --      2.7176                 3.1102                 0.7240

                     13                     14                     15
                      A                      A                      A
 Frequencies --    343.9898               373.3950               427.4958
 Red. masses --      1.6468                 2.1870                 2.4605
 Frc consts  --      0.1148                 0.1797                 0.2649
 IR Inten    --      0.0379                 0.3777                 2.0715

                     16                     17                     18
                      A                      A                      A
 Frequencies --    460.7757               482.0102               499.9687
 Red. masses --      2.0524                 2.8506                 2.7360
 Frc consts  --      0.2567                 0.3902                 0.4030
 IR Inten    --      0.4963                 5.8470                 4.7371

                     19                     20                     21
                      A                      A                      A
 Frequencies --    520.8599               572.2949               578.6694
 Red. masses --      2.8256                 9.9102                 4.1603
 Frc consts  --      0.4517                 1.9124                 0.8208
 IR Inten    --      6.3721                 9.4963                 7.3493

                     22                     23                     24
                      A                      A                      A
 Frequencies --    654.0604               735.9318               760.7982
 Red. masses --      4.5722                 3.1220                 3.4065
 Frc consts  --      1.1524                 0.9962                 1.1617
 IR Inten    --      6.2828                 1.6591                 0.2360

                     25                     26                     27
                      A                      A                      A
 Frequencies --    795.6343               821.1409               829.1193
 Red. masses --      2.9510                 2.8882                 1.5508
 Frc consts  --      1.1006                 1.1474                 0.6281
 IR Inten    --      0.5895                 2.6382                 0.6130

                     28                     29                     30
                      A                      A                      A
 Frequencies --    847.2627               887.9998               892.5423
 Red. masses --      2.7022                 2.3893                 3.0192
 Frc consts  --      1.1429                 1.1101                 1.4171
 IR Inten    --      2.2626                 5.4760                17.6452

                     31                     32                     33
                      A                      A                      A
 Frequencies --    926.1617               944.1687               956.2853
 Red. masses --      2.2455                 2.2323                 2.2615
 Frc consts  --      1.1349                 1.1725                 1.2185
 IR Inten    --      2.5848                 0.9020                 2.7377

                     34                     35                     36
                      A                      A                      A
 Frequencies --    974.1899               983.3904               989.9865
 Red. masses --      1.6818                 2.4159                 2.0043
 Frc consts  --      0.9404                 1.3765                 1.1574
 IR Inten    --      1.5584                36.0718                 0.5792

                     37                     38                     39
                      A                      A                      A
 Frequencies --   1009.2696              1012.7157              1028.3091
 Red. masses --      3.0446                 1.3544                 1.6170
 Frc consts  --      1.8272                 0.8184                 1.0074
 IR Inten    --      1.6876                 0.7442                 1.1177

                     40                     41                     42
                      A                      A                      A
 Frequencies --   1046.5100              1082.3241              1095.2854
 Red. masses --      1.5648                 2.1597                 1.9692
 Frc consts  --      1.0097                 1.4906                 1.3919
 IR Inten    --      0.9335                 4.6417                 0.4826

                     43                     44                     45
                      A                      A                      A
 Frequencies --   1123.6228              1145.2515              1148.6003
 Red. masses --      2.1207                 1.3369                 1.6244
 Frc consts  --      1.5775                 1.0331                 1.2626
 IR Inten    --     22.2676                 1.8814                 2.7237

                     46                     47                     48
                      A                      A                      A
 Frequencies --   1158.3231              1168.2025              1174.5609
 Red. masses --      3.4154                 1.3398                 1.5259
 Frc consts  --      2.6999                 1.0773                 1.2403
 IR Inten    --    118.1866                 3.6207                 4.9742

                     49                     50                     51
                      A                      A                      A
 Frequencies --   1205.2961              1229.0167              1266.6829
 Red. masses --      1.9121                 1.6687                 1.2594
 Frc consts  --      1.6366                 1.4850                 1.1905
 IR Inten    --      1.9284                 6.2630                 0.2097

                     52                     53                     54
                      A                      A                      A
 Frequencies --   1274.3194              1296.0546              1297.5555
 Red. masses --      1.2674                 1.3957                 1.3683
 Frc consts  --      1.2126                 1.3813                 1.3574
 IR Inten    --      3.0641                 4.3339                 1.4185

                     55                     56                     57
                      A                      A                      A
 Frequencies --   1310.6703              1322.8225              1329.5547
 Red. masses --      1.4695                 1.4598                 1.3340
 Frc consts  --      1.4873                 1.5051                 1.3894
 IR Inten    --     12.0976                 0.6504                 4.7058

                     58                     59                     60
                      A                      A                      A
 Frequencies --   1342.3276              1349.4628              1362.6212
 Red. masses --      1.4406                 1.5246                 2.2845
 Frc consts  --      1.5293                 1.6357                 2.4991
 IR Inten    --      1.0301                 2.9826                91.4323

                     61                     62                     63
                      A                      A                      A
 Frequencies --   1368.4405              1371.4623              1377.5343
 Red. masses --      1.4229                 1.4394                 1.4139
 Frc consts  --      1.5699                 1.5951                 1.5808
 IR Inten    --     11.0332                 3.1487                 8.3513

                     64                     65                     66
                      A                      A                      A
 Frequencies --   1388.0205              1398.2177              1421.4696
 Red. masses --      1.4112                 1.3558                 1.2692
 Frc consts  --      1.6019                 1.5616                 1.5110
 IR Inten    --      2.3210                 1.1297                23.3649

                     67                     68                     69
                      A                      A                      A
 Frequencies --   1446.0156              1456.6619              1509.8320
 Red. masses --      1.2826                 1.2421                 1.0888
 Frc consts  --      1.5802                 1.5528                 1.4624
 IR Inten    --      3.1370                 3.9500                 4.6728

                     70                     71                     72
                      A                      A                      A
 Frequencies --   1515.4118              1520.3376              1526.8852
 Red. masses --      1.0760                 1.0773                 1.0957
 Frc consts  --      1.4559                 1.4671                 1.5051
 IR Inten    --      3.3218                 3.3788                 3.6288

                     73                     74                     75
                      A                      A                      A
 Frequencies --   1534.7389              1541.0515              1543.9025
 Red. masses --      1.0621                 1.0759                 1.0834
 Frc consts  --      1.4740                 1.5054                 1.5216
 IR Inten    --      6.7803                 3.1668                 3.8737

                     76                     77                     78
                      A                      A                      A
 Frequencies --   1560.2219              2261.9552              3022.8430
 Red. masses --      1.0800                13.6008                 1.0851
 Frc consts  --      1.5490                41.0000                 5.8417
 IR Inten    --      2.6919               385.8857                19.0082

                     79                     80                     81
                      A                      A                      A
 Frequencies --   3034.6650              3050.4242              3054.0210
 Red. masses --      1.0657                 1.0762                 1.0453
 Frc consts  --      5.7825                 5.8999                 5.7441
 IR Inten    --     32.0484                21.4686                13.1469

                     82                     83                     84
                      A                      A                      A
 Frequencies --   3058.1062              3059.2391              3062.7213
 Red. masses --      1.0640                 1.0606                 1.0642
 Frc consts  --      5.8629                 5.8485                 5.8816
 IR Inten    --     44.5197                42.9681                17.6565

                     85                     86                     87
                      A                      A                      A
 Frequencies --   3068.5801              3072.7505              3095.1663
 Red. masses --      1.0616                 1.0650                 1.0866
 Frc consts  --      5.8897                 5.9248                 6.1330
 IR Inten    --      6.7077                60.3912                73.6549

                     88                     89                     90
                      A                      A                      A
 Frequencies --   3099.2499              3103.4816              3104.1074
 Red. masses --      1.0945                 1.0982                 1.0973
 Frc consts  --      6.1940                 6.2320                 6.2292
 IR Inten    --      2.9313                 7.2996                38.2652

                     91                     92                     93
                      A                      A                      A
 Frequencies --   3104.9718              3106.4305              3115.4527
 Red. masses --      1.1064                 1.1028                 1.1002
 Frc consts  --      6.2846                 6.2698                 6.2916
 IR Inten    --     55.5252                63.6965                18.8304

                     94                     95                     96
                      A                      A                      A
 Frequencies --   3125.1931              3127.9010              3133.0792
 Red. masses --      1.0996                 1.1023                 1.0995
 Frc consts  --      6.3277                 6.3539                 6.3591
 IR Inten    --     45.6405                21.6698                25.8799

 - Thermochemistry -
 -------------------
 Temperature   298.150 Kelvin.  Pressure   1.00000 Atm.
 Atom     1 has atomic number  6 and mass  12.00000

 Molecular mass:   209.15281 amu.
 Principal axes and moments of inertia in atomic units:
                           1         2         3
     Eigenvalues --  1592.812294993.820795228.50790
           X            0.99975  -0.02101   0.00749
           Y            0.02104   0.99977  -0.00367
           Z           -0.00741   0.00383   0.99997
 This molecule is an asymmetric top.
 Rotational symmetry number  1.
 Warning -- assumption of classical behavior for rotation
           may cause significant error
 Rotational temperatures (Kelvin)      0.05438     0.01734     0.01657
 Rotational constants (GHZ):           1.13305     0.36139     0.34517
 Zero-point vibrational energy     791516.1 (Joules/Mol)
                                  189.17689 (Kcal/Mol)
 Warning -- explicit consideration of  21 degrees of freedom as
           vibrations may cause significant error
 Vibrational temperatures:     42.19    69.24    99.65   103.04   133.27
          (Kelvin)            169.46   301.49   314.43   363.53   381.33
                              403.91   428.57   494.92   537.23   615.07
                              662.95   693.51   719.34   749.40   823.40
                              832.58   941.05  1058.84  1094.62  1144.74
                             1181.44  1192.92  1219.02  1277.63  1284.17
                             1332.54  1358.45  1375.88  1401.64  1414.88
                             1424.37  1452.11  1457.07  1479.51  1505.69
                             1557.22  1575.87  1616.64  1647.76  1652.58
                             1666.57  1680.78  1689.93  1734.15  1768.28
                             1822.47  1833.46  1864.73  1866.89  1885.76
                             1903.25  1912.93  1931.31  1941.58  1960.51
                             1968.88  1973.23  1981.96  1997.05  2011.72
                             2045.18  2080.49  2095.81  2172.31  2180.34
                             2187.43  2196.85  2208.15  2217.23  2221.33
                             2244.81  3254.45  4349.20  4366.21  4388.88
                             4394.06  4399.93  4401.56  4406.57  4415.00
                             4421.00  4453.25  4459.13  4465.22  4466.12
                             4467.36  4469.46  4482.44  4496.46  4500.35
                             4507.80

 Zero-point correction=                           0.301473 (Hartree/Particle)
 Thermal correction to Energy=                    0.315732
 Thermal correction to Enthalpy=                  0.316676
 Thermal correction to Gibbs Free Energy=         0.259241
 Sum of electronic and zero-point Energies=           -669.759261
 Sum of electronic and thermal Energies=              -669.745002
 Sum of electronic and thermal Enthalpies=            -669.744057
 Sum of electronic and thermal Free Energies=         -669.801493

                     E (Thermal)             CV                S
                      KCal/Mol        Cal/Mol-Kelvin    Cal/Mol-Kelvin
 Total                  198.125             55.052            120.883
 Electronic               0.000              0.000              0.000
 Translational            0.889              2.981             41.918
 Rotational               0.889              2.981             32.098
 Vibrational            196.348             49.090             46.868
 Vibration     1          0.593              1.984              5.875
 Vibration     2          0.595              1.978              4.893
 Vibration     3          0.598              1.969              4.174
 Vibration     4          0.598              1.968              4.109
 Vibration     5          0.602              1.954              3.604
 Vibration     6          0.608              1.935              3.137
 Vibration     7          0.642              1.826              2.048
 Vibration     8          0.646              1.813              1.971
 Vibration     9          0.664              1.758              1.712
 Vibration    10          0.671              1.737              1.628
 Vibration    11          0.680              1.709              1.529
 Vibration    12          0.691              1.678              1.429
 Vibration    13          0.723              1.587              1.194
 Vibration    14          0.745              1.527              1.066
 Vibration    15          0.789              1.410              0.867
 Vibration    16          0.819              1.337              0.764
 Vibration    17          0.838              1.290              0.705
 Vibration    18          0.855              1.250              0.658
 Vibration    19          0.876              1.204              0.608
 Vibration    20          0.928              1.091              0.500
 Vibration    21          0.935              1.077              0.488

                           ! Non-Optimized Parameters !
 Normal termination of Gaussian 16 at Thu Dec 10 15:04:56 2020.

 ----------------------------------------------------------------------
 # B3LYP/6-311++G(d,p) empiricaldispersion=gd3bj scf=xqc pop=npa geom=c
 heck
 ----------------------------------------------------------------------

 ---------------------------------------
 CID_150305033_JID_5002_Energie_neutraal
 ---------------------------------------
 Structure from the checkpoint file:  "JID_5002.chk"
 Charge =  0 Multiplicity = 1

 SCF Done:  E(RB3LYP) =  -670.243183350     A.U. after   15 cycles
 Normal termination of Gaussian 16 at Thu Dec 10 15:11:35 2020.

 ----------------------------------------------------------------------
 # B3LYP/6-311++G(d,p) empiricaldispersion=gd3bj scf=xqc pop=npa geom=c
 heck
 ----------------------------------------------------------------------

 -------------------------------------
 CID_150305033_JID_5002_Energie_kation
 -------------------------------------
 Structure from the checkpoint file:  "JID_5002.chk"
 Charge =  1 Multiplicity = 2

 SCF Done:  E(UB3LYP) =  -669.920235066     A.U. after   29 cycles
 Normal termination of Gaussian 16 at Thu Dec 10 15:33:18 2020.
 Gaussian 16:  ES64L-G16RevA.03 25-Dec-2016

 ----------------------------------------------------------------------
 # B3LYP/6-311++G(d,p) empiricaldispersion=gd3bj scf=xqc pop=npa geom=c
 heck
 ----------------------------------------------------------------------

 ------------------------------------
 CID_150305033_JID_5002_Energie_anion
 ------------------------------------
 Structure from the checkpoint file:  "JID_5002.chk"
 Charge = -1 Multiplicity = 2

                         Standard orientation:
 ---------------------------------------------------------------------
 Center     Atomic      Atomic             Coordinates (Angstroms)
 Number     Number       Type             X           Y           Z
 ---------------------------------------------------------------------
      1          6           0       -0.323808    0.959037    1.624384
      2          6           0       -1.208767   -0.200763    1.162271
      3          6           0       -2.715694    0.164919    1.029665
      4          6           0       -2.893386    1.382183    0.097319
      5          6           0       -2.488924    0.812300   -1.298226
      6          6           0       -2.226853   -0.685199   -1.004132
      7          6           0       -3.238022   -0.967096    0.123322
      8          6           0       -0.886128   -0.851834   -0.246253
      9          6           0        0.338674   -0.356982   -1.030749
     10          8           0        1.464951   -1.240136   -0.982960
     11          6           0        1.985225   -1.595783    0.283399
     12          6           0        3.329472   -0.917491    0.544095
     13          7           0        3.208456    0.537169    0.767839
     14          7           0        3.069925    1.233642   -0.242075
     15          7           0        2.938630    1.998805   -1.080267
     16          1           0        0.713188    0.651318    1.789439
     17          1           0       -0.703157    1.362520    2.570778
     18          1           0       -0.300229    1.784343    0.906149
     19          1           0       -1.129982   -0.989712    1.921936
     20          1           0       -3.211728    0.278770    1.998431
     21          1           0       -2.297490    2.248143    0.395180
     22          1           0       -3.941612    1.700635    0.100379
     23          1           0       -1.613960    1.316644   -1.720685
     24          1           0       -3.301062    0.924581   -2.024199
     25          1           0       -2.292837   -1.325565   -1.888943
     26          1           0       -4.281399   -0.827378   -0.181861
     27          1           0       -3.126680   -1.965905    0.560853
     28          1           0       -0.734554   -1.928853   -0.106336
     29          1           0        0.099967   -0.318417   -2.097845
     30          1           0        0.629179    0.657291   -0.736027
     31          1           0        1.288081   -1.368224    1.096611
     32          1           0        2.152318   -2.681835    0.281796
     33          1           0        3.772779   -1.318372    1.459834
     34          1           0        4.009752   -1.125949   -0.290849
 ---------------------------------------------------------------------

 SCF Done:  E(UB3LYP) =  -670.234537088     A.U. after   33 cycles
 SCF Done:  E(UB3LYP) =  -670.234537088     a.u. after    1 cycles

 The electronic state is 2-A.
 Alpha  occ. eigenvalues --  -19.02276 -14.35163 -14.25327 -14.24137 -10.11759
 Alpha  occ. eigenvalues --  -10.11240 -10.10750 -10.07465 -10.07204 -10.07096
 Alpha  occ. eigenvalues --  -10.07053 -10.06815 -10.06506 -10.06360 -10.05371
 Alpha  occ. eigenvalues --   -1.01847  -0.93340  -0.86071  -0.77732  -0.68126
 Alpha  occ. eigenvalues --   -0.66360  -0.64485  -0.61561  -0.58715  -0.55719
 Alpha  occ. eigenvalues --   -0.51892  -0.48745  -0.46021  -0.43352  -0.42043
 Alpha  occ. eigenvalues --   -0.41810  -0.40738  -0.39228  -0.38791  -0.37939
 Alpha  occ. eigenvalues --   -0.36073  -0.34668  -0.33521  -0.32706  -0.31806
 Alpha  occ. eigenvalues --   -0.31386  -0.29706  -0.28974  -0.27666  -0.27212
 Alpha  occ. eigenvalues --   -0.26491  -0.25402  -0.24829  -0.23924  -0.23380
 Alpha  occ. eigenvalues --   -0.21733  -0.21049  -0.19654  -0.19201  -0.19005
 Alpha  occ. eigenvalues --   -0.16216  -0.13710   0.04210
 Alpha virt. eigenvalues --    0.05913   0.07093   0.07525   0.08213   0.08682
 Alpha virt. eigenvalues --    0.09422   0.09638   0.10278   0.10426   0.10930
 Alpha virt. eigenvalues --    0.11342   0.11747   0.12145   0.12984   0.13502

  Beta  occ. eigenvalues --  -19.02270 -14.34964 -14.25072 -14.24181 -10.11737
  Beta  occ. eigenvalues --  -10.11238 -10.10676 -10.07460 -10.07194 -10.07091
  Beta  occ. eigenvalues --  -10.07044 -10.06806 -10.06493 -10.06343 -10.05354
  Beta  occ. eigenvalues --   -1.01468  -0.93325  -0.85888  -0.77709  -0.68057
  Beta  occ. eigenvalues --   -0.66322  -0.64440  -0.61528  -0.58648  -0.55651
  Beta  occ. eigenvalues --   -0.51818  -0.48706  -0.45982  -0.43271  -0.41961
  Beta  occ. eigenvalues --   -0.41751  -0.40490  -0.38899  -0.38610  -0.37728
  Beta  occ. eigenvalues --   -0.36009  -0.34564  -0.33058  -0.32632  -0.31750
  Beta  occ. eigenvalues --   -0.31316  -0.29515  -0.28939  -0.27613  -0.27173
  Beta  occ. eigenvalues --   -0.26460  -0.25381  -0.24800  -0.23898  -0.23354
  Beta  occ. eigenvalues --   -0.21690  -0.21025  -0.19628  -0.19088  -0.18718
  Beta  occ. eigenvalues --   -0.16119  -0.13645
  Beta virt. eigenvalues --    0.06380   0.07344   0.07929   0.08210   0.08975
  Beta virt. eigenvalues --    0.09104   0.09790   0.10078   0.10525   0.10716
  Beta virt. eigenvalues --    0.11256   0.11604   0.12124   0.12391   0.13267

 Mulliken charges and spin densities:
               1          2
     1  C   -0.111548  -0.615911
     2  C    0.142112  -0.193558
     3  C   -0.192281   0.571639
     4  C    0.431709  -1.020308
     5  C   -0.113385  -0.446296
     6  C   -1.027214   1.425060
     7  C    0.347946  -1.080535
     8  C    0.868804  -0.816754
     9  C   -0.471678  -0.350681
    10  O   -0.048254   0.011165
    11  C   -0.556646   0.528134
    12  C    1.204032  -1.801673
    13  N   -0.620569   0.372505
    14  N    0.375264  -0.011413
    15  N   -0.018525  -0.030851
    16  H   -0.058348   0.207777
    17  H   -0.027754   0.175189
    18  H    0.032546   0.125604
    19  H   -0.240122   0.456359
    20  H   -0.328521   0.554974
    21  H    0.135651  -0.010394
    22  H   -0.119899   0.278277
    23  H    0.141298  -0.004859
    24  H   -0.089087   0.250226
    25  H   -0.092010   0.315281
    26  H   -0.310256   0.477568
    27  H   -0.091651   0.232628
    28  H    0.205054   0.042914
    29  H    0.172446  -0.018216
    30  H    0.163623  -0.004293
    31  H    0.222471  -0.070723
    32  H   -0.502237   0.657727
    33  H   -0.498759   0.684196
    34  H    0.075785   0.109243
 Sum of Mulliken charges =  -1.00000   1.00000

 Dipole moment (field-independent basis, Debye):
    X=             -0.6363    Y=              0.9767    Z=             -2.2275  Tot=              2.5141
 Quadrupole moment (field-independent basis, Debye-Ang):
   XX=           -168.2039   YY=           -131.9301   ZZ=           -129.1604
   XY=              0.6139   XZ=             -1.6201   YZ=              5.0380

 Summary of Natural Population Analysis:

                                       Natural Population
                Natural  -----------------------------------------------
    Atom  No    Charge         Core      Valence    Rydberg      Total
 -----------------------------------------------------------------------
      C    1   -0.29451      0.99964     2.28801    0.00687     3.29451
      C    2   -0.10893      0.99958     2.09781    0.01154     3.10893
      C    3   -0.10679      0.99959     2.09497    0.01223     3.10679
      C    4   -0.19524      0.99963     2.18691    0.00870     3.19524
      C    5   -0.19602      0.99963     2.18800    0.00839     3.19602
      C    6   -0.10483      0.99959     2.09347    0.01177     3.10483
      C    7   -0.19025      0.99961     2.18132    0.00932     3.19025
      C    8   -0.12629      0.99956     2.11525    0.01147     3.12629
      C    9   -0.00677      0.99952     1.99617    0.01108     3.00677
      O   10   -0.30443      0.99989     3.29571    0.00883     4.30443
      C   11   -0.01860      0.99955     2.00541    0.01364     3.01860
      C   12   -0.09952      0.99959     2.08767    0.01227     3.09952
      N   13   -0.20133      0.99970     2.68724    0.01439     3.70133
      N   14    0.13039      0.99970     2.35410    0.01581     3.36961
      N   15   -0.02897      0.99982     2.51641    0.01275     3.52897
      H   16    0.10839      0.00000     0.39011    0.00150     0.39161
      H   17    0.10028      0.00000     0.39887    0.00085     0.39972
      H   18    0.09588      0.00000     0.40298    0.00113     0.40412
      H   19    0.09938      0.00000     0.39904    0.00158     0.40062
      H   20    0.10204      0.00000     0.39675    0.00121     0.39796
      H   21    0.09978      0.00000     0.39927    0.00095     0.40022
      H   22    0.09894      0.00000     0.39992    0.00114     0.40106
      H   23    0.09824      0.00000     0.40075    0.00101     0.40176
      H   24    0.09907      0.00000     0.39998    0.00095     0.40093
      H   25    0.10093      0.00000     0.39817    0.00090     0.39907
      H   26    0.09929      0.00000     0.39952    0.00119     0.40071
      H   27    0.10059      0.00000     0.39815    0.00127     0.39941
      H   28    0.10561      0.00000     0.39272    0.00167     0.39439
      H   29    0.09014      0.00000     0.40865    0.00121     0.40986
      H   30    0.08537      0.00000     0.41229    0.00234     0.41463
      H   31    0.08826      0.00000     0.40960    0.00215     0.41174
      H   32    0.08789      0.00000     0.41067    0.00144     0.41211
      H   33    0.10085      0.00000     0.39684    0.00231     0.39915
      H   34    0.09118      0.00000     0.40746    0.00135     0.40882
 =======================================================================
   * Total *    0.00000     14.99460    41.81019    0.19521    57.00000

 Normal termination of Gaussian 16 at Thu Dec 10 15:58:00 2020.
