 Gaussian 16, Revision A.03,

 -----------------------------------------------------------
 # opt freq B3LYP/6-31G(d) empiricaldispersion=gd3bj scf=xqc
 -----------------------------------------------------------

 -------------------------------
 CID_115920606_JID_5380_neutraal
 -------------------------------
 Symbolic Z-matrix:
 Charge =  0 Multiplicity = 1

 SCF Done:  E(RB3LYP) =  -641.677998180     A.U. after   13 cycles
 SCF Done:  E(RB3LYP) =  -641.680400756     A.U. after   11 cycles
 SCF Done:  E(RB3LYP) =  -641.675077347     A.U. after   11 cycles
 SCF Done:  E(RB3LYP) =  -641.679274962     A.U. after   11 cycles
 SCF Done:  E(RB3LYP) =  -641.681924933     A.U. after    9 cycles
 SCF Done:  E(RB3LYP) =  -641.680938410     A.U. after   11 cycles
 SCF Done:  E(RB3LYP) =  -641.682490771     A.U. after   10 cycles
 SCF Done:  E(RB3LYP) =  -641.682861471     A.U. after   11 cycles
 SCF Done:  E(RB3LYP) =  -641.682437296     A.U. after   10 cycles
 SCF Done:  E(RB3LYP) =  -641.682860314     A.U. after   10 cycles
 SCF Done:  E(RB3LYP) =  -641.683114896     A.U. after    9 cycles
 SCF Done:  E(RB3LYP) =  -641.683115299     A.U. after    8 cycles
 SCF Done:  E(RB3LYP) =  -641.683115283     A.U. after    6 cycles
 SCF Done:  E(RB3LYP) =  -641.683115961     A.U. after    8 cycles
 SCF Done:  E(RB3LYP) =  -641.683116428     A.U. after    8 cycles
 SCF Done:  E(RB3LYP) =  -641.683116428     A.U. after    6 cycles
 Optimization completed.
    -- Stationary point found.
 Normal termination of Gaussian 16 at Thu Dec 10 16:10:14 2020.

 --------------------------------------------------------------------
 #N Geom=AllCheck Guess=TCheck SCRF=Check GenChk RB3LYP/6-31G(d) Freq
 --------------------------------------------------------------------

 Structure from the checkpoint file:  "JID_5380.chk"
 -------------------------------
 CID_115920606_JID_5380_neutraal
 -------------------------------
 Charge =  0 Multiplicity = 1

 SCF Done:  E(RB3LYP) =  -641.683116428     A.U. after    1 cycles

  Exact polarizability: 161.636  -2.126 140.927   0.081   1.615 130.056
 Approx polarizability: 204.625  -3.560 199.065  -1.401   0.506 193.060

                      1                      2                      3
                      A                      A                      A
 Frequencies --     18.9103                51.3106                68.6062
 Red. masses --      3.0217                 3.3058                 3.0904
 Frc consts  --      0.0006                 0.0051                 0.0086
 IR Inten    --      0.1531                 1.0283                 0.4232

                      4                      5                      6
                      A                      A                      A
 Frequencies --     83.1227               106.4735               146.3301
 Red. masses --      2.7541                 4.0682                 3.4870
 Frc consts  --      0.0112                 0.0272                 0.0440
 IR Inten    --      1.2166                 4.3401                 0.1556

                      7                      8                      9
                      A                      A                      A
 Frequencies --    159.2172               193.8841               224.8713
 Red. masses --      3.0867                 2.4176                 1.8940
 Frc consts  --      0.0461                 0.0535                 0.0564
 IR Inten    --      0.3349                 0.2966                 1.2013

                     10                     11                     12
                      A                      A                      A
 Frequencies --    240.3379               247.9276               256.1115
 Red. masses --      1.5265                 1.4209                 1.4029
 Frc consts  --      0.0520                 0.0515                 0.0542
 IR Inten    --      0.8635                 0.1820                 0.4687

                     13                     14                     15
                      A                      A                      A
 Frequencies --    261.2115               277.3820               306.2147
 Red. masses --      1.9489                 1.7364                 1.6402
 Frc consts  --      0.0783                 0.0787                 0.0906
 IR Inten    --      0.9330                 1.3005                 0.5731

                     16                     17                     18
                      A                      A                      A
 Frequencies --    315.1463               337.2499               351.9628
 Red. masses --      1.9789                 2.4468                 2.4109
 Frc consts  --      0.1158                 0.1640                 0.1760
 IR Inten    --      0.3761                 0.5229                 1.3078

                     19                     20                     21
                      A                      A                      A
 Frequencies --    405.8518               423.5417               436.5202
 Red. masses --      2.2995                 1.8817                 2.7590
 Frc consts  --      0.2232                 0.1989                 0.3098
 IR Inten    --      0.7275                 0.7438                 0.5936

                     22                     23                     24
                      A                      A                      A
 Frequencies --    472.1702               500.8855               529.3989
 Red. masses --      2.4795                 2.1818                 2.1852
 Frc consts  --      0.3257                 0.3225                 0.3608
 IR Inten    --      5.7906                 2.6540                 0.9952

                     25                     26                     27
                      A                      A                      A
 Frequencies --    566.5477               587.4940               663.1550
 Red. masses --      2.1827                 2.2302                 2.6852
 Frc consts  --      0.4128                 0.4535                 0.6958
 IR Inten    --      0.7402                 0.5656                 0.1088

                     28                     29                     30
                      A                      A                      A
 Frequencies --    700.1842               746.2117               764.5878
 Red. masses --      2.1002                 2.3301                 1.7151
 Frc consts  --      0.6066                 0.7645                 0.5907
 IR Inten    --      6.5400                 3.6172                 3.3769

                     31                     32                     33
                      A                      A                      A
 Frequencies --    810.8147               833.1461               846.4907
 Red. masses --      1.3038                 1.7060                 2.3119
 Frc consts  --      0.5050                 0.6977                 0.9760
 IR Inten    --    112.4331                18.4192                 1.5348

                     34                     35                     36
                      A                      A                      A
 Frequencies --    864.9775               870.5362               892.2966
 Red. masses --      1.9527                 2.2165                 1.7566
 Frc consts  --      0.8608                 0.9897                 0.8240
 IR Inten    --      9.8890                10.6470                 1.5943

                     37                     38                     39
                      A                      A                      A
 Frequencies --    910.4546               925.6090               944.8783
 Red. masses --      2.6112                 1.6624                 1.5565
 Frc consts  --      1.2753                 0.8392                 0.8187
 IR Inten    --      0.6424                 7.2129                 0.8367

                     40                     41                     42
                      A                      A                      A
 Frequencies --    948.4437               954.4153               976.9832
 Red. masses --      1.8493                 1.9447                 1.5579
 Frc consts  --      0.9801                 1.0437                 0.8761
 IR Inten    --      5.5747                 0.5305                 0.0561

                     43                     44                     45
                      A                      A                      A
 Frequencies --    987.0411               995.2162              1017.2708
 Red. masses --      1.8888                 1.6303                 1.3487
 Frc consts  --      1.0842                 0.9513                 0.8223
 IR Inten    --      5.0426                 3.5103                 0.4689

                     46                     47                     48
                      A                      A                      A
 Frequencies --   1029.1001              1041.3209              1055.8896
 Red. masses --      1.3839                 2.1364                 1.9779
 Frc consts  --      0.8635                 1.3649                 1.2993
 IR Inten    --      0.3486                 1.3434                 4.7548

                     49                     50                     51
                      A                      A                      A
 Frequencies --   1076.0851              1078.7542              1111.1041
 Red. masses --      1.8680                 1.6563                 2.4951
 Frc consts  --      1.2744                 1.1356                 1.8149
 IR Inten    --      3.6910                 1.4552                 9.8273

                     52                     53                     54
                      A                      A                      A
 Frequencies --   1121.7251              1160.0015              1178.0904
 Red. masses --      2.1925                 2.3786                 2.1409
 Frc consts  --      1.6254                 1.8858                 1.7506
 IR Inten    --     49.4218                 7.0210                22.8071

                     55                     56                     57
                      A                      A                      A
 Frequencies --   1182.7695              1201.0097              1209.7179
 Red. masses --      1.5248                 1.7991                 1.8274
 Frc consts  --      1.2568                 1.5290                 1.5757
 IR Inten    --     27.0161                26.5972                26.1294

                     58                     59                     60
                      A                      A                      A
 Frequencies --   1210.6192              1248.8544              1256.1253
 Red. masses --      1.7170                 1.4521                 1.7248
 Frc consts  --      1.4826                 1.3344                 1.6035
 IR Inten    --      4.4676                 4.2793                15.0204

                     61                     62                     63
                      A                      A                      A
 Frequencies --   1273.9820              1285.4034              1305.8843
 Red. masses --      1.3152                 1.4144                 1.2298
 Frc consts  --      1.2577                 1.3769                 1.2356
 IR Inten    --      0.5317                 1.6483                 9.6507

                     64                     65                     66
                      A                      A                      A
 Frequencies --   1311.6777              1321.4733              1327.7257
 Red. masses --      1.4503                 1.3142                 1.3982
 Frc consts  --      1.4701                 1.3521                 1.4522
 IR Inten    --      3.9834                 1.6429                 4.9463

                     67                     68                     69
                      A                      A                      A
 Frequencies --   1346.5074              1362.8470              1364.4682
 Red. masses --      1.3120                 1.3837                 1.3450
 Frc consts  --      1.4016                 1.5142                 1.4753
 IR Inten    --      1.1353                 0.1691                 3.0431

                     70                     71                     72
                      A                      A                      A
 Frequencies --   1379.2053              1390.8749              1395.6454
 Red. masses --      1.2795                 1.4535                 1.3925
 Frc consts  --      1.4340                 1.6567                 1.5981
 IR Inten    --      1.1363                 0.7037                 2.7430

                     73                     74                     75
                      A                      A                      A
 Frequencies --   1410.1483              1415.1567              1420.7702
 Red. masses --      1.3395                 1.2871                 1.3383
 Frc consts  --      1.5694                 1.5187                 1.5917
 IR Inten    --      2.5983                17.5529                 0.4010

                     76                     77                     78
                      A                      A                      A
 Frequencies --   1429.8509              1446.9012              1447.9217
 Red. masses --      1.2600                 1.2512                 1.2292
 Frc consts  --      1.5178                 1.5433                 1.5184
 IR Inten    --      8.7539                13.1216                18.2688

                     79                     80                     81
                      A                      A                      A
 Frequencies --   1498.8298              1503.7164              1512.5519
 Red. masses --      1.1492                 1.0934                 1.0654
 Frc consts  --      1.5210                 1.4567                 1.4362
 IR Inten    --     11.2106                 6.2246                 1.2965

                     82                     83                     84
                      A                      A                      A
 Frequencies --   1516.5204              1520.7626              1521.7318
 Red. masses --      1.0741                 1.0746                 1.0797
 Frc consts  --      1.4555                 1.4642                 1.4730
 IR Inten    --      3.1848                 9.5542                 6.0013

                     85                     86                     87
                      A                      A                      A
 Frequencies --   1525.5253              1528.6853              1531.3516
 Red. masses --      1.0883                 1.0824                 1.0655
 Frc consts  --      1.4922                 1.4903                 1.4722
 IR Inten    --      4.3918                13.6258                 9.5387

                     88                     89                     90
                      A                      A                      A
 Frequencies --   1534.5122              1540.0843              1545.1258
 Red. masses --      1.0839                 1.0685                 1.1164
 Frc consts  --      1.5038                 1.4932                 1.5704
 IR Inten    --      6.4106                 4.6300                10.7875

                     91                     92                     93
                      A                      A                      A
 Frequencies --   1552.6843              1555.8913              1560.7372
 Red. masses --      1.1005                 1.0926                 1.0811
 Frc consts  --      1.5632                 1.5584                 1.5516
 IR Inten    --      3.6172                38.9692                 3.9820

                     94                     95                     96
                      A                      A                      A
 Frequencies --   2974.9935              3018.8478              3037.9236
 Red. masses --      1.0733                 1.0816                 1.0621
 Frc consts  --      5.5968                 5.8075                 5.7754
 IR Inten    --     85.8610                 8.2110                30.1622

                     97                     98                     99
                      A                      A                      A
 Frequencies --   3039.2852              3040.2202              3045.8827
 Red. masses --      1.0695                 1.0661                 1.0638
 Frc consts  --      5.8209                 5.8057                 5.8147
 IR Inten    --     17.8597                 8.0340                34.5253

                    100                    101                    102
                      A                      A                      A
 Frequencies --   3047.0846              3053.1178              3056.8830
 Red. masses --      1.0391                 1.0434                 1.0516
 Frc consts  --      5.6844                 5.7302                 5.7897
 IR Inten    --     19.0150                22.4509                20.4417

                    103                    104                    105
                      A                      A                      A
 Frequencies --   3061.2252              3062.9215              3065.7753
 Red. masses --      1.0663                 1.0803                 1.0720
 Frc consts  --      5.8872                 5.9712                 5.9362
 IR Inten    --     46.9515                31.5236                59.5758

                    106                    107                    108
                      A                      A                      A
 Frequencies --   3069.9511              3072.5675              3079.8133
 Red. masses --      1.0677                 1.0981                 1.1021
 Frc consts  --      5.9285                 6.1080                 6.1593
 IR Inten    --     37.2012                61.5526                35.4972

                    109                    110                    111
                      A                      A                      A
 Frequencies --   3098.6075              3101.4462              3107.3413
 Red. masses --      1.0917                 1.0980                 1.1038
 Frc consts  --      6.1754                 6.2228                 6.2796
 IR Inten    --     22.8164                41.0333                19.0877

                    112                    113                    114
                      A                      A                      A
 Frequencies --   3112.0351              3114.4193              3119.2987
 Red. masses --      1.0984                 1.1039                 1.1005
 Frc consts  --      6.2678                 6.3087                 6.3087
 IR Inten    --      7.0080               146.7002                30.9712

                    115                    116                    117
                      A                      A                      A
 Frequencies --   3127.6243              3132.5177              3138.4688
 Red. masses --      1.1015                 1.0956                 1.1026
 Frc consts  --      6.3486                 6.3344                 6.3987
 IR Inten    --     20.8780                26.5644                20.9179

                    118                    119                    120
                      A                      A                      A
 Frequencies --   3156.3599              3444.7898              3563.8704
 Red. masses --      1.1023                 1.0674                 1.0737
 Frc consts  --      6.4701                 7.4626                 8.0345
 IR Inten    --     16.3913               415.9650                 1.2055

 - Thermochemistry -
 -------------------
 Temperature   298.150 Kelvin.  Pressure   1.00000 Atm.
 Atom     1 has atomic number  6 and mass  12.00000

 Molecular mass:   213.20926 amu.
 Principal axes and moments of inertia in atomic units:
                           1         2         3
     Eigenvalues --  2071.466484908.669185298.85146
           X            0.99991  -0.01046   0.00869
           Y            0.01016   0.99936   0.03428
           Z           -0.00904  -0.03419   0.99937
 This molecule is an asymmetric top.
 Rotational symmetry number  1.
 Warning -- assumption of classical behavior for rotation
           may cause significant error
 Rotational temperatures (Kelvin)      0.04181     0.01765     0.01635
 Rotational constants (GHZ):           0.87124     0.36766     0.34059
 Zero-point vibrational energy    1034237.4 (Joules/Mol)
                                  247.18866 (Kcal/Mol)
 Warning -- explicit consideration of  26 degrees of freedom as
           vibrations may cause significant error
 Vibrational temperatures:     27.21    73.82    98.71   119.60   153.19
          (Kelvin)            210.54   229.08   278.96   323.54   345.79
                              356.71   368.49   375.83   399.09   440.57
                              453.43   485.23   506.40   583.93   609.38
                              628.06   679.35   720.66   761.69   815.14
                              845.27   954.13  1007.41  1073.63  1100.07
                             1166.58  1198.71  1217.91  1244.51  1252.51
                             1283.82  1309.94  1331.74  1359.47  1364.60
                             1373.19  1405.66  1420.13  1431.89  1463.63
                             1480.65  1498.23  1519.19  1548.25  1552.09
                             1598.63  1613.91  1668.98  1695.01  1701.74
                             1727.99  1740.51  1741.81  1796.82  1807.28
                             1832.98  1849.41  1878.88  1887.21  1901.31
                             1910.30  1937.32  1960.83  1963.17  1984.37
                             2001.16  2008.02  2028.89  2036.09  2044.17
                             2057.24  2081.77  2083.24  2156.48  2163.51
                             2176.22  2181.93  2188.04  2189.43  2194.89
                             2199.44  2203.27  2207.82  2215.84  2223.09
                             2233.97  2238.58  2245.55  4280.35  4343.45
                             4370.89  4372.85  4374.20  4382.35  4384.08
                             4392.76  4398.17  4404.42  4406.86  4410.97
                             4416.97  4420.74  4431.16  4458.21  4462.29
                             4470.77  4477.52  4480.95  4487.98  4499.95
                             4506.99  4515.56  4541.30  4956.28  5127.61

 Zero-point correction=                           0.393920 (Hartree/Particle)
 Thermal correction to Energy=                    0.410713
 Thermal correction to Enthalpy=                  0.411657
 Thermal correction to Gibbs Free Energy=         0.349780
 Sum of electronic and zero-point Energies=           -641.289196
 Sum of electronic and thermal Energies=              -641.272404
 Sum of electronic and thermal Enthalpies=            -641.271459
 Sum of electronic and thermal Free Energies=         -641.333336

                     E (Thermal)             CV                S
                      KCal/Mol        Cal/Mol-Kelvin    Cal/Mol-Kelvin
 Total                  257.726             65.964            130.231
 Electronic               0.000              0.000              0.000
 Translational            0.889              2.981             41.975
 Rotational               0.889              2.981             32.355
 Vibrational            255.949             60.003             55.901
 Vibration     1          0.593              1.986              6.745
 Vibration     2          0.596              1.977              4.766
 Vibration     3          0.598              1.969              4.193
 Vibration     4          0.600              1.961              3.816
 Vibration     5          0.605              1.944              3.332
 Vibration     6          0.617              1.907              2.719
 Vibration     7          0.621              1.892              2.559
 Vibration     8          0.635              1.848              2.190
 Vibration     9          0.650              1.803              1.920
 Vibration    10          0.657              1.779              1.800
 Vibration    11          0.662              1.766              1.745
 Vibration    12          0.666              1.752              1.688
 Vibration    13          0.669              1.744              1.654
 Vibration    14          0.678              1.715              1.550
 Vibration    15          0.697              1.662              1.383
 Vibration    16          0.703              1.645              1.335
 Vibration    17          0.718              1.601              1.225
 Vibration    18          0.729              1.571              1.157
 Vibration    19          0.771              1.457              0.941
 Vibration    20          0.786              1.419              0.880
 Vibration    21          0.797              1.391              0.838
 Vibration    22          0.829              1.312              0.731
 Vibration    23          0.856              1.248              0.656
 Vibration    24          0.884              1.185              0.589
 Vibration    25          0.922              1.104              0.511
 Vibration    26          0.945              1.058              0.472

 Optimization completed.
    -- Stationary point found.
 Normal termination of Gaussian 16 at Thu Dec 10 16:27:47 2020.

 ----------------------------------------------------------------------
 # B3LYP/6-311++G(d,p) empiricaldispersion=gd3bj scf=xqc pop=npa geom=c
 heck
 ----------------------------------------------------------------------

 ---------------------------------------
 CID_115920606_JID_5380_Energie_neutraal
 ---------------------------------------
 Structure from the checkpoint file:  "JID_5380.chk"
 Charge =  0 Multiplicity = 1

 SCF Done:  E(RB3LYP) =  -641.872046971     A.U. after   13 cycles
 Normal termination of Gaussian 16 at Thu Dec 10 16:37:41 2020.

 ----------------------------------------------------------------------
 # B3LYP/6-311++G(d,p) empiricaldispersion=gd3bj scf=xqc pop=npa geom=c
 heck
 ----------------------------------------------------------------------

 -------------------------------------
 CID_115920606_JID_5380_Energie_kation
 -------------------------------------
 Structure from the checkpoint file:  "JID_5380.chk"
 Charge =  1 Multiplicity = 2

 SCF Done:  E(UB3LYP) =  -641.571073975     A.U. after   22 cycles
 Normal termination of Gaussian 16 at Thu Dec 10 16:59:46 2020.
 Gaussian 16:  ES64L-G16RevA.03 25-Dec-2016

 ----------------------------------------------------------------------
 # B3LYP/6-311++G(d,p) empiricaldispersion=gd3bj scf=xqc pop=npa geom=c
 heck
 ----------------------------------------------------------------------

 ------------------------------------
 CID_115920606_JID_5380_Energie_anion
 ------------------------------------
 Structure from the checkpoint file:  "JID_5380.chk"
 Charge = -1 Multiplicity = 2

                         Standard orientation:
 ---------------------------------------------------------------------
 Center     Atomic      Atomic             Coordinates (Angstroms)
 Number     Number       Type             X           Y           Z
 ---------------------------------------------------------------------
      1          6           0        0.236410    2.478218    0.469070
      2          6           0        0.179380    1.031023    0.983490
      3          6           0       -1.176168    0.682106    1.647734
      4          6           0       -2.384936    0.294042    0.763925
      5          6           0       -2.600263    1.039010   -0.572389
      6          6           0       -3.605828    0.146735   -1.311029
      7          6           0       -3.058519   -1.269843   -1.055812
      8          6           0       -2.479848   -1.219623    0.382015
      9          7           0        0.606933    0.086916   -0.077099
     10          6           0        1.626050   -0.948986    0.257954
     11          6           0        1.340431   -1.696314    1.575791
     12          6           0        1.593861   -1.960830   -0.897300
     13          6           0        3.010713   -0.263527    0.355606
     14          6           0        3.520082    0.368045   -0.945045
     15          8           0        2.651377    1.356099   -1.467953
     16          1           0       -0.483393    2.660131   -0.333015
     17          1           0        1.234905    2.689937    0.077975
     18          1           0        0.018359    3.180673    1.282205
     19          1           0        0.928313    0.970913    1.780603
     20          1           0       -1.020491   -0.137826    2.360619
     21          1           0       -1.454717    1.552882    2.254624
     22          1           0       -3.273715    0.508415    1.372199
     23          1           0       -2.945183    2.068705   -0.429946
     24          1           0       -1.673326    1.086309   -1.155426
     25          1           0       -3.697596    0.385272   -2.375779
     26          1           0       -4.601878    0.254847   -0.861457
     27          1           0       -2.258629   -1.482524   -1.777182
     28          1           0       -3.814581   -2.050987   -1.182678
     29          1           0       -1.508162   -1.719298    0.437006
     30          1           0       -3.126376   -1.744809    1.093217
     31          1           0       -0.203476   -0.373169   -0.475983
     32          1           0        0.354634   -2.172581    1.553984
     33          1           0        2.089194   -2.479848    1.737905
     34          1           0        1.375511   -1.025608    2.440281
     35          1           0        1.690503   -1.460446   -1.865186
     36          1           0        2.405816   -2.688859   -0.801371
     37          1           0        0.646934   -2.515113   -0.894654
     38          1           0        2.967935    0.508289    1.134930
     39          1           0        3.744000   -1.007693    0.693739
     40          1           0        4.487894    0.848705   -0.755566
     41          1           0        3.706141   -0.426841   -1.687665
     42          1           0        1.743658    1.032983   -1.264123
 ---------------------------------------------------------------------

 SCF Done:  E(UB3LYP) =  -641.859587764     A.U. after   26 cycles

 The electronic state is 2-A.
 Alpha  occ. eigenvalues --  -19.00251 -14.20895 -10.12115 -10.11398 -10.10637
 Alpha  occ. eigenvalues --  -10.07564 -10.07208 -10.06884 -10.06876 -10.06872
 Alpha  occ. eigenvalues --  -10.06861 -10.06743 -10.06538 -10.06335 -10.05682
 Alpha  occ. eigenvalues --   -0.90992  -0.82191  -0.74415  -0.70940  -0.66089
 Alpha  occ. eigenvalues --   -0.63298  -0.62140  -0.61304  -0.59949  -0.56732
 Alpha  occ. eigenvalues --   -0.53659  -0.49662  -0.47783  -0.46103  -0.45366
 Alpha  occ. eigenvalues --   -0.40173  -0.39799  -0.38726  -0.38125  -0.36078
 Alpha  occ. eigenvalues --   -0.35388  -0.34740  -0.33749  -0.32954  -0.32306
 Alpha  occ. eigenvalues --   -0.31635  -0.30763  -0.30387  -0.29772  -0.29013
 Alpha  occ. eigenvalues --   -0.27529  -0.27231  -0.26619  -0.25709  -0.24893
 Alpha  occ. eigenvalues --   -0.24499  -0.24209  -0.23767  -0.23346  -0.22805
 Alpha  occ. eigenvalues --   -0.22093  -0.21320  -0.20355  -0.16592  -0.13859
 Alpha  occ. eigenvalues --    0.04158
 Alpha virt. eigenvalues --    0.06014   0.06740   0.07440   0.08066   0.08311
 Alpha virt. eigenvalues --    0.08504   0.09468   0.09649   0.10464   0.10645
 Alpha virt. eigenvalues --    0.10992   0.11300   0.11364   0.12452   0.12741

  Beta  occ. eigenvalues --  -19.00249 -14.20885 -10.12112 -10.11390 -10.10631
  Beta  occ. eigenvalues --  -10.07552 -10.07190 -10.06867 -10.06861 -10.06844
  Beta  occ. eigenvalues --  -10.06844 -10.06730 -10.06516 -10.06304 -10.05673
  Beta  occ. eigenvalues --   -0.90985  -0.82174  -0.74386  -0.70918  -0.66058
  Beta  occ. eigenvalues --   -0.63267  -0.62108  -0.61263  -0.59899  -0.56694
  Beta  occ. eigenvalues --   -0.53623  -0.49628  -0.47725  -0.46061  -0.45321
  Beta  occ. eigenvalues --   -0.40142  -0.39774  -0.38677  -0.38103  -0.36051
  Beta  occ. eigenvalues --   -0.35357  -0.34711  -0.33713  -0.32934  -0.32279
  Beta  occ. eigenvalues --   -0.31609  -0.30732  -0.30365  -0.29745  -0.28983
  Beta  occ. eigenvalues --   -0.27505  -0.27206  -0.26600  -0.25681  -0.24865
  Beta  occ. eigenvalues --   -0.24466  -0.24175  -0.23741  -0.23322  -0.22776
  Beta  occ. eigenvalues --   -0.22063  -0.21294  -0.20323  -0.16582  -0.13843
  Beta virt. eigenvalues --    0.06256   0.06915   0.07266   0.07945   0.08466
  Beta virt. eigenvalues --    0.08751   0.08946   0.09788   0.09936   0.10823
  Beta virt. eigenvalues --    0.10919   0.11228   0.11655   0.11713   0.12671

 Mulliken charges and spin densities:
               1          2
     1  C    0.064286  -0.758547
     2  C   -0.226539   0.370066
     3  C    0.136362  -0.690310
     4  C   -0.057384   0.173996
     5  C    0.068030  -0.203386
     6  C   -0.381987  -0.253230
     7  C    0.299436  -0.612645
     8  C   -0.057517  -0.259246
     9  N   -0.002270  -0.066543
    10  C   -0.804682   0.720808
    11  C    0.492507  -0.997889
    12  C    0.085684  -0.660107
    13  C   -0.040593   0.017392
    14  C    0.024948  -0.639441
    15  O   -0.277946   0.007393
    16  H    0.196894  -0.057665
    17  H    0.189288  -0.025476
    18  H   -0.048460   0.162674
    19  H    0.116585   0.060258
    20  H    0.120324   0.037444
    21  H   -0.263977   0.435944
    22  H   -0.247540   0.468564
    23  H   -0.149927   0.325316
    24  H   -0.005391   0.135137
    25  H   -0.075319   0.237725
    26  H    0.023806   0.113970
    27  H    0.015882   0.093819
    28  H   -0.272282   0.443864
    29  H    0.471824  -0.378408
    30  H   -0.437581   0.624873
    31  H    1.113587  -0.815159
    32  H   -0.341082   0.497603
    33  H   -0.294301   0.458517
    34  H   -0.182660   0.354175
    35  H    0.059728   0.111854
    36  H   -0.277701   0.449025
    37  H   -0.113326   0.284276
    38  H    0.004400   0.148939
    39  H   -0.243687   0.407831
    40  H    0.053953   0.108958
    41  H    0.072219   0.053013
    42  H    0.192407   0.114617
 Sum of Mulliken charges =  -1.00000   1.00000

 Dipole moment (field-independent basis, Debye):
    X=              1.6850    Y=              2.1775    Z=             -1.7002  Tot=              3.2360
 Quadrupole moment (field-independent basis, Debye-Ang):
   XX=           -176.8077   YY=           -149.5816   ZZ=           -140.6573
   XY=              1.1784   XZ=              4.6187   YZ=              4.7293

 Summary of Natural Population Analysis:

                                       Natural Population
                Natural  -----------------------------------------------
    Atom  No    Charge         Core      Valence    Rydberg      Total
 -----------------------------------------------------------------------
      C    1   -0.29025      0.99963     2.28464    0.00597     3.29025
      C    2   -0.01253      0.99959     2.00038    0.01256     3.01253
      C    3   -0.19042      0.99958     2.18058    0.01026     3.19042
      C    4   -0.11528      0.99959     2.10327    0.01241     3.11528
      C    5   -0.19308      0.99961     2.18532    0.00815     3.19308
      C    6   -0.18926      0.99964     2.18203    0.00760     3.18926
      C    7   -0.19200      0.99964     2.18462    0.00774     3.19200
      C    8   -0.19417      0.99962     2.18610    0.00845     3.19417
      N    9   -0.37459      0.99971     2.86193    0.01295     3.87459
      C   10    0.06250      0.99957     1.92300    0.01493     2.93750
      C   11   -0.29392      0.99961     2.28699    0.00732     3.29392
      C   12   -0.29194      0.99961     2.28469    0.00764     3.29194
      C   13   -0.20795      0.99957     2.19811    0.01027     3.20795
      C   14   -0.00869      0.99960     1.99613    0.01296     3.00869
      O   15   -0.39064      0.99990     3.38395    0.00679     4.39064
      H   16    0.09775      0.00000     0.40122    0.00103     0.40225
      H   17    0.10836      0.00000     0.39040    0.00124     0.39164
      H   18    0.09591      0.00000     0.40333    0.00077     0.40409
      H   19    0.09448      0.00000     0.40356    0.00196     0.40552
      H   20    0.10121      0.00000     0.39743    0.00137     0.39879
      H   21    0.10075      0.00000     0.39805    0.00120     0.39925
      H   22    0.10087      0.00000     0.39724    0.00189     0.39913
      H   23    0.10190      0.00000     0.39719    0.00091     0.39810
      H   24    0.09322      0.00000     0.40502    0.00176     0.40678
      H   25    0.09712      0.00000     0.40210    0.00078     0.40288
      H   26    0.09490      0.00000     0.40372    0.00138     0.40510
      H   27    0.09183      0.00000     0.40664    0.00153     0.40817
      H   28    0.10102      0.00000     0.39792    0.00106     0.39898
      H   29    0.09460      0.00000     0.40351    0.00189     0.40540
      H   30    0.10249      0.00000     0.39590    0.00161     0.39751
      H   31    0.18679      0.00000     0.30851    0.00470     0.31321
      H   32    0.10158      0.00000     0.39709    0.00133     0.39842
      H   33    0.10455      0.00000     0.39417    0.00128     0.39545
      H   34    0.10077      0.00000     0.39807    0.00116     0.39923
      H   35    0.10320      0.00000     0.39567    0.00113     0.39680
      H   36    0.10546      0.00000     0.39349    0.00105     0.39454
      H   37    0.10122      0.00000     0.39758    0.00120     0.39878
      H   38    0.09912      0.00000     0.39966    0.00122     0.40088
      H   39    0.10436      0.00000     0.39438    0.00126     0.39564
      H   40    0.08156      0.00000     0.41731    0.00113     0.41844
      H   41    0.07207      0.00000     0.42654    0.00139     0.42793
      H   42    0.24515      0.00000     0.25122    0.00362     0.25485
 =======================================================================
   * Total *   -0.00000     14.99448    44.81865    0.18687    60.00000

 Normal termination of Gaussian 16 at Thu Dec 10 17:27:29 2020.
