 Gaussian 16, Revision A.03,

 -----------------------------------------------------------
 # opt freq B3LYP/6-31G(d) empiricaldispersion=gd3bj scf=xqc
 -----------------------------------------------------------

 ------------------------------
 CID_62652710_JID_7232_neutraal
 ------------------------------
 Symbolic Z-matrix:
 Charge =  0 Multiplicity = 1

 SCF Done:  E(RB3LYP) =  -1122.50248936     A.U. after   15 cycles
 SCF Done:  E(RB3LYP) =  -1122.50688365     A.U. after   13 cycles
 SCF Done:  E(RB3LYP) =  -1122.50794549     A.U. after   12 cycles
 SCF Done:  E(RB3LYP) =  -1122.50854549     A.U. after   12 cycles
 SCF Done:  E(RB3LYP) =  -1122.50840343     A.U. after   13 cycles
 SCF Done:  E(RB3LYP) =  -1122.50893608     A.U. after   12 cycles
 SCF Done:  E(RB3LYP) =  -1122.50906911     A.U. after   11 cycles
 SCF Done:  E(RB3LYP) =  -1122.50913355     A.U. after   12 cycles
 SCF Done:  E(RB3LYP) =  -1122.50920107     A.U. after   10 cycles
 SCF Done:  E(RB3LYP) =  -1122.50931156     A.U. after   12 cycles
 SCF Done:  E(RB3LYP) =  -1122.50939698     A.U. after    8 cycles
 SCF Done:  E(RB3LYP) =  -1122.50939708     A.U. after    8 cycles
 SCF Done:  E(RB3LYP) =  -1122.50939714     A.U. after    8 cycles
 SCF Done:  E(RB3LYP) =  -1122.50939717     A.U. after    7 cycles
 Optimization completed.
    -- Stationary point found.
 Normal termination of Gaussian 16 at Sun Dec 13 16:22:18 2020.

 --------------------------------------------------------------------
 #N Geom=AllCheck Guess=TCheck SCRF=Check GenChk RB3LYP/6-31G(d) Freq
 --------------------------------------------------------------------

 Structure from the checkpoint file:  "JID_7232.chk"
 ------------------------------
 CID_62652710_JID_7232_neutraal
 ------------------------------
 Charge =  0 Multiplicity = 1

 SCF Done:  E(RB3LYP) =  -1122.50939717     A.U. after    1 cycles

  Exact polarizability: 200.836  -4.242 159.928  -6.997 -12.019 117.841
 Approx polarizability: 252.313  -6.577 283.471 -11.687 -34.657 186.404

                      1                      2                      3
                      A                      A                      A
 Frequencies --     15.9678                28.8181                36.0453
 Red. masses --      4.1654                 7.3422                 3.7120
 Frc consts  --      0.0006                 0.0036                 0.0028
 IR Inten    --      1.5538                 5.7597                 1.4382

                      4                      5                      6
                      A                      A                      A
 Frequencies --     59.8481                64.8867                90.5345
 Red. masses --      1.1212                 4.1033                 5.2695
 Frc consts  --      0.0024                 0.0102                 0.0254
 IR Inten    --      0.1836                 2.5643                 5.8211

                      7                      8                      9
                      A                      A                      A
 Frequencies --     99.2564               112.4448               124.4454
 Red. masses --      5.1901                 2.5898                 1.1026
 Frc consts  --      0.0301                 0.0193                 0.0101
 IR Inten    --      1.0851                 0.4856                 0.1246

                     10                     11                     12
                      A                      A                      A
 Frequencies --    141.8880               149.8714               187.3064
 Red. masses --      2.7499                 2.6572                 3.9285
 Frc consts  --      0.0326                 0.0352                 0.0812
 IR Inten    --      0.1854                 0.7116                 2.7020

                     13                     14                     15
                      A                      A                      A
 Frequencies --    222.2496               240.6401               257.6122
 Red. masses --      2.8693                 1.7005                 3.0073
 Frc consts  --      0.0835                 0.0580                 0.1176
 IR Inten    --      4.4544                 0.5788                 2.8614

                     16                     17                     18
                      A                      A                      A
 Frequencies --    266.0080               281.5072               301.5636
 Red. masses --      4.0461                 2.6086                 3.7980
 Frc consts  --      0.1687                 0.1218                 0.2035
 IR Inten    --      7.6618                 0.8223                 3.9720

                     19                     20                     21
                      A                      A                      A
 Frequencies --    351.8507               373.3597               395.5554
 Red. masses --      1.1897                 4.3484                 2.7250
 Frc consts  --      0.0868                 0.3571                 0.2512
 IR Inten    --    210.7595                 2.2584                 1.4139

                     22                     23                     24
                      A                      A                      A
 Frequencies --    427.2148               438.8908               467.8499
 Red. masses --      3.7251                 3.2154                 4.3574
 Frc consts  --      0.4006                 0.3649                 0.5619
 IR Inten    --      0.2722                 1.0821                 6.3007

                     25                     26                     27
                      A                      A                      A
 Frequencies --    487.4538               571.4104               629.0139
 Red. masses --      2.6977                 4.3217                 3.9743
 Frc consts  --      0.3777                 0.8314                 0.9265
 IR Inten    --      2.2819                10.3743                30.4534

                     28                     29                     30
                      A                      A                      A
 Frequencies --    646.8202               649.4533               663.3165
 Red. masses --      1.3400                 3.6970                 3.8610
 Frc consts  --      0.3303                 0.9187                 1.0009
 IR Inten    --     15.8071                 8.2785                 6.4719

                     31                     32                     33
                      A                      A                      A
 Frequencies --    675.4296               701.4662               744.9808
 Red. masses --      3.3526                 4.3374                 3.2028
 Frc consts  --      0.9011                 1.2574                 1.0473
 IR Inten    --      1.1045                21.7649                22.8876

                     34                     35                     36
                      A                      A                      A
 Frequencies --    764.6591               777.0969               803.9322
 Red. masses --      2.4735                 3.3186                 2.1878
 Frc consts  --      0.8521                 1.1807                 0.8331
 IR Inten    --     15.4624                28.5050                12.0143

                     37                     38                     39
                      A                      A                      A
 Frequencies --    815.8572               867.9703               875.1077
 Red. masses --      1.7422                 1.9136                 1.3181
 Frc consts  --      0.6833                 0.8494                 0.5947
 IR Inten    --     82.8616                14.2821                10.6529

                     40                     41                     42
                      A                      A                      A
 Frequencies --    941.6877               967.1132               969.9578
 Red. masses --      1.8816                 1.8929                 2.3154
 Frc consts  --      0.9831                 1.0431                 1.2835
 IR Inten    --     22.4999                21.8483                 9.7493

                     43                     44                     45
                      A                      A                      A
 Frequencies --   1013.2957              1043.7723              1057.1931
 Red. masses --      1.8444                 1.8049                 2.6531
 Frc consts  --      1.1158                 1.1586                 1.7471
 IR Inten    --      4.3628                 7.0803                 6.3539

                     46                     47                     48
                      A                      A                      A
 Frequencies --   1080.1217              1102.8879              1119.7620
 Red. masses --      1.4665                 2.3518                 1.5252
 Frc consts  --      1.0081                 1.6854                 1.1267
 IR Inten    --      0.7282                20.0568                 0.9098

                     49                     50                     51
                      A                      A                      A
 Frequencies --   1130.2479              1158.6331              1171.3730
 Red. masses --      2.1950                 1.3038                 2.9233
 Frc consts  --      1.6521                 1.0312                 2.3633
 IR Inten    --      1.6076                 0.7216                12.7351

                     52                     53                     54
                      A                      A                      A
 Frequencies --   1210.1131              1221.7575              1255.7249
 Red. masses --      1.6458                 2.8130                 1.5236
 Frc consts  --      1.4200                 2.4739                 1.4155
 IR Inten    --      3.7511                11.1275                81.9386

                     55                     56                     57
                      A                      A                      A
 Frequencies --   1278.5477              1319.0515              1323.6248
 Red. masses --      1.5135                 3.2951                 1.6397
 Frc consts  --      1.4577                 3.3779                 1.6926
 IR Inten    --     27.0767                69.4810                25.1909

                     58                     59                     60
                      A                      A                      A
 Frequencies --   1335.0239              1349.4613              1366.1565
 Red. masses --      1.9831                 3.6269                 1.2603
 Frc consts  --      2.0824                 3.8914                 1.3858
 IR Inten    --     69.2945                63.0732                10.2986

                     61                     62                     63
                      A                      A                      A
 Frequencies --   1390.2873              1414.0842              1425.5116
 Red. masses --      1.5219                 1.4541                 2.1889
 Frc consts  --      1.7332                 1.7131                 2.6207
 IR Inten    --     18.7580                 3.2525                75.9313

                     64                     65                     66
                      A                      A                      A
 Frequencies --   1436.3719              1439.2468              1442.1445
 Red. masses --      1.7725                 2.3592                 1.5022
 Frc consts  --      2.1546                 2.8793                 1.8407
 IR Inten    --     75.8535               147.2937                35.6261

                     67                     68                     69
                      A                      A                      A
 Frequencies --   1447.7258              1476.4175              1501.4955
 Red. masses --      2.3191                 1.4549                 1.4083
 Frc consts  --      2.8638                 1.8685                 1.8706
 IR Inten    --     22.8914                11.2124               111.6796

                     70                     71                     72
                      A                      A                      A
 Frequencies --   1504.8216              1510.7406              1512.9065
 Red. masses --      1.2129                 1.1458                 1.2015
 Frc consts  --      1.6182                 1.5408                 1.6203
 IR Inten    --     13.7650                34.1498                14.2228

                     73                     74                     75
                      A                      A                      A
 Frequencies --   1519.8125              1522.1254              1528.2684
 Red. masses --      1.0784                 1.5052                 1.0570
 Frc consts  --      1.4676                 2.0547                 1.4546
 IR Inten    --      3.2174                 5.3163                16.1123

                     76                     77                     78
                      A                      A                      A
 Frequencies --   1531.2508              1536.9904              1542.8368
 Red. masses --      1.0628                 1.0551                 1.6493
 Frc consts  --      1.4682                 1.4686                 2.3130
 IR Inten    --      4.4030                 2.4283                28.9761

                     79                     80                     81
                      A                      A                      A
 Frequencies --   1608.7248              1667.1037              1748.6170
 Red. masses --      5.3254                 1.2636                 7.7513
 Frc consts  --      8.1202                 2.0691                13.9641
 IR Inten    --    118.1515               187.3838               329.9236

                     82                     83                     84
                      A                      A                      A
 Frequencies --   3041.6560              3047.6557              3058.1789
 Red. masses --      1.0418                 1.0390                 1.0606
 Frc consts  --      5.6786                 5.6859                 5.8445
 IR Inten    --     26.7136                13.2143                42.4012

                     85                     86                     87
                      A                      A                      A
 Frequencies --   3059.1097              3061.0583              3089.9600
 Red. masses --      1.0629                 1.0365                 1.1011
 Frc consts  --      5.8607                 5.7224                 6.1940
 IR Inten    --      2.4056                49.9595                 5.8277

                     88                     89                     90
                      A                      A                      A
 Frequencies --   3090.0378              3113.8069              3118.9341
 Red. masses --      1.1007                 1.0974                 1.0987
 Frc consts  --      6.1925                 6.2690                 6.2972
 IR Inten    --     11.8113                27.5858                17.5168

                     91                     92                     93
                      A                      A                      A
 Frequencies --   3120.1094              3122.3338              3124.5376
 Red. masses --      1.1050                 1.1000                 1.0898
 Frc consts  --      6.3382                 6.3186                 6.2686
 IR Inten    --     18.7115                27.6892                43.2545

                     94                     95                     96
                      A                      A                      A
 Frequencies --   3179.5994              3189.5947              3257.5395
 Red. masses --      1.0964                 1.1005                 1.0956
 Frc consts  --      6.5308                 6.5968                 6.8501
 IR Inten    --      0.1931                 1.9912                 6.5606

                     97                     98                     99
                      A                      A                      A
 Frequencies --   3494.0894              3566.6859              3691.9309
 Red. masses --      1.0756                 1.0448                 1.1052
 Frc consts  --      7.7371                 7.8308                 8.8759
 IR Inten    --    167.7832                51.3194                34.3377

 - Thermochemistry -
 -------------------
 Temperature   298.150 Kelvin.  Pressure   1.00000 Atm.
 Atom     1 has atomic number  6 and mass  12.00000

 Molecular mass:   254.12013 amu.
 Principal axes and moments of inertia in atomic units:
                           1         2         3
     Eigenvalues --  2097.455518671.282459544.48941
           X            0.99986   0.01545  -0.00667
           Y           -0.01538   0.99983   0.01045
           Z            0.00683  -0.01035   0.99992
 This molecule is an asymmetric top.
 Rotational symmetry number  1.
 Warning -- assumption of classical behavior for rotation
           may cause significant error
 Rotational temperatures (Kelvin)      0.04129     0.00999     0.00907
 Rotational constants (GHZ):           0.86044     0.20813     0.18909
 Zero-point vibrational energy     773741.0 (Joules/Mol)
                                  184.92853 (Kcal/Mol)
 Warning -- explicit consideration of  26 degrees of freedom as
           vibrations may cause significant error
 Vibrational temperatures:     22.97    41.46    51.86    86.11    93.36
          (Kelvin)            130.26   142.81   161.78   179.05   204.15
                              215.63   269.49   319.77   346.23   370.65
                              382.73   405.03   433.88   506.23   537.18
                              569.12   614.67   631.47   673.13   701.34
                              822.13   905.01   930.63   934.42   954.36
                              971.79  1009.25  1071.86  1100.17  1118.07
                             1156.68  1173.84  1248.82  1259.08  1354.88
                             1391.46  1395.55  1457.91  1501.76  1521.07
                             1554.05  1586.81  1611.09  1626.17  1667.01
                             1685.34  1741.08  1757.84  1806.71  1839.55
                             1897.82  1904.40  1920.80  1941.57  1965.59
                             2000.31  2034.55  2050.99  2066.62  2070.76
                             2074.92  2082.95  2124.24  2160.32  2165.10
                             2173.62  2176.74  2186.67  2190.00  2198.84
                             2203.13  2211.39  2219.80  2314.60  2398.59
                             2515.87  4376.26  4384.90  4400.04  4401.38
                             4404.18  4445.76  4445.88  4480.07  4487.45
                             4489.14  4492.34  4495.51  4574.73  4589.12
                             4686.87  5027.22  5131.67  5311.87

 Zero-point correction=                           0.294702 (Hartree/Particle)
 Thermal correction to Energy=                    0.313521
 Thermal correction to Enthalpy=                  0.314465
 Thermal correction to Gibbs Free Energy=         0.245040
 Sum of electronic and zero-point Energies=          -1122.214695
 Sum of electronic and thermal Energies=             -1122.195876
 Sum of electronic and thermal Enthalpies=           -1122.194932
 Sum of electronic and thermal Free Energies=        -1122.264357

                     E (Thermal)             CV                S
                      KCal/Mol        Cal/Mol-Kelvin    Cal/Mol-Kelvin
 Total                  196.737             67.537            146.117
 Electronic               0.000              0.000              0.000
 Translational            0.889              2.981             42.498
 Rotational               0.889              2.981             33.517
 Vibrational            194.960             61.576             70.102
 Vibration     1          0.593              1.986              7.081
 Vibration     2          0.593              1.984              5.909
 Vibration     3          0.594              1.982              5.465
 Vibration     4          0.597              1.973              4.462
 Vibration     5          0.597              1.971              4.303
 Vibration     6          0.602              1.956              3.648
 Vibration     7          0.604              1.950              3.469
 Vibration     8          0.607              1.939              3.226
 Vibration     9          0.610              1.929              3.030
 Vibration    10          0.615              1.911              2.778
 Vibration    11          0.618              1.903              2.674
 Vibration    12          0.632              1.857              2.254
 Vibration    13          0.648              1.807              1.941
 Vibration    14          0.658              1.778              1.798
 Vibration    15          0.667              1.750              1.678
 Vibration    16          0.672              1.735              1.622
 Vibration    17          0.681              1.708              1.524
 Vibration    18          0.694              1.671              1.408
 Vibration    19          0.728              1.571              1.158
 Vibration    20          0.745              1.527              1.066
 Vibration    21          0.762              1.480              0.979
 Vibration    22          0.789              1.411              0.868
 Vibration    23          0.799              1.385              0.830
 Vibration    24          0.825              1.321              0.744
 Vibration    25          0.843              1.278              0.690
 Vibration    26          0.928              1.093              0.502

 Optimization completed.
    -- Stationary point found.
 Normal termination of Gaussian 16 at Sun Dec 13 16:34:56 2020.

 ----------------------------------------------------------------------
 # B3LYP/6-311++G(d,p) empiricaldispersion=gd3bj scf=xqc pop=npa geom=c
 heck
 ----------------------------------------------------------------------

 --------------------------------------
 CID_62652710_JID_7232_Energie_neutraal
 --------------------------------------
 Structure from the checkpoint file:  "JID_7232.chk"
 Charge =  0 Multiplicity = 1

 SCF Done:  E(RB3LYP) =  -1122.74408710     A.U. after   16 cycles
 Normal termination of Gaussian 16 at Sun Dec 13 16:42:13 2020.

 ----------------------------------------------------------------------
 # B3LYP/6-311++G(d,p) empiricaldispersion=gd3bj scf=xqc pop=npa geom=c
 heck
 ----------------------------------------------------------------------

 ------------------------------------
 CID_62652710_JID_7232_Energie_kation
 ------------------------------------
 Structure from the checkpoint file:  "JID_7232.chk"
 Charge =  1 Multiplicity = 2

 SCF Done:  E(UB3LYP) =  -1122.45230045     A.U. after   33 cycles
 SCF Done:  E(UB3LYP) =  -1122.45230173     a.u. after    2 cycles
 Normal termination of Gaussian 16 at Sun Dec 13 17:23:32 2020.
 Gaussian 16:  ES64L-G16RevA.03 25-Dec-2016

 ----------------------------------------------------------------------
 # B3LYP/6-311++G(d,p) empiricaldispersion=gd3bj scf=xqc pop=npa geom=c
 heck
 ----------------------------------------------------------------------

 -----------------------------------
 CID_62652710_JID_7232_Energie_anion
 -----------------------------------
 Structure from the checkpoint file:  "JID_7232.chk"
 Charge = -1 Multiplicity = 2

                         Standard orientation:
 ---------------------------------------------------------------------
 Center     Atomic      Atomic             Coordinates (Angstroms)
 Number     Number       Type             X           Y           Z
 ---------------------------------------------------------------------
      1          6           0        1.393872    2.409018    1.434502
      2          6           0        1.089702    0.928014    1.194710
      3          6           0        1.075442    0.526161   -0.291359
      4          6           0        2.428207    0.747304   -1.012110
      5          6           0        3.638276    0.168539   -0.302985
      6         16           0        3.862478   -1.460085   -0.025578
      7          7           0        4.540983    1.080456    0.101250
      8          7           0        0.635354   -0.855549   -0.481894
      9          6           0       -0.633009   -1.324610   -0.213183
     10          8           0       -0.809148   -2.485839    0.155013
     11          6           0       -1.773118   -0.402745   -0.428432
     12          6           0       -2.975079   -0.450655    0.279452
     13          7           0       -3.767427    0.511812   -0.261047
     14          7           0       -3.175543    1.172848   -1.292974
     15          6           0       -1.971444    0.621768   -1.390716
     16          6           0       -5.108792    0.878146    0.145826
     17          6           0       -3.412255   -1.317425    1.412382
     18          1           0        2.422261    2.667528    1.159401
     19          1           0        1.269329    2.665568    2.491640
     20          1           0        0.718671    3.050625    0.854864
     21          1           0        1.803845    0.293824    1.733523
     22          1           0        0.097549    0.694205    1.597794
     23          1           0        0.363857    1.178143   -0.801331
     24          1           0        2.359146    0.285404   -2.001393
     25          1           0        2.566514    1.824673   -1.160290
     26          1           0        4.426397    2.067601   -0.082396
     27          1           0        5.378671    0.770767    0.576780
     28          1           0        1.348562   -1.550434   -0.264860
     29          1           0       -1.302922    0.943770   -2.177765
     30          1           0       -5.772261    0.008076    0.115301
     31          1           0       -5.112347    1.292223    1.159991
     32          1           0       -5.462318    1.632018   -0.556748
     33          1           0       -4.330618   -1.862925    1.162215
     34          1           0       -2.631564   -2.049953    1.618370
     35          1           0       -3.613605   -0.731100    2.318164
 ---------------------------------------------------------------------

 SCF Done:  E(UB3LYP) =  -1122.74637615     A.U. after   33 cycles
 SCF Done:  E(UB3LYP) =  -1122.74637615     a.u. after    1 cycles

 The electronic state is 2-A.
 Alpha  occ. eigenvalues --  -88.67718 -18.98754 -14.30763 -14.24596 -14.23655
 Alpha  occ. eigenvalues --  -14.22198 -10.17729 -10.13406 -10.13316 -10.13114
 Alpha  occ. eigenvalues --  -10.11796 -10.10821 -10.09324 -10.08563 -10.08123
 Alpha  occ. eigenvalues --  -10.07338 -10.07257  -7.76505  -5.72852  -5.72391
 Alpha  occ. eigenvalues --   -5.72059  -0.96838  -0.93621  -0.83923  -0.81964
 Alpha  occ. eigenvalues --   -0.76684  -0.72512  -0.69886  -0.65799  -0.63474
 Alpha  occ. eigenvalues --   -0.62215  -0.61057  -0.56393  -0.54715  -0.50823
 Alpha  occ. eigenvalues --   -0.49854  -0.46730  -0.45569  -0.43375  -0.42989
 Alpha  occ. eigenvalues --   -0.40458  -0.39939  -0.38748  -0.36301  -0.35599
 Alpha  occ. eigenvalues --   -0.35054  -0.34059  -0.33471  -0.33214  -0.32693
 Alpha  occ. eigenvalues --   -0.32061  -0.31216  -0.30850  -0.29920  -0.28507
 Alpha  occ. eigenvalues --   -0.28383  -0.27492  -0.26722  -0.24982  -0.23858
 Alpha  occ. eigenvalues --   -0.23334  -0.21653  -0.17331  -0.16900  -0.15564
 Alpha  occ. eigenvalues --   -0.14828  -0.12321  -0.10238   0.03324
 Alpha virt. eigenvalues --    0.04463   0.05878   0.07376   0.07472   0.07668
 Alpha virt. eigenvalues --    0.08110   0.08673   0.08984   0.09449   0.10363
 Alpha virt. eigenvalues --    0.10717   0.11030   0.11538   0.11906   0.12567

  Beta  occ. eigenvalues --  -88.67708 -18.98751 -14.30760 -14.24591 -14.23537
  Beta  occ. eigenvalues --  -14.22200 -10.17727 -10.13402 -10.13281 -10.12684
  Beta  occ. eigenvalues --  -10.11772 -10.10817 -10.09310 -10.08564 -10.08134
  Beta  occ. eigenvalues --  -10.07335 -10.07242  -7.76495  -5.72860  -5.72346
  Beta  occ. eigenvalues --   -5.72052  -0.96829  -0.93617  -0.83546  -0.81930
  Beta  occ. eigenvalues --   -0.76669  -0.72499  -0.69810  -0.65566  -0.63431
  Beta  occ. eigenvalues --   -0.62180  -0.60827  -0.56326  -0.54701  -0.50706
  Beta  occ. eigenvalues --   -0.49823  -0.46465  -0.45544  -0.43313  -0.42904
  Beta  occ. eigenvalues --   -0.40432  -0.39890  -0.38625  -0.36224  -0.35553
  Beta  occ. eigenvalues --   -0.34924  -0.34027  -0.33429  -0.33189  -0.32628
  Beta  occ. eigenvalues --   -0.32046  -0.31175  -0.30623  -0.29891  -0.28412
  Beta  occ. eigenvalues --   -0.28289  -0.27439  -0.26237  -0.24762  -0.23670
  Beta  occ. eigenvalues --   -0.22922  -0.21639  -0.17316  -0.16887  -0.15556
  Beta  occ. eigenvalues --   -0.14820  -0.11748  -0.10189
  Beta virt. eigenvalues --    0.05218   0.06321   0.07330   0.07569   0.07883
  Beta virt. eigenvalues --    0.07957   0.08653   0.08905   0.09407   0.09645
  Beta virt. eigenvalues --    0.10579   0.10792   0.11174   0.11639   0.11981

 Mulliken charges and spin densities:
               1          2
     1  C   -0.081688  -0.626672
     2  C   -1.050788   0.607044
     3  C    0.080160   0.547583
     4  C    1.251850  -1.944349
     5  C   -0.134403   0.592112
     6  S   -0.781045   0.060936
     7  N   -0.179357   0.011484
     8  N   -0.016225   0.017292
     9  C   -1.347546   0.267979
    10  O   -0.289895  -0.000449
    11  C    0.903477  -0.196764
    12  C   -0.554967   0.277044
    13  N    0.194071   0.081979
    14  N   -0.283176   0.094873
    15  C    0.179214  -0.252220
    16  C    0.510882  -0.817844
    17  C    0.006938  -0.377728
    18  H    0.117350  -0.015139
    19  H    0.023167   0.108170
    20  H   -0.034019   0.177358
    21  H    0.201706  -0.037577
    22  H    0.108285   0.071130
    23  H    0.280838  -0.183965
    24  H    0.071046   0.135849
    25  H   -0.256771   0.416751
    26  H   -0.242621   0.498282
    27  H    0.120884   0.143052
    28  H    0.287050   0.044871
    29  H    0.055459   0.128059
    30  H   -0.188780   0.348421
    31  H   -0.215486   0.393192
    32  H   -0.017266   0.191074
    33  H    0.073970   0.073884
    34  H    0.209533   0.006955
    35  H   -0.001846   0.157330
 Sum of Mulliken charges =  -1.00000   1.00000

 Dipole moment (field-independent basis, Debye):
    X=             -4.0207    Y=              1.6039    Z=              1.5889  Tot=              4.6112
 Quadrupole moment (field-independent basis, Debye-Ang):
   XX=           -202.8546   YY=           -156.4683   ZZ=           -133.2559
   XY=              6.6144   XZ=              6.5472   YZ=              2.1961

 Summary of Natural Population Analysis:

                                       Natural Population
                Natural  -----------------------------------------------
    Atom  No    Charge         Core      Valence    Rydberg      Total
 -----------------------------------------------------------------------
      C    1   -0.28724      0.99966     2.28273    0.00484     3.28724
      C    2   -0.19791      0.99961     2.19101    0.00729     3.19791
      C    3   -0.00422      0.99957     1.99216    0.01249     3.00422
      C    4   -0.22426      0.99954     2.21251    0.01220     3.22426
      C    5    0.12770      0.99965     1.85198    0.02068     2.87230
      S    6   -0.13573      4.99952     3.12288    0.01332     8.13573
      N    7   -0.36636      0.99966     2.85433    0.01237     3.86636
      N    8   -0.32838      0.99967     2.81922    0.00949     3.82838
      C    9    0.33798      0.99962     1.64135    0.02105     2.66202
      O   10   -0.32435      0.99988     3.31942    0.00505     4.32435
      C   11   -0.12384      0.99941     2.11467    0.00976     3.12384
      C   12    0.11331      0.99950     1.87564    0.01154     2.88669
      N   13   -0.11014      0.99961     2.59808    0.01245     3.61014
      N   14   -0.15432      0.99973     2.64323    0.01135     3.65432
      C   15   -0.00056      0.99960     1.98760    0.01336     3.00056
      C   16   -0.17591      0.99964     2.16866    0.00761     3.17591
      C   17   -0.31012      0.99963     2.30460    0.00589     3.31012
      H   18    0.09648      0.00000     0.40230    0.00122     0.40352
      H   19    0.09854      0.00000     0.40080    0.00066     0.40146
      H   20    0.09651      0.00000     0.40251    0.00098     0.40349
      H   21    0.10508      0.00000     0.39385    0.00107     0.39492
      H   22    0.09818      0.00000     0.40065    0.00117     0.40182
      H   23    0.09859      0.00000     0.39903    0.00238     0.40141
      H   24    0.12087      0.00000     0.37780    0.00133     0.37913
      H   25    0.10216      0.00000     0.39630    0.00154     0.39784
      H   26    0.19326      0.00000     0.30251    0.00424     0.30674
      H   27    0.19563      0.00000     0.30258    0.00179     0.30437
      H   28    0.20764      0.00000     0.28946    0.00290     0.29236
      H   29    0.10186      0.00000     0.39714    0.00100     0.39814
      H   30    0.09945      0.00000     0.39926    0.00129     0.40055
      H   31    0.09968      0.00000     0.39893    0.00138     0.40032
      H   32    0.11107      0.00000     0.38748    0.00145     0.38893
      H   33    0.10635      0.00000     0.39277    0.00088     0.39365
      H   34    0.12763      0.00000     0.37144    0.00093     0.37237
      H   35    0.10535      0.00000     0.39370    0.00095     0.39465
 =======================================================================
   * Total *    0.00000     20.99351    46.78857    0.21792    68.00000

 Normal termination of Gaussian 16 at Sun Dec 13 17:43:26 2020.
