 Gaussian 16, Revision A.03,

 -----------------------------------------------------------
 # opt freq B3LYP/6-31G(d) empiricaldispersion=gd3bj scf=xqc
 -----------------------------------------------------------

 ------------------------------
 CID_150483508_JID_857_neutraal
 ------------------------------
 Symbolic Z-matrix:
 Charge =  0 Multiplicity = 1

 SCF Done:  E(RB3LYP) =  -515.681379091     A.U. after   14 cycles
 SCF Done:  E(RB3LYP) =  -515.685887514     A.U. after   12 cycles
 SCF Done:  E(RB3LYP) =  -515.686532554     A.U. after   12 cycles
 SCF Done:  E(RB3LYP) =  -515.687040519     A.U. after   12 cycles
 SCF Done:  E(RB3LYP) =  -515.687379362     A.U. after   12 cycles
 SCF Done:  E(RB3LYP) =  -515.687708431     A.U. after   11 cycles
 SCF Done:  E(RB3LYP) =  -515.687886229     A.U. after   11 cycles
 SCF Done:  E(RB3LYP) =  -515.687939784     A.U. after   10 cycles
 SCF Done:  E(RB3LYP) =  -515.687956359     A.U. after   10 cycles
 SCF Done:  E(RB3LYP) =  -515.687967186     A.U. after   10 cycles
 SCF Done:  E(RB3LYP) =  -515.687981498     A.U. after    9 cycles
 SCF Done:  E(RB3LYP) =  -515.687987302     A.U. after    9 cycles
 SCF Done:  E(RB3LYP) =  -515.687991833     A.U. after    9 cycles
 SCF Done:  E(RB3LYP) =  -515.687993422     A.U. after    8 cycles
 SCF Done:  E(RB3LYP) =  -515.687994777     A.U. after    8 cycles
 SCF Done:  E(RB3LYP) =  -515.687994908     A.U. after    8 cycles
 Optimization completed.
    -- Stationary point found.
 Normal termination of Gaussian 16 at Tue Dec  8 13:12:49 2020.

 --------------------------------------------------------------------
 #N Geom=AllCheck Guess=TCheck SCRF=Check GenChk RB3LYP/6-31G(d) Freq
 --------------------------------------------------------------------

 Structure from the checkpoint file:  "JID_857.chk"
 ------------------------------
 CID_150483508_JID_857_neutraal
 ------------------------------
 Charge =  0 Multiplicity = 1

 SCF Done:  E(RB3LYP) =  -515.687994908     A.U. after    1 cycles

  Exact polarizability:  83.762  -4.004  71.308   0.250   1.355  72.153
 Approx polarizability: 106.661  -9.153  98.232  -4.308   6.150 110.923

                      1                      2                      3
                      A                      A                      A
 Frequencies --     32.6038                71.7042               106.8047
 Red. masses --      4.6376                 4.6503                 3.7885
 Frc consts  --      0.0029                 0.0141                 0.0255
 IR Inten    --      0.5121                 1.0442                 1.6768

                      4                      5                      6
                      A                      A                      A
 Frequencies --    136.7689               182.0464               203.5057
 Red. masses --      5.3144                 2.3859                 3.3314
 Frc consts  --      0.0586                 0.0466                 0.0813
 IR Inten    --      3.1853                12.5130                 1.0335

                      7                      8                      9
                      A                      A                      A
 Frequencies --    277.2798               318.7356               356.0003
 Red. masses --      1.5053                 1.6194                 2.8669
 Frc consts  --      0.0682                 0.0969                 0.2141
 IR Inten    --      1.2723                 0.4911                 1.9055

                     10                     11                     12
                      A                      A                      A
 Frequencies --    412.5044               449.9060               543.4620
 Red. masses --      3.4791                 4.2689                 1.1140
 Frc consts  --      0.3488                 0.5091                 0.1939
 IR Inten    --     12.4529                 8.4266                94.1490

                     13                     14                     15
                      A                      A                      A
 Frequencies --    564.7003               582.0091               669.2976
 Red. masses --      2.3610                 5.7021                 3.5935
 Frc consts  --      0.4436                 1.1380                 0.9484
 IR Inten    --     17.8337                 8.6060                28.4477

                     16                     17                     18
                      A                      A                      A
 Frequencies --    763.6261               766.5954               816.2079
 Red. masses --      5.1116                 3.8373                 1.1426
 Frc consts  --      1.7562                 1.3286                 0.4485
 IR Inten    --     35.0276                11.2014                 1.0582

                     19                     20                     21
                      A                      A                      A
 Frequencies --    880.6333               884.3688               934.0857
 Red. masses --      2.0248                 1.4875                 4.0625
 Frc consts  --      0.9252                 0.6855                 2.0884
 IR Inten    --      9.7281                 0.7693                 1.2456

                     22                     23                     24
                      A                      A                      A
 Frequencies --   1008.9652              1034.3718              1078.7095
 Red. masses --      3.0291                 2.6697                 2.5754
 Frc consts  --      1.8168                 1.6830                 1.7656
 IR Inten    --     20.7597                26.6193                35.0130

                     25                     26                     27
                      A                      A                      A
 Frequencies --   1116.9042              1125.0964              1144.2621
 Red. masses --      3.4833                 1.8777                 1.1024
 Frc consts  --      2.5602                 1.4004                 0.8504
 IR Inten    --    121.0695                 9.9468                 8.2527

                     28                     29                     30
                      A                      A                      A
 Frequencies --   1166.6388              1206.4619              1215.3868
 Red. masses --      1.8743                 1.9873                 2.1950
 Frc consts  --      1.5030                 1.7043                 1.9104
 IR Inten    --     20.0993                18.4119                42.6845

                     31                     32                     33
                      A                      A                      A
 Frequencies --   1242.5991              1269.3284              1289.4999
 Red. masses --      2.4059                 1.7557                 1.3335
 Frc consts  --      2.1887                 1.6666                 1.3065
 IR Inten    --    129.8831               150.0954                 5.5753

                     34                     35                     36
                      A                      A                      A
 Frequencies --   1301.9763              1342.9445              1348.6208
 Red. masses --      1.5597                 1.2256                 1.3931
 Frc consts  --      1.5578                 1.3023                 1.4928
 IR Inten    --     19.4840                 3.1454                19.8710

                     37                     38                     39
                      A                      A                      A
 Frequencies --   1416.1987              1433.8228              1444.6713
 Red. masses --      1.1963                 1.2783                 1.3190
 Frc consts  --      1.4137                 1.5484                 1.6219
 IR Inten    --      3.9769                 4.4434                11.7646

                     40                     41                     42
                      A                      A                      A
 Frequencies --   1490.5227              1517.7651              1522.8033
 Red. masses --      5.6910                 1.0617                 1.0468
 Frc consts  --      7.4493                 1.4410                 1.4303
 IR Inten    --    329.3729                 0.4737                 2.7763

                     43                     44                     45
                      A                      A                      A
 Frequencies --   1541.7595              1544.9720              1556.7446
 Red. masses --      1.0925                 1.0689                 1.0979
 Frc consts  --      1.5301                 1.5032                 1.5676
 IR Inten    --      4.9681                 5.8794                11.1924

                     46                     47                     48
                      A                      A                      A
 Frequencies --   1831.9708              3030.3755              3057.1375
 Red. masses --      8.9954                 1.0697                 1.0359
 Frc consts  --     17.7872                 5.7879                 5.7044
 IR Inten    --    467.5762                39.6672                11.6129

                     49                     50                     51
                      A                      A                      A
 Frequencies --   3077.4769              3082.7292              3101.9963
 Red. masses --      1.0585                 1.0620                 1.0953
 Frc consts  --      5.9066                 5.9465                 6.2099
 IR Inten    --     61.3451                11.6860                14.9670

                     52                     53                     54
                      A                      A                      A
 Frequencies --   3106.5817              3123.7460              3127.6237
 Red. masses --      1.0892                 1.1011                 1.1063
 Frc consts  --      6.1932                 6.3304                 6.3762
 IR Inten    --     26.4066                47.9315                30.0435

                     55                     56                     57
                      A                      A                      A
 Frequencies --   3137.8440              3140.8838              3737.4106
 Red. masses --      1.1050                 1.1042                 1.0646
 Frc consts  --      6.4102                 6.4180                 8.7617
 IR Inten    --     43.5242                21.8872                79.5884

 - Thermochemistry -
 -------------------
 Temperature   298.150 Kelvin.  Pressure   1.00000 Atm.
 Atom     1 has atomic number  6 and mass  12.00000

 Molecular mass:   145.07389 amu.
 Principal axes and moments of inertia in atomic units:
                           1         2         3
     Eigenvalues --   790.937952136.789112284.05212
           X            0.99963   0.02481   0.01125
           Y           -0.02434   0.99889  -0.04026
           Z           -0.01223   0.03997   0.99913
 This molecule is an asymmetric top.
 Rotational symmetry number  1.
 Warning -- assumption of classical behavior for rotation
           may cause significant error
 Rotational temperatures (Kelvin)      0.10951     0.04053     0.03792
 Rotational constants (GHZ):           2.28177     0.84460     0.79015
 Zero-point vibrational energy     465763.9 (Joules/Mol)
                                  111.32025 (Kcal/Mol)
 Warning -- explicit consideration of  14 degrees of freedom as
           vibrations may cause significant error
 Vibrational temperatures:     46.91   103.17   153.67   196.78   261.92
          (Kelvin)            292.80   398.94   458.59   512.21   593.50
                              647.31   781.92   812.48   837.38   962.97
                             1098.69  1102.96  1174.34  1267.03  1272.41
                             1343.94  1451.68  1488.23  1552.02  1606.98
                             1618.76  1646.34  1678.53  1735.83  1748.67
                             1787.82  1826.28  1855.30  1873.25  1932.20
                             1940.36  2037.59  2062.95  2078.56  2144.53
                             2183.73  2190.97  2218.25  2222.87  2239.81
                             2635.80  4360.03  4398.54  4427.80  4435.36
                             4463.08  4469.68  4494.37  4499.95  4514.66
                             4519.03  5377.30

 Zero-point correction=                           0.177400 (Hartree/Particle)
 Thermal correction to Energy=                    0.187603
 Thermal correction to Enthalpy=                  0.188548
 Thermal correction to Gibbs Free Energy=         0.140826
 Sum of electronic and zero-point Energies=           -515.510595
 Sum of electronic and thermal Energies=              -515.500391
 Sum of electronic and thermal Enthalpies=            -515.499447
 Sum of electronic and thermal Free Energies=         -515.547169

                     E (Thermal)             CV                S
                      KCal/Mol        Cal/Mol-Kelvin    Cal/Mol-Kelvin
 Total                  117.723             36.974            100.438
 Electronic               0.000              0.000              0.000
 Translational            0.889              2.981             40.827
 Rotational               0.889              2.981             29.736
 Vibrational            115.945             31.013             29.876
 Vibration     1          0.594              1.983              5.664
 Vibration     2          0.598              1.967              4.106
 Vibration     3          0.606              1.944              3.326
 Vibration     4          0.614              1.917              2.849
 Vibration     5          0.630              1.864              2.307
 Vibration     6          0.639              1.835              2.101
 Vibration     7          0.678              1.715              1.550
 Vibration     8          0.705              1.638              1.317
 Vibration     9          0.732              1.563              1.140
 Vibration    10          0.776              1.443              0.918
 Vibration    11          0.809              1.361              0.796
 Vibration    12          0.899              1.154              0.558
 Vibration    13          0.921              1.108              0.515
 Vibration    14          0.939              1.070              0.482

                           ! Non-Optimized Parameters !
 Normal termination of Gaussian 16 at Tue Dec  8 13:26:42 2020.

 ----------------------------------------------------------------------
 # B3LYP/6-311++G(d,p) empiricaldispersion=gd3bj scf=xqc pop=npa geom=c
 heck
 ----------------------------------------------------------------------

 --------------------------------------
 CID_150483508_JID_857_Energie_neutraal
 --------------------------------------
 Structure from the checkpoint file:  "JID_857.chk"
 Charge =  0 Multiplicity = 1

 SCF Done:  E(RB3LYP) =  -515.849974524     A.U. after   13 cycles
 Normal termination of Gaussian 16 at Tue Dec  8 13:29:30 2020.

 ----------------------------------------------------------------------
 # B3LYP/6-311++G(d,p) empiricaldispersion=gd3bj scf=xqc pop=npa geom=c
 heck
 ----------------------------------------------------------------------

 ------------------------------------
 CID_150483508_JID_857_Energie_kation
 ------------------------------------
 Structure from the checkpoint file:  "JID_857.chk"
 Charge =  1 Multiplicity = 2

 SCF Done:  E(UB3LYP) =  -515.514407555     A.U. after   24 cycles
 Normal termination of Gaussian 16 at Tue Dec  8 13:36:28 2020.
 Gaussian 16:  ES64L-G16RevA.03 25-Dec-2016

 ----------------------------------------------------------------------
 # B3LYP/6-311++G(d,p) empiricaldispersion=gd3bj scf=xqc pop=npa geom=c
 heck
 ----------------------------------------------------------------------

 -----------------------------------
 CID_150483508_JID_857_Energie_anion
 -----------------------------------
 Structure from the checkpoint file:  "JID_857.chk"
 Charge = -1 Multiplicity = 2

                         Standard orientation:
 ---------------------------------------------------------------------
 Center     Atomic      Atomic             Coordinates (Angstroms)
 Number     Number       Type             X           Y           Z
 ---------------------------------------------------------------------
      1          6           0        1.684313    1.812809   -0.273927
      2          6           0        2.492504    0.695095    0.381603
      3          8           0        2.324516   -0.601245   -0.185832
      4          6           0        1.080542   -1.246920   -0.096440
      5          6           0        0.071358   -0.911792    1.050484
      6          7           0       -0.944856   -0.670086    0.024240
      7          6           0       -0.037194   -0.860061   -1.117342
      8          6           0       -2.008816    0.158680    0.162603
      9          8           0       -2.451625    0.564603    1.223422
     10          8           0       -2.541531    0.480015   -1.052697
     11          1           0        1.854590    1.828545   -1.355342
     12          1           0        1.999609    2.778836    0.136930
     13          1           0        0.609654    1.714178   -0.091878
     14          1           0        3.561328    0.893790    0.258547
     15          1           0        2.293558    0.666743    1.462101
     16          1           0        1.311394   -2.314009   -0.138200
     17          1           0       -0.164664   -1.739828    1.725822
     18          1           0        0.290768   -0.023417    1.649024
     19          1           0        0.161466    0.052007   -1.685188
     20          1           0       -0.350573   -1.653380   -1.803459
     21          1           0       -3.300252    1.053294   -0.849068
 ---------------------------------------------------------------------

 SCF Done:  E(UB3LYP) =  -515.833948042     A.U. after   29 cycles

 The electronic state is 2-A.
 Alpha  occ. eigenvalues --  -19.06037 -19.03004 -18.99395 -14.23956 -10.21503
 Alpha  occ. eigenvalues --  -10.13382 -10.11907 -10.10903 -10.10535 -10.06168
 Alpha  occ. eigenvalues --   -1.00432  -0.94323  -0.90986  -0.85974  -0.68029
 Alpha  occ. eigenvalues --   -0.64997  -0.60291  -0.55547  -0.49752  -0.45943
 Alpha  occ. eigenvalues --   -0.43887  -0.41893  -0.38572  -0.37018  -0.36319
 Alpha  occ. eigenvalues --   -0.35214  -0.32854  -0.32243  -0.31132  -0.30735
 Alpha  occ. eigenvalues --   -0.29127  -0.28879  -0.26193  -0.24835  -0.21821
 Alpha  occ. eigenvalues --   -0.20931  -0.18379  -0.16169  -0.15175   0.04732
 Alpha virt. eigenvalues --    0.06739   0.06940   0.08396   0.09565   0.10259
 Alpha virt. eigenvalues --    0.10512   0.11240   0.13033   0.13595   0.14013
 Alpha virt. eigenvalues --    0.14465   0.15281   0.15668   0.16681   0.16973

  Beta  occ. eigenvalues --  -19.05996 -19.03000 -18.99383 -14.23951 -10.21501
  Beta  occ. eigenvalues --  -10.13365 -10.11879 -10.10878 -10.10510 -10.06127
  Beta  occ. eigenvalues --   -1.00380  -0.94304  -0.90941  -0.85955  -0.67987
  Beta  occ. eigenvalues --   -0.64951  -0.60235  -0.55473  -0.49667  -0.45868
  Beta  occ. eigenvalues --   -0.43821  -0.41845  -0.38546  -0.36989  -0.36286
  Beta  occ. eigenvalues --   -0.35172  -0.32817  -0.32188  -0.31103  -0.30702
  Beta  occ. eigenvalues --   -0.29086  -0.28836  -0.26135  -0.24794  -0.21788
  Beta  occ. eigenvalues --   -0.20900  -0.18341  -0.16128  -0.15156
  Beta virt. eigenvalues --    0.07214   0.07946   0.08198   0.09057   0.10191
  Beta virt. eigenvalues --    0.10947   0.11172   0.11809   0.13316   0.13710
  Beta virt. eigenvalues --    0.14268   0.14742   0.15395   0.15769   0.16769

 Mulliken charges and spin densities:
               1          2
     1  C    0.686866  -1.175859
     2  C    0.311436  -0.531905
     3  O   -0.115061   0.021450
     4  C   -0.851126   0.645706
     5  C    1.187352  -1.497232
     6  N   -0.108037   0.028180
     7  C    0.727913  -0.990199
     8  C    0.311685  -0.208687
     9  O   -0.374415   0.037246
    10  O   -0.242578   0.055284
    11  H   -0.156725   0.305905
    12  H   -0.298698   0.436846
    13  H   -0.210278   0.435366
    14  H   -0.371766   0.549797
    15  H   -0.142142   0.265165
    16  H   -0.532944   0.758387
    17  H   -0.426911   0.613662
    18  H    0.235740  -0.066445
    19  H    0.204347  -0.012264
    20  H   -0.503545   0.700202
    21  H   -0.331115   0.629395
 Sum of Mulliken charges =  -1.00000   1.00000

 Dipole moment (field-independent basis, Debye):
    X=              0.2075    Y=             -0.4077    Z=              0.2499  Tot=              0.5213
 Quadrupole moment (field-independent basis, Debye-Ang):
   XX=           -117.1366   YY=           -104.3745   ZZ=            -91.8763
   XY=             -1.0863   XZ=             -0.1313   YZ=             -1.2144

 Summary of Natural Population Analysis:

                                       Natural Population
                Natural  -----------------------------------------------
    Atom  No    Charge         Core      Valence    Rydberg      Total
 -----------------------------------------------------------------------
      C    1   -0.30357      0.99966     2.29866    0.00524     3.30357
      C    2   -0.00967      0.99958     1.99756    0.01252     3.00967
      O    3   -0.29878      0.99987     3.28861    0.01029     4.29878
      C    4    0.06608      0.99953     1.91877    0.01561     2.93392
      C    5   -0.08754      0.99963     2.07806    0.00985     3.08754
      N    6   -0.26947      0.99964     2.75628    0.01356     3.76947
      C    7   -0.08382      0.99963     2.07426    0.00994     3.08382
      C    8    0.45983      0.99966     1.51547    0.02504     2.54017
      O    9   -0.33418      0.99987     3.32855    0.00576     4.33418
      O   10   -0.35050      0.99988     3.34433    0.00628     4.35050
      H   11    0.10063      0.00000     0.39819    0.00117     0.39937
      H   12    0.10506      0.00000     0.39318    0.00176     0.39494
      H   13    0.09751      0.00000     0.40044    0.00205     0.40249
      H   14    0.09151      0.00000     0.40681    0.00168     0.40849
      H   15    0.07817      0.00000     0.42042    0.00142     0.42183
      H   16    0.09445      0.00000     0.40321    0.00234     0.40555
      H   17    0.09986      0.00000     0.39852    0.00162     0.40014
      H   18    0.10108      0.00000     0.39762    0.00129     0.39892
      H   19    0.10092      0.00000     0.39733    0.00176     0.39908
      H   20    0.09826      0.00000     0.39972    0.00202     0.40174
      H   21    0.24416      0.00000     0.24711    0.00873     0.25584
 =======================================================================
   * Total *    0.00000      9.99696    28.86311    0.13992    39.00000

 Normal termination of Gaussian 16 at Tue Dec  8 13:43:08 2020.
