 Gaussian 16, Revision A.03,

 -----------------------------------------------------------
 # opt freq B3LYP/6-31G(d) empiricaldispersion=gd3bj scf=xqc
 -----------------------------------------------------------

 -------------------------------
 CID_63875418_JID_10417_neutraal
 -------------------------------
 Symbolic Z-matrix:
 Charge =  0 Multiplicity = 1

 SCF Done:  E(RB3LYP) =  -1010.38459289     A.U. after   15 cycles
 SCF Done:  E(RB3LYP) =  -1010.39191229     A.U. after   13 cycles
 SCF Done:  E(RB3LYP) =  -1010.39313693     A.U. after   13 cycles
 SCF Done:  E(RB3LYP) =  -1010.39369067     A.U. after   13 cycles
 SCF Done:  E(RB3LYP) =  -1010.39486100     A.U. after   12 cycles
 SCF Done:  E(RB3LYP) =  -1010.39541173     A.U. after   13 cycles
 SCF Done:  E(RB3LYP) =  -1010.39631382     A.U. after   12 cycles
 SCF Done:  E(RB3LYP) =  -1010.39661730     A.U. after   11 cycles
 SCF Done:  E(RB3LYP) =  -1010.39669026     A.U. after   12 cycles
 SCF Done:  E(RB3LYP) =  -1010.39680102     A.U. after   10 cycles
 SCF Done:  E(RB3LYP) =  -1010.39721212     A.U. after    8 cycles
 SCF Done:  E(RB3LYP) =  -1010.39721238     A.U. after    7 cycles
 SCF Done:  E(RB3LYP) =  -1010.39721242     A.U. after    7 cycles
 SCF Done:  E(RB3LYP) =  -1010.39721245     A.U. after    6 cycles
 SCF Done:  E(RB3LYP) =  -1010.39721247     A.U. after    7 cycles
 Optimization completed.
    -- Stationary point found.
 Normal termination of Gaussian 16 at Mon Dec 14 14:16:25 2020.

 --------------------------------------------------------------------
 #N Geom=AllCheck Guess=TCheck SCRF=Check GenChk RB3LYP/6-31G(d) Freq
 --------------------------------------------------------------------

 Structure from the checkpoint file:  "JID_10417.chk"
 -------------------------------
 CID_63875418_JID_10417_neutraal
 -------------------------------
 Charge =  0 Multiplicity = 1

 SCF Done:  E(RB3LYP) =  -1010.39721247     A.U. after    1 cycles

  Exact polarizability: 169.457 -12.493 146.390  -4.624   3.575 148.938
 Approx polarizability: 200.919 -18.230 205.018  -3.591   3.163 256.487

                      1                      2                      3
                      A                      A                      A
 Frequencies --     22.6998                27.8774                36.1241
 Red. masses --      8.6461                 4.5486                 4.8000
 Frc consts  --      0.0026                 0.0021                 0.0037
 IR Inten    --      0.0570                 2.1853                 0.8522

                      4                      5                      6
                      A                      A                      A
 Frequencies --     40.9713                50.6259                67.8237
 Red. masses --      6.2897                 5.3111                 6.0500
 Frc consts  --      0.0062                 0.0080                 0.0164
 IR Inten    --      3.8499                 0.2657                 0.5932

                      7                      8                      9
                      A                      A                      A
 Frequencies --     94.0278                99.0687               110.4934
 Red. masses --      3.1307                 1.9703                 3.0697
 Frc consts  --      0.0163                 0.0114                 0.0221
 IR Inten    --      0.1535                 0.3336                 3.7791

                     10                     11                     12
                      A                      A                      A
 Frequencies --    123.0915               154.3821               166.4724
 Red. masses --      4.3488                 2.1293                 3.5586
 Frc consts  --      0.0388                 0.0299                 0.0581
 IR Inten    --      3.4382                 1.9811                 1.6596

                     13                     14                     15
                      A                      A                      A
 Frequencies --    174.1587               196.6769               221.1239
 Red. masses --      2.8378                 4.2434                 4.2612
 Frc consts  --      0.0507                 0.0967                 0.1228
 IR Inten    --      0.2208                 1.4913                 1.7348

                     16                     17                     18
                      A                      A                      A
 Frequencies --    236.1899               252.9251               270.1674
 Red. masses --      2.3740                 1.4492                 2.4268
 Frc consts  --      0.0780                 0.0546                 0.1044
 IR Inten    --      0.3678                 1.0340                 5.3729

                     19                     20                     21
                      A                      A                      A
 Frequencies --    296.1546               336.6661               367.2550
 Red. masses --      2.9402                 2.8314                 4.1811
 Frc consts  --      0.1519                 0.1891                 0.3323
 IR Inten    --      1.5159                 5.6502                 1.9122

                     22                     23                     24
                      A                      A                      A
 Frequencies --    390.7969               398.3512               430.0814
 Red. masses --      2.9722                 2.4109                 3.0738
 Frc consts  --      0.2674                 0.2254                 0.3350
 IR Inten    --     12.1102                 0.5216                12.3341

                     25                     26                     27
                      A                      A                      A
 Frequencies --    461.6716               486.5017               491.0734
 Red. masses --      3.3952                 2.7941                 2.8346
 Frc consts  --      0.4264                 0.3896                 0.4027
 IR Inten    --      2.2805                 7.5138                10.6718

                     28                     29                     30
                      A                      A                      A
 Frequencies --    524.7446               543.1847               551.4251
 Red. masses --      2.9150                 1.9074                 2.0491
 Frc consts  --      0.4729                 0.3316                 0.3671
 IR Inten    --     30.4871                31.2112                46.4048

                     31                     32                     33
                      A                      A                      A
 Frequencies --    577.0709               593.7664               617.8432
 Red. masses --      4.1236                 3.0104                 3.2835
 Frc consts  --      0.8091                 0.6253                 0.7385
 IR Inten    --     15.7700                37.7131                48.3002

                     34                     35                     36
                      A                      A                      A
 Frequencies --    628.8895               648.5763               709.9004
 Red. masses --      2.6920                 4.1561                 1.6069
 Frc consts  --      0.6273                 1.0300                 0.4771
 IR Inten    --      6.8236                15.8846               134.5953

                     37                     38                     39
                      A                      A                      A
 Frequencies --    735.5129               763.6714               769.1069
 Red. masses --      4.2031                 3.6713                 2.8149
 Frc consts  --      1.3397                 1.2615                 0.9810
 IR Inten    --     13.9715                 2.3433                24.3712

                     40                     41                     42
                      A                      A                      A
 Frequencies --    817.8885               825.0624               838.7769
 Red. masses --      2.9762                 1.5331                 2.3816
 Frc consts  --      1.1730                 0.6149                 0.9872
 IR Inten    --     44.2187                 0.3444                14.8485

                     43                     44                     45
                      A                      A                      A
 Frequencies --    846.3455               854.9787               929.8983
 Red. masses --      2.0879                 4.4370                 1.9887
 Frc consts  --      0.8812                 1.9109                 1.0132
 IR Inten    --     33.2338                 8.0482                 2.6369

                     46                     47                     48
                      A                      A                      A
 Frequencies --    952.9928               959.9417               982.0879
 Red. masses --      2.1169                 2.8243                 2.3425
 Frc consts  --      1.1327                 1.5334                 1.3312
 IR Inten    --      5.7650                 9.3245                14.2466

                     49                     50                     51
                      A                      A                      A
 Frequencies --    990.0229              1038.8872              1047.2392
 Red. masses --      1.4723                 2.7317                 2.3302
 Frc consts  --      0.8502                 1.7371                 1.5057
 IR Inten    --      4.3414                79.4199                 6.4901

                     52                     53                     54
                      A                      A                      A
 Frequencies --   1059.6793              1077.0773              1090.9814
 Red. masses --      1.7941                 2.3186                 1.7200
 Frc consts  --      1.1870                 1.5848                 1.2062
 IR Inten    --     45.0829                16.2433                 1.7151

                     55                     56                     57
                      A                      A                      A
 Frequencies --   1107.3740              1120.1188              1142.4713
 Red. masses --      2.1892                 2.7563                 4.2506
 Frc consts  --      1.5817                 2.0375                 3.2688
 IR Inten    --      0.5301                 0.8229               196.0181

                     58                     59                     60
                      A                      A                      A
 Frequencies --   1160.6895              1187.5622              1194.4506
 Red. masses --      1.2662                 2.4029                 1.4523
 Frc consts  --      1.0050                 1.9967                 1.2208
 IR Inten    --      4.8344                13.4998                39.8124

                     61                     62                     63
                      A                      A                      A
 Frequencies --   1204.2777              1209.5776              1211.4509
 Red. masses --      2.7051                 2.3252                 2.6262
 Frc consts  --      2.3115                 2.0044                 2.2709
 IR Inten    --     30.5597               155.2013                41.1030

                     64                     65                     66
                      A                      A                      A
 Frequencies --   1217.8016              1284.8775              1296.3265
 Red. masses --      2.3922                 1.5234                 1.3107
 Frc consts  --      2.0902                 1.4818                 1.2977
 IR Inten    --     26.7781                48.6257                14.6751

                     67                     68                     69
                      A                      A                      A
 Frequencies --   1301.6616              1317.9505              1321.2703
 Red. masses --      1.5852                 1.1816                 1.9455
 Frc consts  --      1.5825                 1.2093                 2.0010
 IR Inten    --     13.2636                24.8801               150.6915

                     70                     71                     72
                      A                      A                      A
 Frequencies --   1354.3468              1376.2696              1377.6316
 Red. masses --      1.2553                 1.4285                 1.2887
 Frc consts  --      1.3566                 1.5942                 1.4410
 IR Inten    --      7.2064               120.4731                13.8975

                     73                     74                     75
                      A                      A                      A
 Frequencies --   1388.3554              1393.1642              1397.7549
 Red. masses --      1.4509                 1.4939                 1.7245
 Frc consts  --      1.6477                 1.7084                 1.9851
 IR Inten    --     27.6409                46.8469               135.5408

                     76                     77                     78
                      A                      A                      A
 Frequencies --   1403.0350              1411.8346              1421.6291
 Red. masses --      1.7001                 1.4433                 1.3326
 Frc consts  --      1.9718                 1.6950                 1.5868
 IR Inten    --     34.9031                 3.3366                22.3287

                     79                     80                     81
                      A                      A                      A
 Frequencies --   1428.3287              1434.9756              1449.4263
 Red. masses --      1.3051                 1.3776                 1.9523
 Frc consts  --      1.5687                 1.6714                 2.4165
 IR Inten    --     58.4036                 7.1272               199.3983

                     82                     83                     84
                      A                      A                      A
 Frequencies --   1479.6922              1495.3536              1497.0779
 Red. masses --      1.5463                 1.3213                 1.0852
 Frc consts  --      1.9947                 1.7407                 1.4330
 IR Inten    --     20.2488                 4.0181                 3.2275

                     85                     86                     87
                      A                      A                      A
 Frequencies --   1502.2185              1503.1396              1513.8706
 Red. masses --      1.2565                 1.0831                 1.0956
 Frc consts  --      1.6706                 1.4418                 1.4794
 IR Inten    --     22.6680                 8.5499                 8.2699

                     88                     89                     90
                      A                      A                      A
 Frequencies --   1518.6499              1522.4271              1528.0844
 Red. masses --      1.1436                 1.0722                 1.1030
 Frc consts  --      1.5539                 1.4641                 1.5175
 IR Inten    --     25.6847                12.3104                 3.6625

                     91                     92                     93
                      A                      A                      A
 Frequencies --   1531.7142              1533.7208              1548.9890
 Red. masses --      1.1135                 1.1357                 1.0762
 Frc consts  --      1.5392                 1.5740                 1.5214
 IR Inten    --      4.5730                10.1476                35.7243

                     94                     95                     96
                      A                      A                      A
 Frequencies --   1771.6012              1793.0349              1845.5734
 Red. masses --      9.0227                 7.3529                 9.8456
 Frc consts  --     16.6847                13.9279                19.7586
 IR Inten    --    489.5905               139.8918               247.2227

                     97                     98                     99
                      A                      A                      A
 Frequencies --   3038.2963              3042.0735              3042.4158
 Red. masses --      1.0727                 1.0706                 1.0511
 Frc consts  --      5.8344                 5.8375                 5.7324
 IR Inten    --     11.3978                 3.6576                27.9120

                    100                    101                    102
                      A                      A                      A
 Frequencies --   3044.0063              3055.7186              3056.3428
 Red. masses --      1.0735                 1.0605                 1.0668
 Frc consts  --      5.8605                 5.8345                 5.8712
 IR Inten    --     54.4018                37.4345                23.4701

                    103                    104                    105
                      A                      A                      A
 Frequencies --   3060.8471              3067.2526              3089.9436
 Red. masses --      1.0352                 1.0606                 1.0841
 Frc consts  --      5.7141                 5.8792                 6.0984
 IR Inten    --     19.3739                34.5349                24.3852

                    106                    107                    108
                      A                      A                      A
 Frequencies --   3100.3532              3107.5612              3113.2550
 Red. masses --      1.1039                 1.0966                 1.1006
 Frc consts  --      6.2519                 6.2396                 6.2852
 IR Inten    --      7.9715                24.0592                20.7356

                    109                    110                    111
                      A                      A                      A
 Frequencies --   3118.1402              3132.1520              3151.6928
 Red. masses --      1.1031                 1.1010                 1.1038
 Frc consts  --      6.3191                 6.3637                 6.4599
 IR Inten    --     41.6632                32.0085                 6.8195

                    112                    113                    114
                      A                      A                      A
 Frequencies --   3152.7886              3161.0926              3169.7377
 Red. masses --      1.1015                 1.0935                 1.0912
 Frc consts  --      6.4507                 6.4380                 6.4593
 IR Inten    --     22.2681                 6.9824                21.0891

                    115                    116                    117
                      A                      A                      A
 Frequencies --   3536.3108              3608.1527              3678.4349
 Red. masses --      1.0743                 1.0765                 1.0639
 Frc consts  --      7.9152                 8.2568                 8.4815
 IR Inten    --     80.1363                31.6953                47.3172

 - Thermochemistry -
 -------------------
 Temperature   298.150 Kelvin.  Pressure   1.00000 Atm.
 Atom     1 has atomic number  6 and mass  12.00000

 Molecular mass:   287.14812 amu.
 Principal axes and moments of inertia in atomic units:
                           1         2         3
     Eigenvalues --  3324.28186********************
           X            0.99990  -0.00828  -0.01174
           Y            0.00856   0.99967   0.02403
           Z            0.01154  -0.02413   0.99964
 This molecule is an asymmetric top.
 Rotational symmetry number  1.
 Warning -- assumption of classical behavior for rotation
           may cause significant error
 Rotational temperatures (Kelvin)      0.02605     0.00759     0.00692
 Rotational constants (GHZ):           0.54290     0.15815     0.14418
 Zero-point vibrational energy     916371.4 (Joules/Mol)
                                  219.01802 (Kcal/Mol)
 Warning -- explicit consideration of  33 degrees of freedom as
           vibrations may cause significant error
 Vibrational temperatures:     32.66    40.11    51.97    58.95    72.84
          (Kelvin)             97.58   135.29   142.54   158.98   177.10
                              222.12   239.52   250.58   282.97   318.15
                              339.82   363.90   388.71   426.10   484.39
                              528.40   562.27   573.14   618.79   664.24
                              699.97   706.55   754.99   781.52   793.38
                              830.28   854.30   888.94   904.83   933.16
                             1021.39  1058.24  1098.75  1106.57  1176.76
                             1187.08  1206.81  1217.70  1230.12  1337.92
                             1371.14  1381.14  1413.01  1424.42  1494.73
                             1506.74  1524.64  1549.67  1569.68  1593.26
                             1611.60  1643.76  1669.97  1708.64  1718.55
                             1732.69  1740.31  1743.01  1752.14  1848.65
                             1865.12  1872.80  1896.24  1901.01  1948.60
                             1980.15  1982.10  1997.53  2004.45  2011.06
                             2018.65  2031.32  2045.41  2055.05  2064.61
                             2085.40  2128.95  2151.48  2153.96  2161.36
                             2162.68  2178.12  2185.00  2190.43  2198.57
                             2203.80  2206.68  2228.65  2548.94  2579.78
                             2655.37  4371.43  4376.87  4377.36  4379.65
                             4396.50  4397.40  4403.88  4413.09  4445.74
                             4460.72  4471.09  4479.28  4486.31  4506.47
                             4534.58  4536.16  4548.11  4560.55  5087.96
                             5191.33  5292.45

 Zero-point correction=                           0.349027 (Hartree/Particle)
 Thermal correction to Energy=                    0.369875
 Thermal correction to Enthalpy=                  0.370819
 Thermal correction to Gibbs Free Energy=         0.296761
 Sum of electronic and zero-point Energies=          -1010.048185
 Sum of electronic and thermal Energies=             -1010.027338
 Sum of electronic and thermal Enthalpies=           -1010.026394
 Sum of electronic and thermal Free Energies=        -1010.100452

                     E (Thermal)             CV                S
                      KCal/Mol        Cal/Mol-Kelvin    Cal/Mol-Kelvin
 Total                  232.100             76.554            155.868
 Electronic               0.000              0.000              0.000
 Translational            0.889              2.981             42.862
 Rotational               0.889              2.981             34.517
 Vibrational            230.322             70.593             78.489
 Vibration     1          0.593              1.985              6.383
 Vibration     2          0.593              1.984              5.975
 Vibration     3          0.594              1.982              5.461
 Vibration     4          0.594              1.981              5.212
 Vibration     5          0.595              1.977              4.793
 Vibration     6          0.598              1.970              4.216
 Vibration     7          0.603              1.953              3.574
 Vibration     8          0.604              1.950              3.473
 Vibration     9          0.606              1.941              3.260
 Vibration    10          0.610              1.930              3.051
 Vibration    11          0.620              1.898              2.618
 Vibration    12          0.624              1.884              2.475
 Vibration    13          0.627              1.874              2.390
 Vibration    14          0.636              1.845              2.164
 Vibration    15          0.648              1.809              1.950
 Vibration    16          0.655              1.785              1.831
 Vibration    17          0.664              1.758              1.710
 Vibration    18          0.674              1.728              1.595
 Vibration    19          0.690              1.681              1.439
 Vibration    20          0.717              1.602              1.228
 Vibration    21          0.740              1.540              1.091
 Vibration    22          0.758              1.490              0.997
 Vibration    23          0.765              1.474              0.969
 Vibration    24          0.791              1.405              0.858
 Vibration    25          0.819              1.335              0.761
 Vibration    26          0.843              1.280              0.693
 Vibration    27          0.847              1.270              0.681
 Vibration    28          0.880              1.195              0.599
 Vibration    29          0.898              1.155              0.558
 Vibration    30          0.907              1.137              0.541
 Vibration    31          0.934              1.081              0.491
 Vibration    32          0.951              1.045              0.461
 Vibration    33          0.978              0.994              0.420

                           ! Non-Optimized Parameters !
 Normal termination of Gaussian 16 at Mon Dec 14 14:37:59 2020.

 ----------------------------------------------------------------------
 # B3LYP/6-311++G(d,p) empiricaldispersion=gd3bj scf=xqc pop=npa geom=c
 heck
 ----------------------------------------------------------------------

 ---------------------------------------
 CID_63875418_JID_10417_Energie_neutraal
 ---------------------------------------
 Structure from the checkpoint file:  "JID_10417.chk"
 Charge =  0 Multiplicity = 1

 SCF Done:  E(RB3LYP) =  -1010.70690439     A.U. after   15 cycles
 Normal termination of Gaussian 16 at Mon Dec 14 14:47:43 2020.

 ----------------------------------------------------------------------
 # B3LYP/6-311++G(d,p) empiricaldispersion=gd3bj scf=xqc pop=npa geom=c
 heck
 ----------------------------------------------------------------------

 -------------------------------------
 CID_63875418_JID_10417_Energie_kation
 -------------------------------------
 Structure from the checkpoint file:  "JID_10417.chk"
 Charge =  1 Multiplicity = 2

 SCF Done:  E(UB3LYP) =  -1010.39512926     A.U. after   32 cycles
 Normal termination of Gaussian 16 at Mon Dec 14 15:16:18 2020.
 Gaussian 16:  ES64L-G16RevA.03 25-Dec-2016

 ----------------------------------------------------------------------
 # B3LYP/6-311++G(d,p) empiricaldispersion=gd3bj scf=xqc pop=npa geom=c
 heck
 ----------------------------------------------------------------------

 ------------------------------------
 CID_63875418_JID_10417_Energie_anion
 ------------------------------------
 Structure from the checkpoint file:  "JID_10417.chk"
 Charge = -1 Multiplicity = 2

                         Standard orientation:
 ---------------------------------------------------------------------
 Center     Atomic      Atomic             Coordinates (Angstroms)
 Number     Number       Type             X           Y           Z
 ---------------------------------------------------------------------
      1          6           0        3.599103    1.414226   -0.223712
      2          6           0        2.884794    0.063444   -0.024396
      3          6           0        3.881535   -0.941316    0.569275
      4          8           0        3.980739   -1.088627    1.782629
      5          7           0        4.690828   -1.602656   -0.304722
      6          6           0        4.591996   -1.632724   -1.755219
      7          7           0        1.772813    0.134117    0.921792
      8          6           0        0.805101    1.129824    0.870649
      9          8           0        0.457079    1.750253    1.869129
     10          7           0        0.263053    1.369448   -0.395246
     11          6           0       -0.677766    2.490950   -0.472343
     12          6           0       -2.103251    2.075480   -0.085426
     13          6           0       -2.563221    0.901892   -0.955019
     14          6           0       -1.558184   -0.252542   -0.884361
     15          6           0       -0.143876    0.238345   -1.236861
     16          8           0       -3.917817    0.519124   -0.683882
     17          6           0       -4.158260   -0.139215    0.533499
     18          6           0       -4.064212   -1.660471    0.490994
     19          8           0       -3.959106   -2.348399    1.482012
     20          8           0       -4.166192   -2.171727   -0.755859
     21          1           0        3.989220    1.769604    0.734875
     22          1           0        2.891687    2.149734   -0.615424
     23          1           0        4.434807    1.325295   -0.926471
     24          1           0        2.528503   -0.296906   -0.993089
     25          1           0        5.330541   -2.243363    0.147110
     26          1           0        4.626274   -0.625115   -2.180842
     27          1           0        5.448847   -2.186187   -2.144887
     28          1           0        3.677445   -2.129812   -2.103636
     29          1           0        2.110477    0.004312    1.872665
     30          1           0       -0.658598    2.861213   -1.506180
     31          1           0       -0.317248    3.282253    0.184375
     32          1           0       -2.795552    2.915843   -0.209757
     33          1           0       -2.093452    1.799130    0.974292
     34          1           0       -2.612579    1.244811   -1.996611
     35          1           0       -1.528200   -0.671014    0.130071
     36          1           0       -1.861357   -1.054016   -1.565567
     37          1           0        0.563199   -0.580761   -1.116931
     38          1           0       -0.108183    0.563428   -2.285223
     39          1           0       -3.512990    0.197725    1.352608
     40          1           0       -5.190401    0.095659    0.822911
     41          1           0       -4.129474   -3.140538   -0.641769
 ---------------------------------------------------------------------

 SCF Done:  E(UB3LYP) =  -1010.70516689     A.U. after   33 cycles
 SCF Done:  E(UB3LYP) =  -1010.70516689     a.u. after    1 cycles

 The electronic state is 2-A.
 Alpha  occ. eigenvalues --  -19.10152 -19.05912 -19.04765 -19.00957 -19.00401
 Alpha  occ. eigenvalues --  -14.25650 -14.25189 -14.23765 -10.23745 -10.20916
 Alpha  occ. eigenvalues --  -10.19256 -10.16639 -10.15053 -10.13943 -10.12616
 Alpha  occ. eigenvalues --  -10.12467 -10.11617 -10.09261 -10.09178 -10.08588
 Alpha  occ. eigenvalues --   -1.04348  -0.97244  -0.96893  -0.96067  -0.95342
 Alpha  occ. eigenvalues --   -0.86112  -0.84140  -0.83196  -0.72540  -0.68942
 Alpha  occ. eigenvalues --   -0.68231  -0.66793  -0.62414  -0.59811  -0.57513
 Alpha  occ. eigenvalues --   -0.56459  -0.54983  -0.51937  -0.50137  -0.48269
 Alpha  occ. eigenvalues --   -0.44998  -0.44129  -0.42167  -0.41739  -0.41242
 Alpha  occ. eigenvalues --   -0.40650  -0.39863  -0.39152  -0.38775  -0.38078
 Alpha  occ. eigenvalues --   -0.37151  -0.36687  -0.36431  -0.35037  -0.34283
 Alpha  occ. eigenvalues --   -0.33853  -0.33173  -0.32871  -0.31914  -0.31733
 Alpha  occ. eigenvalues --   -0.30968  -0.30511  -0.30194  -0.28827  -0.28470
 Alpha  occ. eigenvalues --   -0.28231  -0.27881  -0.27129  -0.25636  -0.23982
 Alpha  occ. eigenvalues --   -0.22590  -0.20043  -0.18725  -0.18461  -0.17715
 Alpha  occ. eigenvalues --   -0.16467  -0.16206   0.03263
 Alpha virt. eigenvalues --    0.04914   0.05709   0.05882   0.06919   0.07312
 Alpha virt. eigenvalues --    0.07677   0.08358   0.08683   0.09141   0.09656
 Alpha virt. eigenvalues --    0.10033   0.10349   0.10546   0.11114   0.11414

  Beta  occ. eigenvalues --  -19.10122 -19.05909 -19.04757 -19.00957 -19.00400
  Beta  occ. eigenvalues --  -14.25634 -14.25189 -14.23765 -10.23740 -10.20915
  Beta  occ. eigenvalues --  -10.19257 -10.16634 -10.15049 -10.13929 -10.12590
  Beta  occ. eigenvalues --  -10.12459 -10.11537 -10.09259 -10.09167 -10.08570
  Beta  occ. eigenvalues --   -1.04308  -0.97236  -0.96891  -0.96063  -0.95308
  Beta  occ. eigenvalues --   -0.86106  -0.84108  -0.83190  -0.72527  -0.68920
  Beta  occ. eigenvalues --   -0.68206  -0.66773  -0.62303  -0.59784  -0.57472
  Beta  occ. eigenvalues --   -0.56433  -0.54929  -0.51915  -0.50103  -0.48247
  Beta  occ. eigenvalues --   -0.44982  -0.44113  -0.42153  -0.41672  -0.41216
  Beta  occ. eigenvalues --   -0.40605  -0.39837  -0.39126  -0.38752  -0.38052
  Beta  occ. eigenvalues --   -0.37116  -0.36670  -0.36412  -0.35003  -0.34265
  Beta  occ. eigenvalues --   -0.33834  -0.33154  -0.32853  -0.31886  -0.31667
  Beta  occ. eigenvalues --   -0.30952  -0.30495  -0.30165  -0.28810  -0.28452
  Beta  occ. eigenvalues --   -0.28208  -0.27858  -0.27114  -0.25610  -0.23966
  Beta  occ. eigenvalues --   -0.22573  -0.20039  -0.18713  -0.18453  -0.17691
  Beta  occ. eigenvalues --   -0.16455  -0.16196
  Beta virt. eigenvalues --    0.05324   0.05757   0.06201   0.06509   0.07254
  Beta virt. eigenvalues --    0.07605   0.08190   0.08565   0.09072   0.09333
  Beta virt. eigenvalues --    0.09722   0.10138   0.10665   0.10837   0.11204

 Mulliken charges and spin densities:
               1          2
     1  C    0.096759  -0.601092
     2  C    0.076395  -0.400048
     3  C   -0.834202   1.028907
     4  O   -0.349754   0.004798
     5  N   -0.502872   0.207033
     6  C    1.529590  -1.960960
     7  N   -0.111704   0.033848
     8  C    0.012366  -0.230266
     9  O   -0.307895   0.005997
    10  N    0.196528   0.041625
    11  C    0.019603  -0.223305
    12  C    0.127479  -0.041132
    13  C   -1.085247  -0.029448
    14  C    0.299674  -0.101817
    15  C   -0.020658  -0.679867
    16  O    0.025914   0.007241
    17  C    0.134278  -0.246122
    18  C   -0.230516   0.041245
    19  O   -0.215047   0.003630
    20  O   -0.105933  -0.003541
    21  H    0.172871  -0.006086
    22  H   -0.052241   0.211283
    23  H   -0.015849   0.167279
    24  H    1.173759  -0.891346
    25  H    0.058456   0.277662
    26  H   -0.479764   0.648139
    27  H   -1.011752   1.189851
    28  H   -0.494074   0.674624
    29  H    0.321937  -0.004059
    30  H    0.016929   0.154902
    31  H    0.212199  -0.004399
    32  H    0.147052   0.030205
    33  H    0.162815   0.015749
    34  H    0.098847   0.088290
    35  H    0.158567   0.051613
    36  H   -0.007164   0.268886
    37  H   -0.204487   0.372154
    38  H   -0.362156   0.551021
    39  H    0.213574   0.011110
    40  H    0.168264   0.021239
    41  H   -0.032542   0.315154
 Sum of Mulliken charges =  -1.00000   1.00000

 Dipole moment (field-independent basis, Debye):
    X=             -7.6842    Y=              5.9412    Z=              2.6986  Tot=             10.0810
 Quadrupole moment (field-independent basis, Debye-Ang):
   XX=           -221.4175   YY=           -164.7586   ZZ=           -179.7735
   XY=              9.6632   XZ=             14.1666   YZ=             -8.6042

 Summary of Natural Population Analysis:

                                       Natural Population
                Natural  -----------------------------------------------
    Atom  No    Charge         Core      Valence    Rydberg      Total
 -----------------------------------------------------------------------
      C    1   -0.29011      0.99964     2.28500    0.00547     3.29011
      C    2   -0.05135      0.99957     2.03978    0.01200     3.05135
      C    3    0.34549      0.99964     1.63105    0.02382     2.65451
      O    4   -0.32969      0.99988     3.32430    0.00551     4.32969
      N    5   -0.31188      0.99967     2.80133    0.01087     3.81188
      C    6   -0.18323      0.99964     2.17525    0.00834     3.18323
      N    7   -0.33904      0.99967     2.82960    0.00977     3.83904
      C    8    0.41691      0.99966     1.55936    0.02407     2.58309
      O    9   -0.33173      0.99988     3.32708    0.00478     4.33173
      N   10   -0.27809      0.99966     2.76784    0.01059     3.77809
      C   11   -0.08571      0.99962     2.07445    0.01164     3.08571
      C   12   -0.21285      0.99960     2.20596    0.00729     3.21285
      C   13    0.06856      0.99950     1.91699    0.01495     2.93144
      C   14   -0.21649      0.99960     2.20784    0.00904     3.21649
      C   15   -0.08221      0.99960     2.07074    0.01187     3.08221
      O   16   -0.29500      0.99988     3.28570    0.00941     4.29500
      C   17   -0.06261      0.99952     2.05068    0.01240     3.06261
      C   18    0.38960      0.99974     1.58493    0.02573     2.61040
      O   19   -0.30455      0.99987     3.29845    0.00623     4.30455
      O   20   -0.33662      0.99987     3.32928    0.00747     4.33662
      H   21    0.10303      0.00000     0.39607    0.00090     0.39697
      H   22    0.10599      0.00000     0.39280    0.00121     0.39401
      H   23    0.10459      0.00000     0.39451    0.00090     0.39541
      H   24    0.10337      0.00000     0.39354    0.00309     0.39663
      H   25    0.19689      0.00000     0.30101    0.00209     0.30311
      H   26    0.09802      0.00000     0.39956    0.00242     0.40198
      H   27    0.10809      0.00000     0.38764    0.00427     0.39191
      H   28    0.09839      0.00000     0.39865    0.00297     0.40161
      H   29    0.20579      0.00000     0.29197    0.00224     0.29421
      H   30    0.09291      0.00000     0.40613    0.00097     0.40709
      H   31    0.11152      0.00000     0.38756    0.00092     0.38848
      H   32    0.10204      0.00000     0.39695    0.00101     0.39796
      H   33    0.10528      0.00000     0.39338    0.00133     0.39472
      H   34    0.09094      0.00000     0.40726    0.00179     0.40906
      H   35    0.09874      0.00000     0.39959    0.00167     0.40126
      H   36    0.11380      0.00000     0.38473    0.00147     0.38620
      H   37    0.10890      0.00000     0.38938    0.00172     0.39110
      H   38    0.09643      0.00000     0.40194    0.00164     0.40357
      H   39    0.09930      0.00000     0.39957    0.00113     0.40070
      H   40    0.10429      0.00000     0.39485    0.00087     0.39571
      H   41    0.24229      0.00000     0.25263    0.00508     0.25771
 =======================================================================
   * Total *   -0.00000     19.99372    56.73532    0.27096    77.00000

 Normal termination of Gaussian 16 at Mon Dec 14 15:45:37 2020.
