 Gaussian 16, Revision A.03,

 -----------------------------------------------------------
 # opt freq B3LYP/6-31G(d) empiricaldispersion=gd3bj scf=xqc
 -----------------------------------------------------------

 ------------------------------
 CID_23397366_JID_1942_neutraal
 ------------------------------
 Symbolic Z-matrix:
 Charge =  0 Multiplicity = 1

 SCF Done:  E(RB3LYP) =  -496.824168501     A.U. after   15 cycles
 SCF Done:  E(RB3LYP) =  -496.827548996     A.U. after   13 cycles
 SCF Done:  E(RB3LYP) =  -496.828125004     A.U. after   13 cycles
 SCF Done:  E(RB3LYP) =  -496.828153698     A.U. after   12 cycles
 SCF Done:  E(RB3LYP) =  -496.828379207     A.U. after   12 cycles
 SCF Done:  E(RB3LYP) =  -496.828483464     A.U. after   13 cycles
 SCF Done:  E(RB3LYP) =  -496.828552070     A.U. after   13 cycles
 SCF Done:  E(RB3LYP) =  -496.828573758     A.U. after   11 cycles
 SCF Done:  E(RB3LYP) =  -496.828596728     A.U. after   11 cycles
 SCF Done:  E(RB3LYP) =  -496.828599557     A.U. after    9 cycles
 SCF Done:  E(RB3LYP) =  -496.828661589     A.U. after   10 cycles
 SCF Done:  E(RB3LYP) =  -496.828663104     A.U. after    9 cycles
 SCF Done:  E(RB3LYP) =  -496.828664389     A.U. after    9 cycles
 SCF Done:  E(RB3LYP) =  -496.828664586     A.U. after    8 cycles
 SCF Done:  E(RB3LYP) =  -496.828664611     A.U. after    7 cycles
 Optimization completed.
    -- Stationary point found.
 Normal termination of Gaussian 16 at Tue Dec  8 21:41:37 2020.

 --------------------------------------------------------------------
 #N Geom=AllCheck Guess=TCheck SCRF=Check GenChk RB3LYP/6-31G(d) Freq
 --------------------------------------------------------------------

 Structure from the checkpoint file:  "JID_1942.chk"
 ------------------------------
 CID_23397366_JID_1942_neutraal
 ------------------------------
 Charge =  0 Multiplicity = 1

 SCF Done:  E(RB3LYP) =  -496.828664611     A.U. after    1 cycles

  Exact polarizability: 132.986   0.049 103.078  -4.519   2.163  60.745
 Approx polarizability: 176.474  10.753 178.685  -8.784   5.308  90.027

                      1                      2                      3
                      A                      A                      A
 Frequencies --     24.1120                39.1140                96.1895
 Red. masses --      2.5053                 3.2033                 1.7495
 Frc consts  --      0.0009                 0.0029                 0.0095
 IR Inten    --      0.7529                 1.4831                 0.2852

                      4                      5                      6
                      A                      A                      A
 Frequencies --    111.2268               171.2412               179.8013
 Red. masses --      1.6831                 2.4857                 2.7604
 Frc consts  --      0.0123                 0.0429                 0.0526
 IR Inten    --      0.0549                 2.6243                 9.0219

                      7                      8                      9
                      A                      A                      A
 Frequencies --    215.5336               238.9351               262.4116
 Red. masses --      2.3312                 1.6703                 1.1786
 Frc consts  --      0.0638                 0.0562                 0.0478
 IR Inten    --      0.1222                 2.3495                 0.8052

                     10                     11                     12
                      A                      A                      A
 Frequencies --    307.3097               331.9408               404.3076
 Red. masses --      2.3113                 2.7745                 4.7536
 Frc consts  --      0.1286                 0.1801                 0.4578
 IR Inten    --      2.4479                 2.1048                 6.0388

                     13                     14                     15
                      A                      A                      A
 Frequencies --    412.6132               553.5222               565.9935
 Red. masses --      4.1553                 3.2688                 3.5794
 Frc consts  --      0.4168                 0.5901                 0.6756
 IR Inten    --      5.3811                 1.4975                 1.5675

                     16                     17                     18
                      A                      A                      A
 Frequencies --    611.4162               640.8737               665.0278
 Red. masses --      3.5909                 4.1131                 4.1425
 Frc consts  --      0.7909                 0.9953                 1.0794
 IR Inten    --     13.6505                13.4379                 2.4815

                     19                     20                     21
                      A                      A                      A
 Frequencies --    723.3369               767.6551               802.3866
 Red. masses --      3.7628                 3.4776                 1.2439
 Frc consts  --      1.1600                 1.2074                 0.4718
 IR Inten    --      0.9711                 5.2316                 0.6333

                     22                     23                     24
                      A                      A                      A
 Frequencies --    856.6669               971.9635               974.3813
 Red. masses --      1.4031                 2.2151                 2.3225
 Frc consts  --      0.6067                 1.2329                 1.2992
 IR Inten    --     16.5085                11.1844                35.6377

                     25                     26                     27
                      A                      A                      A
 Frequencies --   1036.1836              1051.0892              1064.9009
 Red. masses --      2.5686                 1.8023                 1.8034
 Frc consts  --      1.6249                 1.1731                 1.2049
 IR Inten    --     29.0772                 3.4805                14.1912

                     28                     29                     30
                      A                      A                      A
 Frequencies --   1081.3422              1098.7644              1109.8598
 Red. masses --      2.0877                 2.0733                 1.8278
 Frc consts  --      1.4383                 1.4747                 1.3265
 IR Inten    --      6.6038                 0.1790                 3.2818

                     31                     32                     33
                      A                      A                      A
 Frequencies --   1153.2004              1191.3268              1267.2522
 Red. masses --      1.2945                 1.7729                 3.8597
 Frc consts  --      1.0143                 1.4825                 3.6520
 IR Inten    --      0.0584                37.8993                80.0835

                     34                     35                     36
                      A                      A                      A
 Frequencies --   1294.1412              1332.5766              1369.7091
 Red. masses --      1.3309                 3.8840                 1.5502
 Frc consts  --      1.3132                 4.0636                 1.7135
 IR Inten    --      0.1062                25.1071                32.7932

                     37                     38                     39
                      A                      A                      A
 Frequencies --   1404.1779              1415.7984              1436.2020
 Red. masses --      1.9741                 2.0002                 1.2431
 Frc consts  --      2.2933                 2.3622                 1.5108
 IR Inten    --     43.4980                 2.2464                 4.5993

                     40                     41                     42
                      A                      A                      A
 Frequencies --   1463.2096              1486.0508              1494.7152
 Red. masses --      2.1105                 1.7859                 1.4792
 Frc consts  --      2.6622                 2.3237                 1.9471
 IR Inten    --     72.3906                59.2416                26.3059

                     43                     44                     45
                      A                      A                      A
 Frequencies --   1500.1663              1503.1036              1511.9000
 Red. masses --      2.4603                 1.0478                 1.0858
 Frc consts  --      3.2623                 1.3948                 1.4623
 IR Inten    --     43.5810                 1.2513                 2.7298

                     46                     47                     48
                      A                      A                      A
 Frequencies --   1526.5008              1527.5433              1534.2827
 Red. masses --      1.0455                 1.0415                 1.0883
 Frc consts  --      1.4354                 1.4319                 1.5095
 IR Inten    --     22.3720                 7.3795                 9.3124

                     49                     50                     51
                      A                      A                      A
 Frequencies --   1538.1704              1587.6698              1764.2431
 Red. masses --      1.1412                 5.9176                10.6345
 Frc consts  --      1.5909                 8.7885                19.5022
 IR Inten    --     20.0544                17.0480               171.1924

                     52                     53                     54
                      A                      A                      A
 Frequencies --   3050.1643              3051.6548              3058.2801
 Red. masses --      1.0618                 1.0375                 1.0378
 Frc consts  --      5.8203                 5.6924                 5.7188
 IR Inten    --     26.0074                33.2729                 1.6457

                     55                     56                     57
                      A                      A                      A
 Frequencies --   3073.7973              3097.5311              3120.7415
 Red. masses --      1.0348                 1.0991                 1.1005
 Frc consts  --      5.7603                 6.2131                 6.3150
 IR Inten    --     48.1369                 2.2580                 4.0435

                     58                     59                     60
                      A                      A                      A
 Frequencies --   3121.8343              3127.7031              3137.5393
 Red. masses --      1.1022                 1.1037                 1.1055
 Frc consts  --      6.3291                 6.3611                 6.4118
 IR Inten    --     47.3347                35.0401                23.6516

                     61                     62                     63
                      A                      A                      A
 Frequencies --   3171.3121              3191.0740              3289.9391
 Red. masses --      1.1015                 1.1012                 1.0970
 Frc consts  --      6.5270                 6.6065                 6.9958
 IR Inten    --      9.4072                 2.0553                 0.5108

 - Thermochemistry -
 -------------------
 Temperature   298.150 Kelvin.  Pressure   1.00000 Atm.
 Atom     1 has atomic number  6 and mass  12.00000

 Molecular mass:   152.09496 amu.
 Principal axes and moments of inertia in atomic units:
                           1         2         3
     Eigenvalues --   900.967902574.247623306.02022
           X            0.99909  -0.04259   0.00191
           Y            0.04259   0.99909   0.00089
           Z           -0.00195  -0.00081   1.00000
 This molecule is an asymmetric top.
 Rotational symmetry number  1.
 Warning -- assumption of classical behavior for rotation
           may cause significant error
 Rotational temperatures (Kelvin)      0.09613     0.03365     0.02620
 Rotational constants (GHZ):           2.00311     0.70108     0.54590
 Zero-point vibrational energy     509391.5 (Joules/Mol)
                                  121.74749 (Kcal/Mol)
 Warning -- explicit consideration of  16 degrees of freedom as
           vibrations may cause significant error
 Vibrational temperatures:     34.69    56.28   138.40   160.03   246.38
          (Kelvin)            258.69   310.10   343.77   377.55   442.15
                              477.59   581.71   593.66   796.39   814.34
                              879.69   922.07   956.83  1040.72  1104.48
                             1154.46  1232.55  1398.44  1401.92  1490.84
                             1512.28  1532.15  1555.81  1580.88  1596.84
                             1659.20  1714.05  1823.29  1861.98  1917.28
                             1970.71  2020.30  2037.02  2066.37  2105.23
                             2138.10  2150.56  2158.40  2162.63  2175.29
                             2196.29  2197.79  2207.49  2213.08  2284.30
                             2538.35  4388.51  4390.65  4400.18  4422.51
                             4456.66  4490.05  4491.62  4500.07  4514.22
                             4562.81  4591.24  4733.49

 Zero-point correction=                           0.194017 (Hartree/Particle)
 Thermal correction to Energy=                    0.205679
 Thermal correction to Enthalpy=                  0.206623
 Thermal correction to Gibbs Free Energy=         0.155059
 Sum of electronic and zero-point Energies=           -496.634648
 Sum of electronic and thermal Energies=              -496.622986
 Sum of electronic and thermal Enthalpies=            -496.622041
 Sum of electronic and thermal Free Energies=         -496.673606

                     E (Thermal)             CV                S
                      KCal/Mol        Cal/Mol-Kelvin    Cal/Mol-Kelvin
 Total                  129.066             41.634            108.526
 Electronic               0.000              0.000              0.000
 Translational            0.889              2.981             40.968
 Rotational               0.889              2.981             30.418
 Vibrational            127.288             35.672             37.140
 Vibration     1          0.593              1.985              6.263
 Vibration     2          0.594              1.981              5.303
 Vibration     3          0.603              1.952              3.530
 Vibration     4          0.607              1.940              3.247
 Vibration     5          0.626              1.878              2.422
 Vibration     6          0.629              1.867              2.330
 Vibration     7          0.645              1.817              1.996
 Vibration     8          0.657              1.781              1.811
 Vibration     9          0.670              1.742              1.646
 Vibration    10          0.697              1.660              1.377
 Vibration    11          0.714              1.612              1.251
 Vibration    12          0.769              1.461              0.947
 Vibration    13          0.776              1.443              0.917
 Vibration    14          0.909              1.132              0.537
 Vibration    15          0.922              1.105              0.512
 Vibration    16          0.971              1.008              0.430

 Optimization completed.
    -- Stationary point found.
 Normal termination of Gaussian 16 at Tue Dec  8 21:46:09 2020.

 ----------------------------------------------------------------------
 # B3LYP/6-311++G(d,p) empiricaldispersion=gd3bj scf=xqc pop=npa geom=c
 heck
 ----------------------------------------------------------------------

 --------------------------------------
 CID_23397366_JID_1942_Energie_neutraal
 --------------------------------------
 Structure from the checkpoint file:  "JID_1942.chk"
 Charge =  0 Multiplicity = 1

 SCF Done:  E(RB3LYP) =  -496.965830773     A.U. after   15 cycles
 Normal termination of Gaussian 16 at Tue Dec  8 21:48:28 2020.

 ----------------------------------------------------------------------
 # B3LYP/6-311++G(d,p) empiricaldispersion=gd3bj scf=xqc pop=npa geom=c
 heck
 ----------------------------------------------------------------------

 ------------------------------------
 CID_23397366_JID_1942_Energie_kation
 ------------------------------------
 Structure from the checkpoint file:  "JID_1942.chk"
 Charge =  1 Multiplicity = 2

 SCF Done:  E(UB3LYP) =  -496.639001099     A.U. after   31 cycles
 Normal termination of Gaussian 16 at Tue Dec  8 21:54:28 2020.
 Gaussian 16:  ES64L-G16RevA.03 25-Dec-2016

 ----------------------------------------------------------------------
 # B3LYP/6-311++G(d,p) empiricaldispersion=gd3bj scf=xqc pop=npa geom=c
 heck
 ----------------------------------------------------------------------

 -----------------------------------
 CID_23397366_JID_1942_Energie_anion
 -----------------------------------
 Structure from the checkpoint file:  "JID_1942.chk"
 Charge = -1 Multiplicity = 2

                         Standard orientation:
 ---------------------------------------------------------------------
 Center     Atomic      Atomic             Coordinates (Angstroms)
 Number     Number       Type             X           Y           Z
 ---------------------------------------------------------------------
      1          6           0        3.654687   -0.669127    0.763348
      2          6           0        2.988372   -0.070889   -0.485831
      3          6           0        1.503575    0.076359   -0.332564
      4          7           0        0.952343    1.289293   -0.176211
      5          7           0       -0.372263    1.083706   -0.031491
      6          6           0       -0.690167   -0.255105   -0.092330
      7          6           0        0.515083   -0.921662   -0.285917
      8          6           0       -2.013659   -0.904305    0.016676
      9          8           0       -2.079670   -2.122459   -0.071715
     10          6           0       -3.271433   -0.083369    0.236370
     11          6           0       -1.210778    2.256324    0.143507
     12          1           0        3.480175   -0.031914    1.636817
     13          1           0        4.736426   -0.767627    0.620356
     14          1           0        3.250057   -1.662284    0.987745
     15          1           0        3.409853    0.917279   -0.697842
     16          1           0        3.204904   -0.706091   -1.354178
     17          1           0        0.625069   -1.991593   -0.378560
     18          1           0       -3.215507    0.491590    1.167477
     19          1           0       -3.432433    0.627936   -0.581385
     20          1           0       -4.118083   -0.769663    0.287758
     21          1           0       -0.539840    3.114274    0.129664
     22          1           0       -1.936667    2.350989   -0.668960
     23          1           0       -1.741217    2.226424    1.099191
 ---------------------------------------------------------------------

 SCF Done:  E(UB3LYP) =  -496.963632268     A.U. after   33 cycles
 SCF Done:  E(UB3LYP) =  -496.963706587     a.u. after   11 cycles

 The electronic state is 2-A.
 Alpha  occ. eigenvalues --  -18.90145 -14.21857 -14.15959 -10.07867 -10.05126
 Alpha  occ. eigenvalues --  -10.04673 -10.04543 -10.03680 -10.03204 -10.02253
 Alpha  occ. eigenvalues --   -9.99276  -0.88761  -0.84491  -0.69830  -0.64105
 Alpha  occ. eigenvalues --   -0.62721  -0.58216  -0.55695  -0.50207  -0.45248
 Alpha  occ. eigenvalues --   -0.42060  -0.38695  -0.34062  -0.33859  -0.31815
 Alpha  occ. eigenvalues --   -0.31257  -0.29328  -0.28442  -0.28022  -0.26855
 Alpha  occ. eigenvalues --   -0.26187  -0.24434  -0.24191  -0.22976  -0.22088
 Alpha  occ. eigenvalues --   -0.20838  -0.19288  -0.14078  -0.09603  -0.09145
 Alpha  occ. eigenvalues --   -0.07179   0.06342
 Alpha virt. eigenvalues --    0.07836   0.08551   0.10545   0.10794   0.11659
 Alpha virt. eigenvalues --    0.11946   0.12284   0.13408   0.14376   0.14864
 Alpha virt. eigenvalues --    0.15280   0.15872   0.16052   0.17571   0.18114

  Beta  occ. eigenvalues --  -18.89518 -14.21488 -14.15667 -10.07883 -10.04686
  Beta  occ. eigenvalues --  -10.04668 -10.04540 -10.03777 -10.03158 -10.02285
  Beta  occ. eigenvalues --   -9.99121  -0.88236  -0.83343  -0.69574  -0.64040
  Beta  occ. eigenvalues --   -0.62247  -0.57938  -0.55599  -0.50098  -0.44481
  Beta  occ. eigenvalues --   -0.41650  -0.38479  -0.33766  -0.33255  -0.31686
  Beta  occ. eigenvalues --   -0.31100  -0.29244  -0.27881  -0.27760  -0.26687
  Beta  occ. eigenvalues --   -0.25901  -0.24278  -0.23572  -0.22708  -0.21805
  Beta  occ. eigenvalues --   -0.20686  -0.16490  -0.13700  -0.08492  -0.07292
  Beta  occ. eigenvalues --   -0.06621
  Beta virt. eigenvalues --    0.08038   0.08513   0.10468   0.10672   0.11577
  Beta virt. eigenvalues --    0.11800   0.12248   0.13220   0.13341   0.14427
  Beta virt. eigenvalues --    0.14815   0.15402   0.15760   0.15950   0.17485

 Mulliken charges and spin densities:
               1          2
     1  C   -0.271606  -0.260338
     2  C   -0.644689   0.205083
     3  C    0.495416  -0.272826
     4  N   -0.194059   0.175146
     5  N    0.138279   0.096831
     6  C    0.184222  -0.015130
     7  C   -0.328371   0.192993
     8  C   -0.346725   0.376502
     9  O   -0.452986   0.221148
    10  C   -0.447887  -0.096040
    11  C   -0.206865  -0.092798
    12  H    0.133422  -0.008646
    13  H   -0.109747   0.216259
    14  H    0.071076   0.060267
    15  H    0.096028   0.036169
    16  H    0.130422  -0.020525
    17  H    0.164746  -0.009548
    18  H    0.122424  -0.016497
    19  H    0.033840   0.072206
    20  H    0.139066   0.016427
    21  H    0.141040   0.010331
    22  H    0.131440  -0.000389
    23  H    0.021517   0.113376
 Sum of Mulliken charges =  -1.00000   1.00000

 Dipole moment (field-independent basis, Debye):
    X=              1.1617    Y=              3.7648    Z=              0.1379  Tot=              3.9424
 Quadrupole moment (field-independent basis, Debye-Ang):
   XX=           -102.4041   YY=            -90.6321   ZZ=            -75.5674
   XY=            -12.4161   XZ=             -2.1391   YZ=              0.1362

 Summary of Natural Population Analysis:

                                       Natural Population
                Natural  -----------------------------------------------
    Atom  No    Charge         Core      Valence    Rydberg      Total
 -----------------------------------------------------------------------
      C    1   -0.28332      0.99967     2.27754    0.00611     3.28332
      C    2   -0.20106      0.99960     2.19160    0.00985     3.20106
      C    3    0.03545      0.99958     1.95047    0.01450     2.96455
      N    4   -0.13539      0.99970     2.62357    0.01212     3.63539
      N    5   -0.06490      0.99964     2.55332    0.01194     3.56490
      C    6    0.04893      0.99949     1.93992    0.01166     2.95107
      C    7   -0.11636      0.99946     2.10899    0.00791     3.11636
      C    8    0.30351      0.99965     1.67658    0.02026     2.69649
      O    9   -0.24569      0.99988     3.23950    0.00630     4.24569
      C   10   -0.32835      0.99965     2.32366    0.00504     3.32835
      C   11   -0.17367      0.99966     2.16731    0.00670     3.17367
      H   12    0.09698      0.00000     0.40203    0.00099     0.40302
      H   13    0.08788      0.00000     0.41041    0.00171     0.41212
      H   14    0.09761      0.00000     0.40132    0.00108     0.40239
      H   15    0.09954      0.00000     0.39884    0.00161     0.40046
      H   16    0.09263      0.00000     0.40628    0.00109     0.40737
      H   17    0.10676      0.00000     0.39228    0.00096     0.39324
      H   18    0.09601      0.00000     0.40235    0.00163     0.40399
      H   19    0.09580      0.00000     0.40207    0.00213     0.40420
      H   20    0.10094      0.00000     0.39647    0.00259     0.39906
      H   21    0.10407      0.00000     0.39465    0.00128     0.39593
      H   22    0.09108      0.00000     0.40778    0.00114     0.40892
      H   23    0.09156      0.00000     0.40648    0.00196     0.40844
 =======================================================================
   * Total *    0.00000     10.99598    29.87345    0.13058    41.00000

 Normal termination of Gaussian 16 at Tue Dec  8 22:50:58 2020.
