 Gaussian 16, Revision A.03,

 -----------------------------------------------------------
 # opt freq B3LYP/6-31G(d) empiricaldispersion=gd3bj scf=xqc
 -----------------------------------------------------------

 -------------------------------
 CID_137703637_JID_5880_neutraal
 -------------------------------
 Symbolic Z-matrix:
 Charge =  0 Multiplicity = 1

 SCF Done:  E(RB3LYP) =  -670.122665142     A.U. after   14 cycles
 SCF Done:  E(RB3LYP) =  -670.126088692     A.U. after   12 cycles
 SCF Done:  E(RB3LYP) =  -670.126924412     A.U. after   12 cycles
 SCF Done:  E(RB3LYP) =  -670.127369922     A.U. after   12 cycles
 SCF Done:  E(RB3LYP) =  -670.127897403     A.U. after   12 cycles
 SCF Done:  E(RB3LYP) =  -670.128849379     A.U. after   14 cycles
 SCF Done:  E(RB3LYP) =  -670.129512027     A.U. after   14 cycles
 SCF Done:  E(RB3LYP) =  -670.130073122     A.U. after   11 cycles
 SCF Done:  E(RB3LYP) =  -670.130230877     A.U. after   12 cycles
 SCF Done:  E(RB3LYP) =  -670.130287108     A.U. after   10 cycles
 SCF Done:  E(RB3LYP) =  -670.131586064     A.U. after   10 cycles
 SCF Done:  E(RB3LYP) =  -670.131603254     A.U. after   10 cycles
 SCF Done:  E(RB3LYP) =  -670.131590849     A.U. after   11 cycles
 SCF Done:  E(RB3LYP) =  -670.131604276     A.U. after   11 cycles
 SCF Done:  E(RB3LYP) =  -670.131609777     A.U. after   10 cycles
 SCF Done:  E(RB3LYP) =  -670.131609838     A.U. after    7 cycles
 Optimization completed.
    -- Stationary point found.
 Normal termination of Gaussian 16 at Thu Dec 10 17:40:32 2020.

 --------------------------------------------------------------------
 #N Geom=AllCheck Guess=TCheck SCRF=Check GenChk RB3LYP/6-31G(d) Freq
 --------------------------------------------------------------------

 Structure from the checkpoint file:  "JID_5880.chk"
 -------------------------------
 CID_137703637_JID_5880_neutraal
 -------------------------------
 Charge =  0 Multiplicity = 1

 SCF Done:  E(RB3LYP) =  -670.131609838     A.U. after    1 cycles

  Exact polarizability: 156.394  -4.644 123.898  -8.373  -2.930 109.618
 Approx polarizability: 198.450  -4.538 198.522 -12.359 -11.006 161.698

                      1                      2                      3
                      A                      A                      A
 Frequencies --     36.6788                41.9543                67.7586
 Red. masses --      3.6273                 2.6004                 3.0213
 Frc consts  --      0.0029                 0.0027                 0.0082
 IR Inten    --      0.9556                 2.1648                 0.2072

                      4                      5                      6
                      A                      A                      A
 Frequencies --     92.8101               143.8231               148.9380
 Red. masses --      4.2509                 2.8939                 2.4890
 Frc consts  --      0.0216                 0.0353                 0.0325
 IR Inten    --      1.2299                 1.1865                 0.7950

                      7                      8                      9
                      A                      A                      A
 Frequencies --    179.8217               205.3242               221.8990
 Red. masses --      2.0109                 1.2109                 2.9708
 Frc consts  --      0.0383                 0.0301                 0.0862
 IR Inten    --      2.0612                 0.4074                 2.9692

                     10                     11                     12
                      A                      A                      A
 Frequencies --    237.1156               259.3922               296.9407
 Red. masses --      1.8147                 2.5960                 1.2069
 Frc consts  --      0.0601                 0.1029                 0.0627
 IR Inten    --      0.3748                 0.5614                 0.4220

                     13                     14                     15
                      A                      A                      A
 Frequencies --    312.7441               336.8851               355.2084
 Red. masses --      3.1435                 2.5430                 2.2401
 Frc consts  --      0.1811                 0.1700                 0.1665
 IR Inten    --      0.3661                 1.9836                 1.1975

                     16                     17                     18
                      A                      A                      A
 Frequencies --    373.3921               400.2652               469.3124
 Red. masses --      2.9040                 2.1128                 2.2441
 Frc consts  --      0.2386                 0.1994                 0.2912
 IR Inten    --      1.3397                 3.6921                 6.5748

                     19                     20                     21
                      A                      A                      A
 Frequencies --    493.5033               552.4324               604.4779
 Red. masses --      3.8690                 3.9358                 3.6334
 Frc consts  --      0.5552                 0.7077                 0.7822
 IR Inten    --      3.5068                18.0689                 1.9631

                     22                     23                     24
                      A                      A                      A
 Frequencies --    613.7372               668.4690               693.0910
 Red. masses --      3.7515                 4.6008                 3.9064
 Frc consts  --      0.8326                 1.2113                 1.1056
 IR Inten    --      3.9266                 0.2003                 3.6459

                     25                     26                     27
                      A                      A                      A
 Frequencies --    717.1088               745.0752               786.7550
 Red. masses --      4.5014                 2.9028                 1.8862
 Frc consts  --      1.3638                 0.9494                 0.6879
 IR Inten    --      2.1635                21.4324                74.9373

                     28                     29                     30
                      A                      A                      A
 Frequencies --    791.5296               812.9321               861.7275
 Red. masses --      2.3764                 1.3021                 2.4503
 Frc consts  --      0.8772                 0.5070                 1.0720
 IR Inten    --     13.7495                 8.3581                 1.3512

                     31                     32                     33
                      A                      A                      A
 Frequencies --    884.5801               894.2765               955.9287
 Red. masses --      2.4876                 1.7151                 1.8563
 Frc consts  --      1.1468                 0.8081                 0.9994
 IR Inten    --      0.2154                 2.9629                 0.6568

                     34                     35                     36
                      A                      A                      A
 Frequencies --    965.4473               973.2060               983.6140
 Red. masses --      2.0647                 3.0495                 2.9555
 Frc consts  --      1.1339                 1.7017                 1.6847
 IR Inten    --      3.8550                 4.8258                 6.4808

                     37                     38                     39
                      A                      A                      A
 Frequencies --    996.4047              1022.2286              1042.0528
 Red. masses --      3.4979                 3.3336                 2.5329
 Frc consts  --      2.0461                 2.0524                 1.6205
 IR Inten    --      2.0514                20.8643                 1.1102

                     40                     41                     42
                      A                      A                      A
 Frequencies --   1059.1259              1083.7332              1096.8595
 Red. masses --      3.9606                 1.4708                 1.8106
 Frc consts  --      2.6176                 1.0177                 1.2834
 IR Inten    --     12.4292                 1.1378                10.1718

                     43                     44                     45
                      A                      A                      A
 Frequencies --   1110.1462              1129.0247              1135.4338
 Red. masses --      2.2210                 1.5376                 1.5133
 Frc consts  --      1.6128                 1.1548                 1.1494
 IR Inten    --      1.7990                 0.0198                12.2461

                     46                     47                     48
                      A                      A                      A
 Frequencies --   1154.6883              1165.3869              1172.7699
 Red. masses --      1.9284                 2.2440                 2.2205
 Frc consts  --      1.5149                 1.7956                 1.7994
 IR Inten    --     40.8706                11.1982                12.9617

                     49                     50                     51
                      A                      A                      A
 Frequencies --   1208.2037              1249.2271              1279.0859
 Red. masses --      2.9756                 2.1231                 1.5499
 Frc consts  --      2.5592                 1.9521                 1.4940
 IR Inten    --     42.7158                19.4904                11.7987

                     52                     53                     54
                      A                      A                      A
 Frequencies --   1296.1887              1297.7626              1306.9334
 Red. masses --      1.1666                 1.3202                 1.5051
 Frc consts  --      1.1548                 1.3100                 1.5147
 IR Inten    --      0.3057                 3.4736                10.6147

                     55                     56                     57
                      A                      A                      A
 Frequencies --   1358.5704              1368.6971              1379.0893
 Red. masses --      1.6396                 1.3626                 1.2592
 Frc consts  --      1.7830                 1.5039                 1.4110
 IR Inten    --     14.8792                 4.1155                 7.0642

                     58                     59                     60
                      A                      A                      A
 Frequencies --   1387.7795              1394.1901              1407.7938
 Red. masses --      1.3279                 1.4968                 1.4386
 Frc consts  --      1.5068                 1.7142                 1.6798
 IR Inten    --      0.0320                 4.8798                 8.6395

                     61                     62                     63
                      A                      A                      A
 Frequencies --   1430.0106              1435.1935              1439.9302
 Red. masses --      1.2249                 1.8313                 1.2715
 Frc consts  --      1.4758                 2.2224                 1.5532
 IR Inten    --      4.7459                19.5954                 6.1852

                     64                     65                     66
                      A                      A                      A
 Frequencies --   1448.0687              1453.7422              1501.4218
 Red. masses --      1.3111                 1.4937                 1.0901
 Frc consts  --      1.6198                 1.8599                 1.4478
 IR Inten    --      0.2509                 5.0065                 1.6565

                     67                     68                     69
                      A                      A                      A
 Frequencies --   1508.1247              1513.3368              1516.6913
 Red. masses --      1.1020                 1.0666                 1.0976
 Frc consts  --      1.4767                 1.4392                 1.4877
 IR Inten    --      1.4315                 7.0082                 3.1610

                     70                     71                     72
                      A                      A                      A
 Frequencies --   1519.2214              1523.6332              1529.4437
 Red. masses --      1.1127                 1.0380                 1.1640
 Frc consts  --      1.5131                 1.4198                 1.6042
 IR Inten    --      1.4726                 6.2578                 1.7015

                     73                     74                     75
                      A                      A                      A
 Frequencies --   1531.2278              1533.7476              1547.5409
 Red. masses --      1.0553                 1.0743                 1.0550
 Frc consts  --      1.4579                 1.4889                 1.4887
 IR Inten    --      5.1834                 4.5219                 6.6554

                     76                     77                     78
                      A                      A                      A
 Frequencies --   1613.5064              1637.7088              3004.9748
 Red. masses --     10.1191                 8.8172                 1.0817
 Frc consts  --     15.5215                13.9333                 5.7549
 IR Inten    --     52.3416                31.9518                11.3273

                     79                     80                     81
                      A                      A                      A
 Frequencies --   3029.8397              3032.6347              3043.3203
 Red. masses --      1.0790                 1.0816                 1.0602
 Frc consts  --      5.8362                 5.8606                 5.7853
 IR Inten    --     10.3081                25.0698                12.9467

                     82                     83                     84
                      A                      A                      A
 Frequencies --   3045.5148              3051.0014              3063.5717
 Red. masses --      1.0729                 1.0709                 1.0415
 Frc consts  --      5.8634                 5.8732                 5.7590
 IR Inten    --     33.5646               107.2869                22.7650

                     85                     86                     87
                      A                      A                      A
 Frequencies --   3068.0288              3070.3975              3071.8551
 Red. masses --      1.0436                 1.1020                 1.0353
 Frc consts  --      5.7876                 6.1207                 5.7558
 IR Inten    --     17.3213                10.2500                23.0329

                     88                     89                     90
                      A                      A                      A
 Frequencies --   3096.7985              3108.7537              3129.0485
 Red. masses --      1.0977                 1.0959                 1.1016
 Frc consts  --      6.2021                 6.2401                 6.3548
 IR Inten    --     26.1700                13.2737                27.8935

                     91                     92                     93
                      A                      A                      A
 Frequencies --   3132.0611              3143.1031              3149.4568
 Red. masses --      1.0995                 1.1034                 1.1033
 Frc consts  --      6.3550                 6.4223                 6.4476
 IR Inten    --     29.9338                25.0265                18.2916

                     94                     95                     96
                      A                      A                      A
 Frequencies --   3156.9850              3188.7320              3484.7079
 Red. masses --      1.0999                 1.0947                 1.0743
 Frc consts  --      6.4588                 6.5580                 7.6863
 IR Inten    --     29.2636                22.5297                 2.2487

 - Thermochemistry -
 -------------------
 Temperature   298.150 Kelvin.  Pressure   1.00000 Atm.
 Atom     1 has atomic number  6 and mass  12.00000

 Molecular mass:   209.15281 amu.
 Principal axes and moments of inertia in atomic units:
                           1         2         3
     Eigenvalues --  1513.931804896.513445168.30332
           X            0.99992  -0.01018  -0.00803
           Y            0.01006   0.99985  -0.01435
           Z            0.00817   0.01427   0.99986
 This molecule is an asymmetric top.
 Rotational symmetry number  1.
 Warning -- assumption of classical behavior for rotation
           may cause significant error
 Rotational temperatures (Kelvin)      0.05721     0.01769     0.01676
 Rotational constants (GHZ):           1.19209     0.36858     0.34919
 Zero-point vibrational energy     789731.9 (Joules/Mol)
                                  188.75046 (Kcal/Mol)
 Warning -- explicit consideration of  22 degrees of freedom as
           vibrations may cause significant error
 Vibrational temperatures:     52.77    60.36    97.49   133.53   206.93
          (Kelvin)            214.29   258.72   295.42   319.26   341.16
                              373.21   427.23   449.97   484.70   511.07
                              537.23   575.89   675.24   710.04   794.83
                              869.71   883.03   961.78   997.20  1031.76
                             1072.00  1131.96  1138.83  1169.63  1239.83
                             1272.71  1286.66  1375.37  1389.06  1400.23
                             1415.20  1433.60  1470.76  1499.28  1523.85
                             1559.25  1578.14  1597.25  1624.41  1633.64
                             1661.34  1676.73  1687.35  1738.34  1797.36
                             1840.32  1864.93  1867.19  1880.39  1954.68
                             1969.25  1984.20  1996.71  2005.93  2025.50
                             2057.47  2064.92  2071.74  2083.45  2091.61
                             2160.21  2169.86  2177.35  2182.18  2185.82
                             2192.17  2200.53  2203.10  2206.72  2226.57
                             2321.48  2356.30  4323.49  4359.26  4363.28
                             4378.66  4381.82  4389.71  4407.80  4414.21
                             4417.62  4419.71  4455.60  4472.80  4502.00
                             4506.34  4522.22  4531.37  4542.20  4587.87
                             5013.72

 Zero-point correction=                           0.300793 (Hartree/Particle)
 Thermal correction to Energy=                    0.315555
 Thermal correction to Enthalpy=                  0.316499
 Thermal correction to Gibbs Free Energy=         0.258714
 Sum of electronic and zero-point Energies=           -669.830817
 Sum of electronic and thermal Energies=              -669.816055
 Sum of electronic and thermal Enthalpies=            -669.815111
 Sum of electronic and thermal Free Energies=         -669.872896

                     E (Thermal)             CV                S
                      KCal/Mol        Cal/Mol-Kelvin    Cal/Mol-Kelvin
 Total                  198.014             56.737            121.619
 Electronic               0.000              0.000              0.000
 Translational            0.889              2.981             41.918
 Rotational               0.889              2.981             32.016
 Vibrational            196.236             50.776             47.685
 Vibration     1          0.594              1.982              5.431
 Vibration     2          0.595              1.980              5.165
 Vibration     3          0.598              1.970              4.217
 Vibration     4          0.602              1.954              3.600
 Vibration     5          0.616              1.909              2.752
 Vibration     6          0.618              1.904              2.686
 Vibration     7          0.629              1.867              2.330
 Vibration     8          0.640              1.832              2.085
 Vibration     9          0.648              1.808              1.944
 Vibration    10          0.656              1.784              1.824
 Vibration    11          0.668              1.747              1.666
 Vibration    12          0.691              1.679              1.434
 Vibration    13          0.701              1.649              1.348
 Vibration    14          0.718              1.602              1.227
 Vibration    15          0.731              1.565              1.143
 Vibration    16          0.745              1.527              1.066
 Vibration    17          0.766              1.470              0.962
 Vibration    18          0.826              1.318              0.739
 Vibration    19          0.849              1.264              0.675
 Vibration    20          0.908              1.134              0.539
 Vibration    21          0.963              1.022              0.442
 Vibration    22          0.973              1.003              0.427

                           ! Non-Optimized Parameters !
 Normal termination of Gaussian 16 at Thu Dec 10 17:53:16 2020.

 ----------------------------------------------------------------------
 # B3LYP/6-311++G(d,p) empiricaldispersion=gd3bj scf=xqc pop=npa geom=c
 heck
 ----------------------------------------------------------------------

 ---------------------------------------
 CID_137703637_JID_5880_Energie_neutraal
 ---------------------------------------
 Structure from the checkpoint file:  "JID_5880.chk"
 Charge =  0 Multiplicity = 1

 SCF Done:  E(RB3LYP) =  -670.315114301     A.U. after   14 cycles
 Normal termination of Gaussian 16 at Thu Dec 10 17:58:59 2020.

 ----------------------------------------------------------------------
 # B3LYP/6-311++G(d,p) empiricaldispersion=gd3bj scf=xqc pop=npa geom=c
 heck
 ----------------------------------------------------------------------

 -------------------------------------
 CID_137703637_JID_5880_Energie_kation
 -------------------------------------
 Structure from the checkpoint file:  "JID_5880.chk"
 Charge =  1 Multiplicity = 2

 SCF Done:  E(UB3LYP) =  -670.014831017     A.U. after   23 cycles
 Normal termination of Gaussian 16 at Thu Dec 10 18:12:21 2020.
 Gaussian 16:  ES64L-G16RevA.03 25-Dec-2016

 ----------------------------------------------------------------------
 # B3LYP/6-311++G(d,p) empiricaldispersion=gd3bj scf=xqc pop=npa geom=c
 heck
 ----------------------------------------------------------------------

 ------------------------------------
 CID_137703637_JID_5880_Energie_anion
 ------------------------------------
 Structure from the checkpoint file:  "JID_5880.chk"
 Charge = -1 Multiplicity = 2

                         Standard orientation:
 ---------------------------------------------------------------------
 Center     Atomic      Atomic             Coordinates (Angstroms)
 Number     Number       Type             X           Y           Z
 ---------------------------------------------------------------------
      1          6           0       -4.753843   -0.113272    0.698790
      2          6           0       -3.674818    0.741325    0.029708
      3          6           0       -2.406013   -0.010289   -0.178543
      4          7           0       -2.121133   -1.236285    0.120976
      5          7           0       -0.789191   -1.444206   -0.277730
      6          6           0       -0.371675   -0.326598   -0.780135
      7          8           0       -1.348833    0.636595   -0.760968
      8          6           0        0.942980    0.013117   -1.407168
      9          6           0        1.445316    1.424883   -1.034848
     10          6           0        2.052696    1.500773    0.380499
     11          7           0        3.082440    0.471679    0.611365
     12          6           0        2.737617   -0.918747    0.243601
     13          6           0        2.036205   -1.041097   -1.133214
     14          6           0        2.018758   -1.650953    1.383816
     15          6           0        0.998244    1.522791    1.494687
     16          1           0       -4.988022   -0.991581    0.091077
     17          1           0       -5.667539    0.473206    0.834164
     18          1           0       -4.418000   -0.469491    1.676485
     19          1           0       -4.022965    1.115102   -0.942416
     20          1           0       -3.455599    1.632198    0.633200
     21          1           0        0.752363    0.016576   -2.490964
     22          1           0        2.227416    1.687086   -1.759453
     23          1           0        0.641409    2.159284   -1.153898
     24          1           0        2.587195    2.457260    0.447418
     25          1           0        3.902463    0.739091    0.070308
     26          1           0        3.707161   -1.421532    0.135665
     27          1           0        1.624974   -2.047249   -1.260781
     28          1           0        2.796532   -0.901004   -1.912605
     29          1           0        1.969864   -2.723054    1.163871
     30          1           0        2.577725   -1.504078    2.312920
     31          1           0        0.993477   -1.315743    1.533693
     32          1           0        1.495809    1.568670    2.467496
     33          1           0        0.353412    2.402010    1.383760
     34          1           0        0.355366    0.640564    1.492367
 ---------------------------------------------------------------------

 SCF Done:  E(UB3LYP) =  -670.306826970     A.U. after   30 cycles

 The electronic state is 2-A.
 Alpha  occ. eigenvalues --  -19.10805 -14.23719 -14.23268 -14.18973 -10.17041
 Alpha  occ. eigenvalues --  -10.16533 -10.10320 -10.09652 -10.09642 -10.09559
 Alpha  occ. eigenvalues --  -10.07996 -10.06673 -10.06616 -10.05576 -10.04890
 Alpha  occ. eigenvalues --   -1.05677  -0.87729  -0.80905  -0.76383  -0.70402
 Alpha  occ. eigenvalues --   -0.68021  -0.67046  -0.61983  -0.58669  -0.57534
 Alpha  occ. eigenvalues --   -0.55719  -0.50800  -0.49581  -0.48846  -0.43460
 Alpha  occ. eigenvalues --   -0.42074  -0.41239  -0.39666  -0.37431  -0.35824
 Alpha  occ. eigenvalues --   -0.34780  -0.34368  -0.33733  -0.32613  -0.30836
 Alpha  occ. eigenvalues --   -0.30600  -0.30422  -0.29409  -0.28659  -0.28027
 Alpha  occ. eigenvalues --   -0.27275  -0.26967  -0.25171  -0.24438  -0.24309
 Alpha  occ. eigenvalues --   -0.23713  -0.22180  -0.21889  -0.21171  -0.18325
 Alpha  occ. eigenvalues --   -0.16887  -0.12185   0.03953
 Alpha virt. eigenvalues --    0.05600   0.07294   0.07545   0.08378   0.08679
 Alpha virt. eigenvalues --    0.08824   0.09371   0.10213   0.10464   0.10605
 Alpha virt. eigenvalues --    0.11335   0.11469   0.12365   0.12730   0.13052

  Beta  occ. eigenvalues --  -19.10786 -14.23722 -14.23254 -14.18956 -10.17023
  Beta  occ. eigenvalues --  -10.16504 -10.10294 -10.09642 -10.09635 -10.09553
  Beta  occ. eigenvalues --  -10.07978 -10.06652 -10.06584 -10.05560 -10.04885
  Beta  occ. eigenvalues --   -1.05645  -0.87707  -0.80862  -0.76336  -0.70354
  Beta  occ. eigenvalues --   -0.67988  -0.67011  -0.61952  -0.58631  -0.57488
  Beta  occ. eigenvalues --   -0.55659  -0.50759  -0.49540  -0.48807  -0.43402
  Beta  occ. eigenvalues --   -0.41984  -0.41180  -0.39619  -0.37376  -0.35783
  Beta  occ. eigenvalues --   -0.34736  -0.34338  -0.33701  -0.32576  -0.30805
  Beta  occ. eigenvalues --   -0.30557  -0.30377  -0.29376  -0.28618  -0.27988
  Beta  occ. eigenvalues --   -0.27241  -0.26945  -0.25136  -0.24380  -0.24269
  Beta  occ. eigenvalues --   -0.23681  -0.22147  -0.21853  -0.21135  -0.18306
  Beta  occ. eigenvalues --   -0.16781  -0.12158
  Beta virt. eigenvalues --    0.06148   0.06681   0.07830   0.08030   0.08800
  Beta virt. eigenvalues --    0.09050   0.09238   0.09674   0.10590   0.10634
  Beta virt. eigenvalues --    0.10856   0.11693   0.11934   0.12462   0.12943

 Mulliken charges and spin densities:
               1          2
     1  C    0.253437  -0.884584
     2  C   -1.274110   1.245666
     3  C    1.025251  -0.762082
     4  N    0.010686  -0.078092
     5  N   -0.044035   0.104823
     6  C    0.900836  -1.724764
     7  O    0.062147   0.042460
     8  C    0.242585   0.386687
     9  C   -0.481645  -0.372301
    10  C    0.295510  -0.201828
    11  N   -0.210563   0.099354
    12  C    0.734074  -0.657419
    13  C   -0.571115  -0.189088
    14  C   -0.469914  -0.181200
    15  C    0.035497  -0.660037
    16  H    0.068832   0.094558
    17  H   -0.318266   0.467972
    18  H    0.123775   0.033423
    19  H   -0.272567   0.449688
    20  H   -0.099573   0.259629
    21  H   -0.373214   0.644985
    22  H   -0.447760   0.632861
    23  H   -0.128418   0.327024
    24  H   -0.253695   0.466366
    25  H   -0.089086   0.348748
    26  H   -0.062156   0.246536
    27  H    0.156616   0.027736
    28  H   -0.384832   0.568906
    29  H    0.086438   0.035429
    30  H    0.120560   0.018864
    31  H    0.074722   0.056038
    32  H    0.135979   0.020814
    33  H   -0.065616   0.198685
    34  H    0.219619  -0.065856
 Sum of Mulliken charges =  -1.00000   1.00000

 Dipole moment (field-independent basis, Debye):
    X=             -1.6047    Y=             -1.6991    Z=              2.8627  Tot=              3.6955
 Quadrupole moment (field-independent basis, Debye-Ang):
   XX=           -172.4241   YY=           -130.9317   ZZ=           -129.9011
   XY=             -4.1164   XZ=              5.2155   YZ=              3.6914

 Summary of Natural Population Analysis:

                                       Natural Population
                Natural  -----------------------------------------------
    Atom  No    Charge         Core      Valence    Rydberg      Total
 -----------------------------------------------------------------------
      C    1   -0.28291      0.99967     2.27684    0.00640     3.28291
      C    2   -0.21829      0.99960     2.21114    0.00755     3.21829
      C    3    0.26175      0.99959     1.71936    0.01931     2.73825
      N    4   -0.17119      0.99966     2.66060    0.01093     3.67119
      N    5   -0.17100      0.99965     2.65999    0.01136     3.67100
      C    6    0.27227      0.99955     1.70764    0.02054     2.72773
      O    7   -0.24289      0.99985     3.23576    0.00728     4.24289
      C    8   -0.14348      0.99953     2.13075    0.01320     3.14348
      C    9   -0.19145      0.99959     2.18162    0.01024     3.19145
      C   10   -0.01290      0.99959     1.99944    0.01387     3.01290
      N   11   -0.34619      0.99973     2.83323    0.01323     3.84619
      C   12   -0.01233      0.99959     1.99942    0.01332     3.01233
      C   13   -0.19177      0.99960     2.18200    0.01017     3.19177
      C   14   -0.28659      0.99963     2.28202    0.00493     3.28659
      C   15   -0.28807      0.99963     2.28242    0.00603     3.28807
      H   16    0.10301      0.00000     0.39597    0.00103     0.39699
      H   17    0.09915      0.00000     0.39988    0.00096     0.40085
      H   18    0.10269      0.00000     0.39634    0.00097     0.39731
      H   19    0.11209      0.00000     0.38582    0.00210     0.38791
      H   20    0.10963      0.00000     0.38911    0.00127     0.39037
      H   21    0.11785      0.00000     0.37950    0.00266     0.38215
      H   22    0.10494      0.00000     0.39176    0.00330     0.39506
      H   23    0.10559      0.00000     0.39261    0.00181     0.39441
      H   24    0.09488      0.00000     0.40335    0.00177     0.40512
      H   25    0.17788      0.00000     0.31905    0.00307     0.32212
      H   26    0.09227      0.00000     0.40617    0.00156     0.40773
      H   27    0.10755      0.00000     0.39096    0.00149     0.39245
      H   28    0.10263      0.00000     0.39562    0.00176     0.39737
      H   29    0.09681      0.00000     0.40246    0.00074     0.40319
      H   30    0.09819      0.00000     0.40088    0.00093     0.40181
      H   31    0.10260      0.00000     0.39621    0.00119     0.39740
      H   32    0.10216      0.00000     0.39686    0.00098     0.39784
      H   33    0.09883      0.00000     0.40027    0.00090     0.40117
      H   34    0.09632      0.00000     0.40251    0.00118     0.40368
 =======================================================================
   * Total *   -0.00000     14.99447    41.80754    0.19798    57.00000

 Normal termination of Gaussian 16 at Thu Dec 10 18:29:32 2020.
