 Gaussian 16, Revision A.03,

 -----------------------------------------------------------
 # opt freq B3LYP/6-31G(d) empiricaldispersion=gd3bj scf=xqc
 -----------------------------------------------------------

 -------------------------------
 CID_117159504_JID_6645_neutraal
 -------------------------------
 Symbolic Z-matrix:
 Charge =  0 Multiplicity = 1

 SCF Done:  E(RB3LYP) =  -718.212604917     A.U. after   15 cycles
 SCF Done:  E(RB3LYP) =  -718.219079118     A.U. after   13 cycles
 SCF Done:  E(RB3LYP) =  -718.219795710     A.U. after   14 cycles
 SCF Done:  E(RB3LYP) =  -718.221484037     A.U. after   12 cycles
 SCF Done:  E(RB3LYP) =  -718.221857328     A.U. after   12 cycles
 SCF Done:  E(RB3LYP) =  -718.221935938     A.U. after   12 cycles
 SCF Done:  E(RB3LYP) =  -718.221962758     A.U. after   10 cycles
 SCF Done:  E(RB3LYP) =  -718.221967835     A.U. after    9 cycles
 SCF Done:  E(RB3LYP) =  -718.221969888     A.U. after    9 cycles
 SCF Done:  E(RB3LYP) =  -718.221970278     A.U. after    8 cycles
 SCF Done:  E(RB3LYP) =  -718.221970342     A.U. after    7 cycles
 Optimization completed.
    -- Stationary point found.
 Normal termination of Gaussian 16 at Fri Dec 11 00:00:54 2020.

 --------------------------------------------------------------------
 #N Geom=AllCheck Guess=TCheck SCRF=Check GenChk RB3LYP/6-31G(d) Freq
 --------------------------------------------------------------------

 Structure from the checkpoint file:  "JID_6645.chk"
 -------------------------------
 CID_117159504_JID_6645_neutraal
 -------------------------------
 Charge =  0 Multiplicity = 1

 SCF Done:  E(RB3LYP) =  -718.221970342     A.U. after    1 cycles

  Exact polarizability: 206.031  -1.193 138.935  -7.134   0.944  69.164
 Approx polarizability: 319.589  -3.929 260.205 -13.916  -2.762 116.875

                      1                      2                      3
                      A                      A                      A
 Frequencies --     48.2009                66.2445                92.0147
 Red. masses --      6.1479                 5.3279                 5.1934
 Frc consts  --      0.0084                 0.0138                 0.0259
 IR Inten    --      0.5493                 0.1203                 0.2409

                      4                      5                      6
                      A                      A                      A
 Frequencies --    190.9136               217.9753               227.7009
 Red. masses --      5.7807                 6.5420                 5.8695
 Frc consts  --      0.1241                 0.1831                 0.1793
 IR Inten    --      1.0275                 1.9099                 3.0567

                      7                      8                      9
                      A                      A                      A
 Frequencies --    275.5768               298.9065               348.5959
 Red. masses --      5.1851                 5.8656                 1.4438
 Frc consts  --      0.2320                 0.3088                 0.1034
 IR Inten    --      2.8554                 2.9393                74.1494

                     10                     11                     12
                      A                      A                      A
 Frequencies --    358.0690               429.3185               448.6661
 Red. masses --      2.9680                 2.8874                 4.6065
 Frc consts  --      0.2242                 0.3136                 0.5463
 IR Inten    --     28.6047                 1.0082                 0.9576

                     13                     14                     15
                      A                      A                      A
 Frequencies --    490.2482               522.2511               550.4820
 Red. masses --      3.9371                 4.8977                 6.7443
 Frc consts  --      0.5575                 0.7870                 1.2041
 IR Inten    --      6.2572                 6.7349                 1.8542

                     16                     17                     18
                      A                      A                      A
 Frequencies --    566.6550               596.3356               616.9428
 Red. masses --      5.0613                 7.0502                 5.0267
 Frc consts  --      0.9575                 1.4772                 1.1273
 IR Inten    --      3.1605                 2.2563                 5.8490

                     19                     20                     21
                      A                      A                      A
 Frequencies --    646.6600               681.8419               709.9734
 Red. masses --      7.3061                10.8078                 6.6852
 Frc consts  --      1.8001                 2.9604                 1.9854
 IR Inten    --      9.6857                 2.9211                 1.5739

                     22                     23                     24
                      A                      A                      A
 Frequencies --    730.5251               762.1887               788.4656
 Red. masses --      4.4941                 1.2692                 5.8066
 Frc consts  --      1.4131                 0.4344                 2.1269
 IR Inten    --      1.1498                54.5355                 3.1283

                     25                     26                     27
                      A                      A                      A
 Frequencies --    821.8329               827.4353               846.0271
 Red. masses --      1.3961                 5.9783                 5.9844
 Frc consts  --      0.5556                 2.4115                 2.5237
 IR Inten    --     15.4614                21.9880                21.3374

                     28                     29                     30
                      A                      A                      A
 Frequencies --    849.3755               935.1948               939.2789
 Red. masses --      1.4359                 3.2992                 1.7586
 Frc consts  --      0.6103                 1.7000                 0.9141
 IR Inten    --      1.1580                13.9925                12.5271

                     31                     32                     33
                      A                      A                      A
 Frequencies --    944.9515               974.1133               976.8941
 Red. masses --      1.3616                 1.2687                 1.4231
 Frc consts  --      0.7163                 0.7093                 0.8001
 IR Inten    --      2.2934                 0.7406                 0.0873

                     34                     35                     36
                      A                      A                      A
 Frequencies --   1001.8476              1050.6917              1061.3988
 Red. masses --      7.5572                 5.7097                 2.2871
 Frc consts  --      4.4691                 3.7137                 1.5181
 IR Inten    --     26.3525                91.7099                23.3757

                     37                     38                     39
                      A                      A                      A
 Frequencies --   1078.8266              1135.3382              1195.0699
 Red. masses --      2.1545                 1.9489                 1.0921
 Frc consts  --      1.4774                 1.4801                 0.9190
 IR Inten    --      7.4271                60.6977                 2.7800

                     40                     41                     42
                      A                      A                      A
 Frequencies --   1201.0451              1214.3947              1230.4572
 Red. masses --      1.4435                 2.0129                 2.1388
 Frc consts  --      1.2268                 1.7490                 1.9079
 IR Inten    --     30.1891                14.7703                43.8895

                     43                     44                     45
                      A                      A                      A
 Frequencies --   1267.0737              1309.6028              1339.7654
 Red. masses --      3.7296                 3.0142                 2.7267
 Frc consts  --      3.5279                 3.0458                 2.8837
 IR Inten    --      4.3916                18.3759                62.4468

                     46                     47                     48
                      A                      A                      A
 Frequencies --   1342.0928              1367.5814              1380.9289
 Red. masses --      1.7260                 2.7624                 3.0340
 Frc consts  --      1.8317                 3.0440                 3.4088
 IR Inten    --     23.7386                28.9945                31.6041

                     49                     50                     51
                      A                      A                      A
 Frequencies --   1408.6734              1446.3756              1482.7218
 Red. masses --      6.1882                 3.3711                 3.1309
 Frc consts  --      7.2349                 4.1551                 4.0555
 IR Inten    --      2.8621                30.3526                18.9592

                     52                     53                     54
                      A                      A                      A
 Frequencies --   1508.3656              1519.4663              1567.8715
 Red. masses --      2.5410                 3.3230                 3.0708
 Frc consts  --      3.4062                 4.5203                 4.4475
 IR Inten    --     36.0657                18.9046                85.8944

                     55                     56                     57
                      A                      A                      A
 Frequencies --   1627.9828              1655.3344              1664.7278
 Red. masses --      7.2395                 7.3005                 6.5004
 Frc consts  --     11.3047                11.7862                10.6140
 IR Inten    --      7.2795                84.7433                13.8313

                     58                     59                     60
                      A                      A                      A
 Frequencies --   1668.8364              3175.2428              3186.1478
 Red. masses --      6.5399                 1.0890                 1.0888
 Frc consts  --     10.7312                 6.4692                 6.5125
 IR Inten    --      5.3125                11.0022                26.9761

                     61                     62                     63
                      A                      A                      A
 Frequencies --   3191.3043              3204.2722              3218.9735
 Red. masses --      1.0928                 1.0890                 1.0934
 Frc consts  --      6.5572                 6.5880                 6.6749
 IR Inten    --     13.3715                 6.4298                17.0537

                     64                     65                     66
                      A                      A                      A
 Frequencies --   3234.8042              3251.2700              3754.4233
 Red. masses --      1.0949                 1.0937                 1.0661
 Frc consts  --      6.7505                 6.8117                 8.8539
 IR Inten    --      2.0127                 4.6682                57.2715

 - Thermochemistry -
 -------------------
 Temperature   298.150 Kelvin.  Pressure   1.00000 Atm.
 Atom     1 has atomic number  6 and mass  12.00000

 Molecular mass:   212.06981 amu.
 Principal axes and moments of inertia in atomic units:
                           1         2         3
     Eigenvalues --  1408.861074851.188465743.52081
           X            1.00000  -0.00174  -0.00189
           Y            0.00177   0.99985   0.01702
           Z            0.00186  -0.01702   0.99985
 This molecule is an asymmetric top.
 Rotational symmetry number  1.
 Warning -- assumption of classical behavior for rotation
           may cause significant error
 Rotational temperatures (Kelvin)      0.06148     0.01785     0.01508
 Rotational constants (GHZ):           1.28099     0.37202     0.31422
 Zero-point vibrational energy     470866.7 (Joules/Mol)
                                  112.53984 (Kcal/Mol)
 Warning -- explicit consideration of  18 degrees of freedom as
           vibrations may cause significant error
 Vibrational temperatures:     69.35    95.31   132.39   274.68   313.62
          (Kelvin)            327.61   396.49   430.06   501.55   515.18
                              617.69   645.53   705.36   751.40   792.02
                              815.29   857.99   887.64   930.40   981.02
                             1021.49  1051.06  1096.62  1134.43  1182.43
                             1190.49  1217.24  1222.06  1345.54  1351.41
                             1359.57  1401.53  1405.53  1441.44  1511.71
                             1527.12  1552.19  1633.50  1719.44  1728.04
                             1747.24  1770.35  1823.04  1884.23  1927.62
                             1930.97  1967.64  1986.85  2026.77  2081.01
                             2133.31  2170.20  2186.17  2255.82  2342.30
                             2381.66  2395.17  2401.08  4568.47  4584.16
                             4591.58  4610.23  4631.38  4654.16  4677.85
                             5401.78

 Zero-point correction=                           0.179344 (Hartree/Particle)
 Thermal correction to Energy=                    0.190892
 Thermal correction to Enthalpy=                  0.191836
 Thermal correction to Gibbs Free Energy=         0.141090
 Sum of electronic and zero-point Energies=           -718.042627
 Sum of electronic and thermal Energies=              -718.031078
 Sum of electronic and thermal Enthalpies=            -718.030134
 Sum of electronic and thermal Free Energies=         -718.080881

                     E (Thermal)             CV                S
                      KCal/Mol        Cal/Mol-Kelvin    Cal/Mol-Kelvin
 Total                  119.786             46.478            106.805
 Electronic               0.000              0.000              0.000
 Translational            0.889              2.981             41.959
 Rotational               0.889              2.981             32.040
 Vibrational            118.009             40.516             32.806
 Vibration     1          0.595              1.978              4.890
 Vibration     2          0.598              1.970              4.262
 Vibration     3          0.602              1.955              3.617
 Vibration     4          0.634              1.852              2.219
 Vibration     5          0.646              1.814              1.976
 Vibration     6          0.651              1.799              1.897
 Vibration     7          0.677              1.719              1.561
 Vibration     8          0.692              1.676              1.423
 Vibration     9          0.726              1.578              1.173
 Vibration    10          0.733              1.559              1.130
 Vibration    11          0.791              1.406              0.861
 Vibration    12          0.808              1.364              0.800
 Vibration    13          0.846              1.272              0.683
 Vibration    14          0.877              1.201              0.605
 Vibration    15          0.906              1.139              0.543
 Vibration    16          0.923              1.103              0.511
 Vibration    17          0.954              1.040              0.456
 Vibration    18          0.977              0.996              0.421

 Optimization completed.
    -- Stationary point found.
 Normal termination of Gaussian 16 at Fri Dec 11 00:08:09 2020.

 ----------------------------------------------------------------------
 # B3LYP/6-311++G(d,p) empiricaldispersion=gd3bj scf=xqc pop=npa geom=c
 heck
 ----------------------------------------------------------------------

 ---------------------------------------
 CID_117159504_JID_6645_Energie_neutraal
 ---------------------------------------
 Structure from the checkpoint file:  "JID_6645.chk"
 Charge =  0 Multiplicity = 1

 SCF Done:  E(RB3LYP) =  -718.412135850     A.U. after   16 cycles
 Normal termination of Gaussian 16 at Fri Dec 11 00:10:49 2020.

 ----------------------------------------------------------------------
 # B3LYP/6-311++G(d,p) empiricaldispersion=gd3bj scf=xqc pop=npa geom=c
 heck
 ----------------------------------------------------------------------

 -------------------------------------
 CID_117159504_JID_6645_Energie_kation
 -------------------------------------
 Structure from the checkpoint file:  "JID_6645.chk"
 Charge =  1 Multiplicity = 2

 SCF Done:  E(UB3LYP) =  -718.102565380     A.U. after   28 cycles
 Normal termination of Gaussian 16 at Fri Dec 11 00:16:56 2020.
 Gaussian 16:  ES64L-G16RevA.03 25-Dec-2016

 ----------------------------------------------------------------------
 # B3LYP/6-311++G(d,p) empiricaldispersion=gd3bj scf=xqc pop=npa geom=c
 heck
 ----------------------------------------------------------------------

 ------------------------------------
 CID_117159504_JID_6645_Energie_anion
 ------------------------------------
 Structure from the checkpoint file:  "JID_6645.chk"
 Charge = -1 Multiplicity = 2

                         Standard orientation:
 ---------------------------------------------------------------------
 Center     Atomic      Atomic             Coordinates (Angstroms)
 Number     Number       Type             X           Y           Z
 ---------------------------------------------------------------------
      1          6           0        3.486860   -0.962950   -0.825890
      2          6           0        3.999376    0.245027   -0.352054
      3          6           0        3.166902    1.157311    0.293618
      4          6           0        1.813048    0.868772    0.479639
      5          6           0        1.293568   -0.337327   -0.018057
      6          6           0        2.133272   -1.246507   -0.662849
      7          7           0       -0.072166   -0.663550    0.167221
      8          6           0       -1.206240    0.050298   -0.100991
      9          6           0       -2.247526   -0.842230    0.212331
     10          6           0       -3.578542   -0.435513    0.037876
     11          7           0       -3.869146    0.772556   -0.427418
     12          6           0       -2.846973    1.611876   -0.734587
     13          6           0       -1.496422    1.325811   -0.600170
     14          7           0       -1.699098   -2.035336    0.641418
     15          7           0       -0.417990   -1.932271    0.612079
     16          8           0        0.959323    1.709624    1.132100
     17          1           0        4.132530   -1.676494   -1.326752
     18          1           0        5.050837    0.482603   -0.481442
     19          1           0        3.567054    2.095323    0.672618
     20          1           0        1.705193   -2.175499   -1.021870
     21          1           0       -4.404572   -1.102101    0.275735
     22          1           0       -3.149958    2.584517   -1.115345
     23          1           0       -0.729973    2.046919   -0.852250
     24          1           0        1.459171    2.470539    1.466212
 ---------------------------------------------------------------------

 SCF Done:  E(UB3LYP) =  -718.423027252     A.U. after   32 cycles

 The electronic state is 2-A.
 Alpha  occ. eigenvalues --  -19.05499 -14.26127 -14.21915 -14.18977 -14.17630
 Alpha  occ. eigenvalues --  -10.13721 -10.10505 -10.09219 -10.07390 -10.07259
 Alpha  occ. eigenvalues --  -10.07081 -10.07026 -10.06887 -10.06825 -10.06250
 Alpha  occ. eigenvalues --  -10.05024  -0.96862  -0.95253  -0.80684  -0.79912
 Alpha  occ. eigenvalues --   -0.74476  -0.68567  -0.64601  -0.64335  -0.63242
 Alpha  occ. eigenvalues --   -0.54275  -0.53529  -0.52728  -0.49605  -0.46845
 Alpha  occ. eigenvalues --   -0.44732  -0.42688  -0.39534  -0.38104  -0.36996
 Alpha  occ. eigenvalues --   -0.35146  -0.33773  -0.33503  -0.32393  -0.31387
 Alpha  occ. eigenvalues --   -0.30917  -0.29762  -0.26799  -0.25957  -0.25431
 Alpha  occ. eigenvalues --   -0.24808  -0.24288  -0.20471  -0.19946  -0.16052
 Alpha  occ. eigenvalues --   -0.14092  -0.13649  -0.13081  -0.12912  -0.11267
 Alpha  occ. eigenvalues --    0.03778
 Alpha virt. eigenvalues --    0.05726   0.07604   0.07853   0.09084   0.09513
 Alpha virt. eigenvalues --    0.09947   0.10884   0.11186   0.12202   0.12308
 Alpha virt. eigenvalues --    0.12920   0.14420   0.14907   0.15424   0.16080

  Beta  occ. eigenvalues --  -19.05466 -14.26105 -14.21320 -14.18772 -14.17705
  Beta  occ. eigenvalues --  -10.13713 -10.10419 -10.09239 -10.07358 -10.07152
  Beta  occ. eigenvalues --  -10.07078 -10.06989 -10.06735 -10.06574 -10.06265
  Beta  occ. eigenvalues --  -10.04934  -0.96768  -0.94765  -0.80539  -0.79594
  Beta  occ. eigenvalues --   -0.74336  -0.68351  -0.64328  -0.64176  -0.62955
  Beta  occ. eigenvalues --   -0.53970  -0.53333  -0.52336  -0.49435  -0.46674
  Beta  occ. eigenvalues --   -0.44635  -0.42568  -0.39257  -0.37927  -0.36877
  Beta  occ. eigenvalues --   -0.35010  -0.33469  -0.33207  -0.32076  -0.31308
  Beta  occ. eigenvalues --   -0.30677  -0.29699  -0.26685  -0.25845  -0.24730
  Beta  occ. eigenvalues --   -0.24666  -0.23912  -0.19883  -0.19100  -0.15495
  Beta  occ. eigenvalues --   -0.13735  -0.13177  -0.12862  -0.11920  -0.10455
  Beta virt. eigenvalues --    0.06562   0.07763   0.08267   0.09124   0.09314
  Beta virt. eigenvalues --    0.09651   0.10070   0.10923   0.11398   0.12178
  Beta virt. eigenvalues --    0.12566   0.12965   0.14578   0.15200   0.16053

 Mulliken charges and spin densities:
               1          2
     1  C   -0.334976   0.089100
     2  C   -0.214500  -0.065755
     3  C    0.246159  -0.217361
     4  C    0.355556  -0.343001
     5  C   -0.566677  -0.141932
     6  C    0.161943   0.168026
     7  N    0.478473  -0.004619
     8  C   -0.795105   0.067005
     9  C    0.332473   0.017960
    10  C   -0.466314   0.183876
    11  N   -0.099467  -0.045010
    12  C   -0.731690   0.110531
    13  C    0.785380  -0.077175
    14  N   -0.086512   0.068439
    15  N   -0.227681   0.264079
    16  O   -0.234116   0.039391
    17  H    0.138878   0.004917
    18  H    0.132231  -0.015543
    19  H   -0.493498   0.632268
    20  H    0.178523   0.000782
    21  H    0.156450  -0.013911
    22  H    0.126243  -0.000247
    23  H    0.175435  -0.010490
    24  H   -0.017206   0.288669
 Sum of Mulliken charges =  -1.00000   1.00000

 Dipole moment (field-independent basis, Debye):
    X=              4.3627    Y=              1.1336    Z=             -2.1949  Tot=              5.0136
 Quadrupole moment (field-independent basis, Debye-Ang):
   XX=           -140.7467   YY=           -118.2649   ZZ=           -106.4202
   XY=             -4.5840   XZ=             -4.7333   YZ=              2.4797

 Summary of Natural Population Analysis:

                                       Natural Population
                Natural  -----------------------------------------------
    Atom  No    Charge         Core      Valence    Rydberg      Total
 -----------------------------------------------------------------------
      C    1   -0.12368      0.99957     2.11582    0.00828     3.12368
      C    2   -0.08238      0.99958     2.07187    0.01093     3.08238
      C    3   -0.13948      0.99953     2.12971    0.01024     3.13948
      C    4    0.15743      0.99935     1.82948    0.01374     2.84257
      C    5    0.06505      0.99943     1.92186    0.01366     2.93495
      C    6   -0.07838      0.99954     2.07120    0.00765     3.07838
      N    7   -0.12820      0.99959     2.61468    0.01394     3.62820
      C    8    0.07415      0.99945     1.91227    0.01413     2.92585
      C    9    0.01429      0.99946     1.97521    0.01104     2.98571
      C   10    0.07836      0.99956     1.90835    0.01372     2.92164
      N   11   -0.26483      0.99972     2.75322    0.01189     3.76483
      C   12    0.04129      0.99960     1.94566    0.01345     2.95871
      C   13   -0.12658      0.99953     2.11629    0.01076     3.12658
      N   14   -0.11390      0.99972     2.59839    0.01579     3.61390
      N   15    0.05493      0.99979     2.43069    0.01459     3.44507
      O   16   -0.33491      0.99988     3.32756    0.00748     4.33491
      H   17    0.09663      0.00000     0.40254    0.00083     0.40337
      H   18    0.09542      0.00000     0.40383    0.00074     0.40458
      H   19    0.09915      0.00000     0.39937    0.00148     0.40085
      H   20    0.10999      0.00000     0.38910    0.00091     0.39001
      H   21    0.08350      0.00000     0.41500    0.00150     0.41650
      H   22    0.08057      0.00000     0.41822    0.00121     0.41943
      H   23    0.10547      0.00000     0.39351    0.00102     0.39453
      H   24    0.23612      0.00000     0.25942    0.00446     0.26388
 =======================================================================
   * Total *    0.00000     15.99330    38.80325    0.20344    55.00000

 Normal termination of Gaussian 16 at Fri Dec 11 00:24:01 2020.
