 Gaussian 16, Revision A.03,

 -----------------------------------------------------------
 # opt freq B3LYP/6-31G(d) empiricaldispersion=gd3bj scf=xqc
 -----------------------------------------------------------

 -------------------------------
 CID_149687781_JID_8239_neutraal
 -------------------------------
 Symbolic Z-matrix:
 Charge =  0 Multiplicity = 1

 SCF Done:  E(RB3LYP) =  -800.462937947     A.U. after   18 cycles
 SCF Done:  E(RB3LYP) =  -800.469117345     A.U. after   16 cycles
 SCF Done:  E(RB3LYP) =  -800.468989825     A.U. after   14 cycles
 SCF Done:  E(RB3LYP) =  -800.467225282     A.U. after   15 cycles
 SCF Done:  E(RB3LYP) =  -800.462460283     A.U. after   14 cycles
 SCF Done:  E(RB3LYP) =  -800.469310963     A.U. after   10 cycles
 SCF Done:  E(RB3LYP) =  -800.470993674     A.U. after   14 cycles
 SCF Done:  E(RB3LYP) =  -800.471518739     A.U. after   13 cycles
 SCF Done:  E(RB3LYP) =  -800.472581704     A.U. after   15 cycles
 SCF Done:  E(RB3LYP) =  -800.474169651     A.U. after   17 cycles
 SCF Done:  E(RB3LYP) =  -800.484352570     A.U. after   10 cycles
 SCF Done:  E(RB3LYP) =  -800.484354277     A.U. after   10 cycles
 SCF Done:  E(RB3LYP) =  -800.484354966     A.U. after    8 cycles
 SCF Done:  E(RB3LYP) =  -800.484355235     A.U. after    8 cycles
 SCF Done:  E(RB3LYP) =  -800.484355243     A.U. after    7 cycles
 Optimization completed.
    -- Stationary point found.
 Normal termination of Gaussian 16 at Fri Dec 11 20:10:18 2020.

 --------------------------------------------------------------------
 #N Geom=AllCheck Guess=TCheck SCRF=Check GenChk RB3LYP/6-31G(d) Freq
 --------------------------------------------------------------------

 Structure from the checkpoint file:  "JID_8239.chk"
 -------------------------------
 CID_149687781_JID_8239_neutraal
 -------------------------------
 Charge =  0 Multiplicity = 1

 SCF Done:  E(RB3LYP) =  -800.484355243     A.U. after    1 cycles

  Exact polarizability: 233.430  15.145 131.921  14.936  -6.351 141.817
 Approx polarizability: 354.300  26.010 177.243  52.635 -18.905 257.731

                      1                      2                      3
                      A                      A                      A
 Frequencies --     16.0740                32.8153                55.3992
 Red. masses --      3.2041                 5.4376                 5.9862
 Frc consts  --      0.0005                 0.0034                 0.0108
 IR Inten    --      0.5262                 0.4776                 2.1124

                      4                      5                      6
                      A                      A                      A
 Frequencies --     67.3622                77.5290                94.0481
 Red. masses --      3.9157                 5.0868                 2.6659
 Frc consts  --      0.0105                 0.0180                 0.0139
 IR Inten    --      0.0221                 0.0705                 0.1118

                      7                      8                      9
                      A                      A                      A
 Frequencies --    114.0814               131.8327               159.6404
 Red. masses --      8.5454                 2.8480                 2.0434
 Frc consts  --      0.0655                 0.0292                 0.0307
 IR Inten    --      0.4077                 0.4384                 0.4299

                     10                     11                     12
                      A                      A                      A
 Frequencies --    206.4828               211.2457               218.5754
 Red. masses --      2.4024                 1.5375                 3.0425
 Frc consts  --      0.0603                 0.0404                 0.0856
 IR Inten    --      0.3458                 0.2732                 0.9316

                     13                     14                     15
                      A                      A                      A
 Frequencies --    240.6432               250.8737               268.9728
 Red. masses --      1.9874                 1.3892                 2.6167
 Frc consts  --      0.0678                 0.0515                 0.1115
 IR Inten    --      0.5596                 0.5353                 3.3085

                     16                     17                     18
                      A                      A                      A
 Frequencies --    289.8639               313.4572               348.0677
 Red. masses --      1.7154                 2.6395                 3.9721
 Frc consts  --      0.0849                 0.1528                 0.2835
 IR Inten    --      0.2363                 2.3881                 7.4327

                     19                     20                     21
                      A                      A                      A
 Frequencies --    367.1187               395.7257               417.1878
 Red. masses --      4.2324                 3.3696                 4.6766
 Frc consts  --      0.3361                 0.3109                 0.4796
 IR Inten    --      0.8543                 0.2240                 4.0310

                     22                     23                     24
                      A                      A                      A
 Frequencies --    426.1072               454.0121               506.6136
 Red. masses --      3.1753                 3.7447                 4.1764
 Frc consts  --      0.3397                 0.4548                 0.6315
 IR Inten    --      0.3440                 2.5522                11.6266

                     25                     26                     27
                      A                      A                      A
 Frequencies --    538.5123               542.8774               555.0847
 Red. masses --      5.2860                 2.3609                 2.3732
 Frc consts  --      0.9032                 0.4099                 0.4308
 IR Inten    --      0.6578                31.7909                 1.3749

                     28                     29                     30
                      A                      A                      A
 Frequencies --    576.0111               606.4396               642.9199
 Red. masses --      4.3129                 2.1716                 3.5702
 Frc consts  --      0.8431                 0.4706                 0.8695
 IR Inten    --      2.8064                37.0192                 8.2641

                     31                     32                     33
                      A                      A                      A
 Frequencies --    656.1363               702.6108               728.9952
 Red. masses --      6.7331                 2.4370                 5.0904
 Frc consts  --      1.7079                 0.7088                 1.5939
 IR Inten    --      0.3521                36.1759                16.9781

                     34                     35                     36
                      A                      A                      A
 Frequencies --    743.9109               781.8104               816.3360
 Red. masses --      3.9677                 1.8998                 1.3664
 Frc consts  --      1.2937                 0.6842                 0.5365
 IR Inten    --      2.5882                 1.9052                11.7513

                     37                     38                     39
                      A                      A                      A
 Frequencies --    828.0956               836.1168               848.1966
 Red. masses --      1.7149                 1.6328                 3.1278
 Frc consts  --      0.6929                 0.6725                 1.3258
 IR Inten    --     16.7194                 9.0196                 2.8745

                     40                     41                     42
                      A                      A                      A
 Frequencies --    862.5026               893.8640               953.1547
 Red. masses --      1.5057                 1.9801                 1.3323
 Frc consts  --      0.6599                 0.9321                 0.7131
 IR Inten    --     15.9909                 7.0328                 0.2480

                     43                     44                     45
                      A                      A                      A
 Frequencies --    978.2410               991.8439              1017.7720
 Red. masses --      2.3178                 1.2966                 1.6940
 Frc consts  --      1.3068                 0.7515                 1.0339
 IR Inten    --     10.6174                 1.2722                 3.1492

                     46                     47                     48
                      A                      A                      A
 Frequencies --   1027.4624              1036.6211              1064.0939
 Red. masses --      1.7058                 2.9755                 2.5930
 Frc consts  --      1.0610                 1.8838                 1.7299
 IR Inten    --      2.3645                 7.8104                 2.1230

                     49                     50                     51
                      A                      A                      A
 Frequencies --   1082.7902              1105.0010              1111.6626
 Red. masses --      1.4774                 2.0169                 1.6586
 Frc consts  --      1.0205                 1.4509                 1.2077
 IR Inten    --      2.5698                10.6372                 6.2347

                     52                     53                     54
                      A                      A                      A
 Frequencies --   1132.7906              1150.4394              1172.7144
 Red. masses --      2.5125                 1.4251                 3.6876
 Frc consts  --      1.8996                 1.1113                 2.9880
 IR Inten    --      4.3956                 9.6358                26.7397

                     55                     56                     57
                      A                      A                      A
 Frequencies --   1179.9294              1203.1472              1225.9666
 Red. masses --      2.5639                 2.5444                 1.2237
 Frc consts  --      2.1031                 2.1701                 1.0836
 IR Inten    --      1.5206                19.0647                14.7354

                     58                     59                     60
                      A                      A                      A
 Frequencies --   1265.1327              1292.7100              1315.1960
 Red. masses --      2.4271                 1.3846                 1.6831
 Frc consts  --      2.2888                 1.3633                 1.7153
 IR Inten    --     51.0186                48.3565               100.6169

                     61                     62                     63
                      A                      A                      A
 Frequencies --   1339.1171              1348.9118              1356.5131
 Red. masses --      2.3824                 1.5193                 2.0343
 Frc consts  --      2.5171                 1.6288                 2.2055
 IR Inten    --     26.5708                10.3689                 0.3941

                     64                     65                     66
                      A                      A                      A
 Frequencies --   1376.7990              1386.7702              1427.2865
 Red. masses --      8.2362                 1.4469                 1.9759
 Frc consts  --      9.1985                 1.6395                 2.3715
 IR Inten    --    198.6725                 6.1989               110.6033

                     67                     68                     69
                      A                      A                      A
 Frequencies --   1434.8021              1439.8929              1446.9677
 Red. masses --      1.2605                 1.3229                 1.2397
 Frc consts  --      1.5288                 1.6160                 1.5293
 IR Inten    --      0.5666                26.2244                 7.5100

                     70                     71                     72
                      A                      A                      A
 Frequencies --   1462.1971              1473.5286              1502.6291
 Red. masses --      2.2812                 1.6480                 1.0927
 Frc consts  --      2.8736                 2.1082                 1.4536
 IR Inten    --      4.9592                35.0803                 2.2933

                     73                     74                     75
                      A                      A                      A
 Frequencies --   1513.8219              1523.1066              1525.8666
 Red. masses --      1.0945                 1.0532                 1.0497
 Frc consts  --      1.4778                 1.4396                 1.4400
 IR Inten    --      4.7273                 1.4779                 5.4894

                     76                     77                     78
                      A                      A                      A
 Frequencies --   1528.4829              1537.3652              1539.8478
 Red. masses --      1.0420                 1.0635                 1.0684
 Frc consts  --      1.4342                 1.4809                 1.4925
 IR Inten    --      1.8959                 3.8764                11.5765

                     79                     80                     81
                      A                      A                      A
 Frequencies --   1540.2947              1558.7547              1627.8431
 Red. masses --      1.0576                 2.3367                 6.7223
 Frc consts  --      1.4784                 3.3451                10.4953
 IR Inten    --      2.8627               107.2821                 5.3185

                     82                     83                     84
                      A                      A                      A
 Frequencies --   1670.0842              1777.6238              2265.9221
 Red. masses --      5.7415                 7.6235                13.9807
 Frc consts  --      9.4353                14.1933                42.2930
 IR Inten    --     30.3196               384.0064               854.1256

                     85                     86                     87
                      A                      A                      A
 Frequencies --   3032.5579              3052.8020              3060.9113
 Red. masses --      1.0664                 1.0717                 1.0384
 Frc consts  --      5.7782                 5.8847                 5.7320
 IR Inten    --     34.2439                 6.2264                38.5484

                     88                     89                     90
                      A                      A                      A
 Frequencies --   3061.3371              3067.0951              3087.8336
 Red. masses --      1.0367                 1.0364                 1.0961
 Frc consts  --      5.7245                 5.7445                 6.1575
 IR Inten    --     17.9504                13.7343                12.4750

                     91                     92                     93
                      A                      A                      A
 Frequencies --   3122.0976              3124.0447              3134.1577
 Red. masses --      1.1010                 1.1019                 1.1020
 Frc consts  --      6.3231                 6.3362                 6.3776
 IR Inten    --     28.6948                28.5852                30.7709

                     94                     95                     96
                      A                      A                      A
 Frequencies --   3137.7093              3140.4016              3148.6128
 Red. masses --      1.0939                 1.1018                 1.1005
 Frc consts  --      6.3453                 6.4022                 6.4279
 IR Inten    --     15.8561                38.6139                17.1450

                     97                     98                     99
                      A                      A                      A
 Frequencies --   3160.9457              3195.0503              3213.9657
 Red. masses --      1.0988                 1.0887                 1.0885
 Frc consts  --      6.4683                 6.5480                 6.6248
 IR Inten    --     22.0857                 6.2594                 4.1948

                    100                    101                    102
                      A                      A                      A
 Frequencies --   3220.8422              3229.6891              3573.7164
 Red. masses --      1.0915                 1.0935                 1.0753
 Frc consts  --      6.6715                 6.7205                 8.0915
 IR Inten    --      9.7788                 3.2371                13.1306

 - Thermochemistry -
 -------------------
 Temperature   298.150 Kelvin.  Pressure   1.00000 Atm.
 Atom     1 has atomic number  6 and mass  12.00000

 Molecular mass:   246.14806 amu.
 Principal axes and moments of inertia in atomic units:
                           1         2         3
     Eigenvalues --  2745.511247655.495768798.29201
           X            0.99997  -0.00392  -0.00660
           Y            0.00405   0.99979   0.02017
           Z            0.00652  -0.02020   0.99977
 This molecule is an asymmetric top.
 Rotational symmetry number  1.
 Warning -- assumption of classical behavior for rotation
           may cause significant error
 Rotational temperatures (Kelvin)      0.03155     0.01131     0.00984
 Rotational constants (GHZ):           0.65734     0.23574     0.20512
 Zero-point vibrational energy     792520.1 (Joules/Mol)
                                  189.41685 (Kcal/Mol)
 Warning -- explicit consideration of  29 degrees of freedom as
           vibrations may cause significant error
 Vibrational temperatures:     23.13    47.21    79.71    96.92   111.55
          (Kelvin)            135.31   164.14   189.68   229.69   297.08
                              303.94   314.48   346.23   360.95   386.99
                              417.05   450.99   500.79   528.20   569.36
                              600.24   613.07   653.22   728.90   774.80
                              781.08   798.64   828.75   872.53   925.02
                              944.03  1010.90  1048.86  1070.32  1124.85
                             1174.53  1191.44  1202.99  1220.37  1240.95
                             1286.07  1371.38  1407.47  1427.04  1464.35
                             1478.29  1491.47  1530.99  1557.89  1589.85
                             1599.43  1629.83  1655.23  1687.27  1697.66
                             1731.06  1763.89  1820.24  1859.92  1892.27
                             1926.69  1940.78  1951.72  1980.91  1995.25
                             2053.55  2064.36  2071.68  2081.86  2103.78
                             2120.08  2161.95  2178.05  2191.41  2195.38
                             2199.15  2211.93  2215.50  2216.14  2242.70
                             2342.10  2402.88  2557.60  3260.16  4363.17
                             4392.30  4403.97  4404.58  4412.87  4442.70
                             4492.00  4494.80  4509.35  4514.46  4518.34
                             4530.15  4547.90  4596.96  4624.18  4634.07
                             4646.80  5141.78

 Zero-point correction=                           0.301855 (Hartree/Particle)
 Thermal correction to Energy=                    0.320174
 Thermal correction to Enthalpy=                  0.321118
 Thermal correction to Gibbs Free Energy=         0.254064
 Sum of electronic and zero-point Energies=           -800.182500
 Sum of electronic and thermal Energies=              -800.164181
 Sum of electronic and thermal Enthalpies=            -800.163237
 Sum of electronic and thermal Free Energies=         -800.230292

                     E (Thermal)             CV                S
                      KCal/Mol        Cal/Mol-Kelvin    Cal/Mol-Kelvin
 Total                  200.912             68.624            141.128
 Electronic               0.000              0.000              0.000
 Translational            0.889              2.981             42.403
 Rotational               0.889              2.981             33.580
 Vibrational            199.135             62.663             65.145
 Vibration     1          0.593              1.986              7.068
 Vibration     2          0.594              1.983              5.652
 Vibration     3          0.596              1.975              4.615
 Vibration     4          0.598              1.970              4.229
 Vibration     5          0.599              1.964              3.952
 Vibration     6          0.603              1.953              3.574
 Vibration     7          0.607              1.938              3.198
 Vibration     8          0.612              1.922              2.919
 Vibration     9          0.622              1.892              2.554
 Vibration    10          0.641              1.831              2.075
 Vibration    11          0.643              1.824              2.033
 Vibration    12          0.646              1.813              1.971
 Vibration    13          0.658              1.778              1.798
 Vibration    14          0.663              1.761              1.724
 Vibration    15          0.673              1.730              1.603
 Vibration    16          0.686              1.693              1.475
 Vibration    17          0.701              1.648              1.344
 Vibration    18          0.726              1.579              1.175
 Vibration    19          0.740              1.540              1.092
 Vibration    20          0.762              1.479              0.978
 Vibration    21          0.780              1.433              0.902
 Vibration    22          0.788              1.413              0.871
 Vibration    23          0.812              1.352              0.784
 Vibration    24          0.862              1.235              0.642
 Vibration    25          0.894              1.165              0.568
 Vibration    26          0.898              1.155              0.559
 Vibration    27          0.911              1.129              0.534
 Vibration    28          0.932              1.083              0.493
 Vibration    29          0.965              1.018              0.439

 Optimization completed.
    -- Stationary point found.
 Normal termination of Gaussian 16 at Fri Dec 11 20:26:50 2020.

 ----------------------------------------------------------------------
 # B3LYP/6-311++G(d,p) empiricaldispersion=gd3bj scf=xqc pop=npa geom=c
 heck
 ----------------------------------------------------------------------

 ---------------------------------------
 CID_149687781_JID_8239_Energie_neutraal
 ---------------------------------------
 Structure from the checkpoint file:  "JID_8239.chk"
 Charge =  0 Multiplicity = 1

 SCF Done:  E(RB3LYP) =  -800.704855074     A.U. after   19 cycles
 Normal termination of Gaussian 16 at Fri Dec 11 20:34:58 2020.

 ----------------------------------------------------------------------
 # B3LYP/6-311++G(d,p) empiricaldispersion=gd3bj scf=xqc pop=npa geom=c
 heck
 ----------------------------------------------------------------------

 -------------------------------------
 CID_149687781_JID_8239_Energie_kation
 -------------------------------------
 Structure from the checkpoint file:  "JID_8239.chk"
 Charge =  1 Multiplicity = 2

 SCF Done:  E(UB3LYP) =  -800.406660280     A.U. after   30 cycles
 Normal termination of Gaussian 16 at Fri Dec 11 20:52:59 2020.
 Gaussian 16:  ES64L-G16RevA.03 25-Dec-2016

 ----------------------------------------------------------------------
 # B3LYP/6-311++G(d,p) empiricaldispersion=gd3bj scf=xqc pop=npa geom=c
 heck
 ----------------------------------------------------------------------

 ------------------------------------
 CID_149687781_JID_8239_Energie_anion
 ------------------------------------
 Structure from the checkpoint file:  "JID_8239.chk"
 Charge = -1 Multiplicity = 2

                         Standard orientation:
 ---------------------------------------------------------------------
 Center     Atomic      Atomic             Coordinates (Angstroms)
 Number     Number       Type             X           Y           Z
 ---------------------------------------------------------------------
      1          6           0       -2.636845    3.218060    0.524204
      2          6           0       -1.856004    2.009432    0.005119
      3          6           0       -2.795802    0.908536   -0.474073
      4          8           0       -3.849269    1.177837   -1.040381
      5          7           0       -2.418963   -0.409824   -0.332614
      6          6           0       -1.427829   -1.026646    0.565682
      7          6           0       -1.811418   -0.748862    2.035217
      8          6           0       -1.525694   -2.564298    0.345110
      9          6           0       -1.232741   -3.067607   -1.069038
     10          6           0       -0.008871   -0.563326    0.221560
     11          6           0        0.328871   -0.199534   -1.090181
     12          6           0        1.624703    0.169396   -1.429725
     13          6           0        2.626018    0.180355   -0.453697
     14          6           0        2.312642   -0.185346    0.859225
     15          6           0        1.008727   -0.553029    1.183016
     16          7           0        3.920044    0.575095   -0.882248
     17          7           0        4.826537    0.597939   -0.040770
     18          7           0        5.746071    0.661103    0.632015
     19          1           0       -3.357495    3.551768   -0.225485
     20          1           0       -1.957691    4.043326    0.760897
     21          1           0       -3.194511    2.964047    1.432690
     22          1           0       -1.249879    2.298931   -0.863943
     23          1           0       -1.144991    1.647937    0.749352
     24          1           0       -3.154992   -1.026356   -0.658263
     25          1           0       -2.859929   -1.022158    2.185997
     26          1           0       -1.209706   -1.341454    2.730860
     27          1           0       -1.693927    0.306257    2.295470
     28          1           0       -0.831667   -3.034882    1.050539
     29          1           0       -2.534871   -2.877055    0.648653
     30          1           0       -0.202058   -2.852314   -1.364091
     31          1           0       -1.378780   -4.151718   -1.117165
     32          1           0       -1.893912   -2.609689   -1.812488
     33          1           0       -0.442837   -0.196397   -1.851334
     34          1           0        1.876574    0.454999   -2.445595
     35          1           0        3.079591   -0.180865    1.628472
     36          1           0        0.794855   -0.830053    2.209281
 ---------------------------------------------------------------------

 SCF Done:  E(UB3LYP) =  -800.703750566     A.U. after   33 cycles
 SCF Done:  E(UB3LYP) =  -800.704128246     a.u. after    6 cycles

 The electronic state is 2-A.
 Alpha  occ. eigenvalues --  -18.99403 -14.33414 -14.24531 -14.24116 -14.23784
 Alpha  occ. eigenvalues --  -10.17964 -10.13837 -10.10945 -10.08525 -10.08372
 Alpha  occ. eigenvalues --  -10.07778 -10.07666 -10.07504 -10.07492 -10.07235
 Alpha  occ. eigenvalues --  -10.07216 -10.07000 -10.06993  -1.01181  -0.94562
 Alpha  occ. eigenvalues --   -0.86118  -0.83487  -0.75825  -0.70844  -0.68576
 Alpha  occ. eigenvalues --   -0.66102  -0.65014  -0.63847  -0.57298  -0.56017
 Alpha  occ. eigenvalues --   -0.53696  -0.52072  -0.49408  -0.46608  -0.45735
 Alpha  occ. eigenvalues --   -0.41599  -0.39740  -0.39370  -0.38546  -0.36879
 Alpha  occ. eigenvalues --   -0.36588  -0.35428  -0.35351  -0.34824  -0.33580
 Alpha  occ. eigenvalues --   -0.33147  -0.32876  -0.31875  -0.31334  -0.30985
 Alpha  occ. eigenvalues --   -0.30080  -0.28594  -0.28039  -0.27503  -0.27032
 Alpha  occ. eigenvalues --   -0.26412  -0.25756  -0.25179  -0.24665  -0.23936
 Alpha  occ. eigenvalues --   -0.19437  -0.19207  -0.16863  -0.16145  -0.15853
 Alpha  occ. eigenvalues --   -0.11021   0.04124
 Alpha virt. eigenvalues --    0.05704   0.06724   0.07309   0.07491   0.08082
 Alpha virt. eigenvalues --    0.08317   0.08733   0.09388   0.09969   0.10209
 Alpha virt. eigenvalues --    0.10623   0.10836   0.11658   0.11774   0.11868

  Beta  occ. eigenvalues --  -18.99399 -14.33005 -14.24192 -14.24066 -14.23775
  Beta  occ. eigenvalues --  -10.17962 -10.13841 -10.10798 -10.08519 -10.08341
  Beta  occ. eigenvalues --  -10.07776 -10.07603 -10.07484 -10.07481 -10.07212
  Beta  occ. eigenvalues --  -10.07197 -10.07000 -10.06978  -1.00461  -0.94554
  Beta  occ. eigenvalues --   -0.85799  -0.83466  -0.75714  -0.70778  -0.68554
  Beta  occ. eigenvalues --   -0.65978  -0.64915  -0.63756  -0.57259  -0.55882
  Beta  occ. eigenvalues --   -0.53549  -0.52019  -0.49333  -0.46532  -0.45612
  Beta  occ. eigenvalues --   -0.41520  -0.39649  -0.38690  -0.37928  -0.36762
  Beta  occ. eigenvalues --   -0.36436  -0.35370  -0.34940  -0.34680  -0.33308
  Beta  occ. eigenvalues --   -0.33075  -0.32507  -0.31530  -0.31194  -0.30805
  Beta  occ. eigenvalues --   -0.30041  -0.28556  -0.27900  -0.27473  -0.26902
  Beta  occ. eigenvalues --   -0.26374  -0.25719  -0.25069  -0.24608  -0.23873
  Beta  occ. eigenvalues --   -0.19130  -0.18431  -0.16846  -0.16104  -0.15716
  Beta  occ. eigenvalues --   -0.10679
  Beta virt. eigenvalues --    0.06223   0.06946   0.07456   0.07936   0.08169
  Beta virt. eigenvalues --    0.08432   0.08773   0.09472   0.09720   0.10101
  Beta virt. eigenvalues --    0.10567   0.10669   0.10835   0.11786   0.11823

 Mulliken charges and spin densities:
               1          2
     1  C   -0.329018  -0.308626
     2  C    0.070687  -0.065424
     3  C   -0.290915   0.225054
     4  O   -0.304590  -0.005962
     5  N   -0.303769   0.078750
     6  C    0.246331   0.321479
     7  C    0.199612  -0.589002
     8  C   -0.268850  -0.227037
     9  C   -0.047190  -0.645904
    10  C    0.420331   0.069862
    11  C   -0.032887  -0.052924
    12  C   -0.327272   0.288065
    13  C   -0.333595  -0.840306
    14  C    0.426094  -0.493899
    15  C   -0.449493   0.235051
    16  N    0.171480   0.126293
    17  N    0.176570   0.038735
    18  N   -0.450528   0.200166
    19  H    0.134875   0.035042
    20  H    0.063734   0.068852
    21  H    0.078810   0.058146
    22  H    0.105856   0.078563
    23  H    0.189725  -0.012391
    24  H    0.270147   0.056427
    25  H   -0.213138   0.406304
    26  H   -0.109639   0.240854
    27  H    0.088098   0.050129
    28  H   -0.022974   0.187598
    29  H   -0.370821   0.537038
    30  H    0.181801  -0.014117
    31  H   -0.277859   0.426360
    32  H    0.065759   0.063345
    33  H    0.188492  -0.006288
    34  H   -0.110292   0.304939
    35  H    0.154128   0.032662
    36  H    0.010302   0.132166
 Sum of Mulliken charges =  -1.00000   1.00000

 Dipole moment (field-independent basis, Debye):
    X=             -2.1104    Y=              1.0646    Z=              0.5896  Tot=              2.4362
 Quadrupole moment (field-independent basis, Debye-Ang):
   XX=           -213.0818   YY=           -146.4568   ZZ=           -132.8004
   XY=            -10.0903   XZ=             -1.8661   YZ=              4.7864

 Summary of Natural Population Analysis:

                                       Natural Population
                Natural  -----------------------------------------------
    Atom  No    Charge         Core      Valence    Rydberg      Total
 -----------------------------------------------------------------------
      C    1   -0.28328      0.99967     2.27914    0.00447     3.28328
      C    2   -0.23841      0.99959     2.23204    0.00678     3.23841
      C    3    0.35183      0.99967     1.62660    0.02190     2.64817
      O    4   -0.32960      0.99988     3.32386    0.00587     4.32960
      N    5   -0.32769      0.99965     2.81654    0.01150     3.82769
      C    6    0.05819      0.99952     1.92776    0.01454     2.94181
      C    7   -0.28651      0.99963     2.28026    0.00663     3.28651
      C    8   -0.18638      0.99959     2.17672    0.01006     3.18638
      C    9   -0.29004      0.99966     2.28438    0.00601     3.29004
      C   10   -0.02907      0.99947     2.01752    0.01209     3.02907
      C   11   -0.09470      0.99951     2.08695    0.00824     3.09470
      C   12   -0.10862      0.99951     2.09898    0.01013     3.10862
      C   13    0.08640      0.99942     1.90145    0.01273     2.91360
      C   14   -0.11944      0.99952     2.11242    0.00749     3.11944
      C   15   -0.09762      0.99951     2.09026    0.00785     3.09762
      N   16   -0.20328      0.99965     2.68999    0.01364     3.70328
      N   17    0.15280      0.99970     2.33198    0.01551     3.34720
      N   18    0.00774      0.99982     2.47866    0.01378     3.49226
      H   19    0.10652      0.00000     0.39231    0.00117     0.39348
      H   20    0.09595      0.00000     0.40315    0.00091     0.40405
      H   21    0.09579      0.00000     0.40323    0.00098     0.40421
      H   22    0.11372      0.00000     0.38504    0.00124     0.38628
      H   23    0.10846      0.00000     0.39001    0.00153     0.39154
      H   24    0.19358      0.00000     0.30385    0.00257     0.30642
      H   25    0.10435      0.00000     0.39456    0.00110     0.39565
      H   26    0.10157      0.00000     0.39738    0.00106     0.39843
      H   27    0.10119      0.00000     0.39786    0.00095     0.39881
      H   28    0.10305      0.00000     0.39588    0.00107     0.39695
      H   29    0.09840      0.00000     0.39917    0.00243     0.40160
      H   30    0.10475      0.00000     0.39429    0.00096     0.39525
      H   31    0.10105      0.00000     0.39818    0.00077     0.39895
      H   32    0.09632      0.00000     0.40265    0.00103     0.40368
      H   33    0.10513      0.00000     0.39351    0.00136     0.39487
      H   34    0.10494      0.00000     0.39356    0.00150     0.39506
      H   35    0.10320      0.00000     0.39531    0.00149     0.39680
      H   36    0.09974      0.00000     0.39900    0.00126     0.40026
 =======================================================================
   * Total *    0.00000     17.99298    47.79444    0.21258    66.00000

 Normal termination of Gaussian 16 at Fri Dec 11 22:50:12 2020.
