 Gaussian 16, Revision A.03,

 -----------------------------------------------------------
 # opt freq B3LYP/6-31G(d) empiricaldispersion=gd3bj scf=xqc
 -----------------------------------------------------------

 --------------------------------
 CID_114462495_JID_10435_neutraal
 --------------------------------
 Symbolic Z-matrix:
 Charge =  0 Multiplicity = 1

 SCF Done:  E(RB3LYP) =  -1390.28113114     A.U. after   15 cycles
 SCF Done:  E(RB3LYP) =  -1390.29178097     A.U. after   12 cycles
 SCF Done:  E(RB3LYP) =  -1390.29303810     A.U. after   12 cycles
 SCF Done:  E(RB3LYP) =  -1390.29366546     A.U. after   12 cycles
 SCF Done:  E(RB3LYP) =  -1390.29422118     A.U. after   12 cycles
 SCF Done:  E(RB3LYP) =  -1390.29434134     A.U. after   11 cycles
 SCF Done:  E(RB3LYP) =  -1390.29435274     A.U. after   12 cycles
 SCF Done:  E(RB3LYP) =  -1390.29449445     A.U. after   11 cycles
 SCF Done:  E(RB3LYP) =  -1390.29456500     A.U. after   11 cycles
 SCF Done:  E(RB3LYP) =  -1390.29460056     A.U. after   11 cycles
 SCF Done:  E(RB3LYP) =  -1390.29593833     A.U. after    9 cycles
 SCF Done:  E(RB3LYP) =  -1390.29593832     A.U. after    7 cycles
 SCF Done:  E(RB3LYP) =  -1390.29593831     A.U. after    7 cycles
 SCF Done:  E(RB3LYP) =  -1390.29593829     A.U. after    7 cycles
 SCF Done:  E(RB3LYP) =  -1390.29593827     A.U. after    7 cycles
 Optimization completed.
    -- Stationary point found.
 Normal termination of Gaussian 16 at Sat Dec 12 17:09:54 2020.

 --------------------------------------------------------------------
 #N Geom=AllCheck Guess=TCheck SCRF=Check GenChk RB3LYP/6-31G(d) Freq
 --------------------------------------------------------------------

 Structure from the checkpoint file:  "JID_10435.chk"
 --------------------------------
 CID_114462495_JID_10435_neutraal
 --------------------------------
 Charge =  0 Multiplicity = 1

 SCF Done:  E(RB3LYP) =  -1390.29593827     A.U. after    1 cycles

  Exact polarizability: 167.129  -6.004 155.196   4.103   4.965 146.042
 Approx polarizability: 224.184 -13.690 227.692   5.889  18.529 230.185

                      1                      2                      3
                      A                      A                      A
 Frequencies --      3.6014                29.3051                33.5053
 Red. masses --     10.2291                 4.6587                 4.8315
 Frc consts  --      0.0001                 0.0024                 0.0032
 IR Inten    --      1.0402                 0.1164                 0.2472

                      4                      5                      6
                      A                      A                      A
 Frequencies --     41.7162                51.5040                70.4080
 Red. masses --      3.9867                 5.1415                 4.1390
 Frc consts  --      0.0041                 0.0080                 0.0121
 IR Inten    --      0.2136                 0.6138                 0.8157

                      7                      8                      9
                      A                      A                      A
 Frequencies --     74.5183                97.5278               111.9379
 Red. masses --      3.7633                 4.0323                 3.5416
 Frc consts  --      0.0123                 0.0226                 0.0261
 IR Inten    --      1.2068                 0.2360                 0.7099

                     10                     11                     12
                      A                      A                      A
 Frequencies --    130.9432               175.3401               188.6295
 Red. masses --      5.8603                 3.0212                 4.8531
 Frc consts  --      0.0592                 0.0547                 0.1017
 IR Inten    --      0.9976                 3.1712                 1.3042

                     13                     14                     15
                      A                      A                      A
 Frequencies --    213.4052               238.1184               241.0928
 Red. masses --      1.4813                 3.5408                 2.8704
 Frc consts  --      0.0397                 0.1183                 0.0983
 IR Inten    --      2.3398                 1.8329                 0.4221

                     16                     17                     18
                      A                      A                      A
 Frequencies --    255.5028               261.6040               301.0753
 Red. masses --      3.6025                 3.8210                 5.3646
 Frc consts  --      0.1386                 0.1541                 0.2865
 IR Inten    --      1.0418                 1.7190                 5.5829

                     19                     20                     21
                      A                      A                      A
 Frequencies --    305.2346               330.3692               335.9732
 Red. masses --      4.8797                 3.9641                 4.1956
 Frc consts  --      0.2679                 0.2549                 0.2790
 IR Inten    --      2.5404                 2.5045                 9.1326

                     22                     23                     24
                      A                      A                      A
 Frequencies --    345.5021               382.6338               427.2164
 Red. masses --      1.9298                 8.8727                 3.5371
 Frc consts  --      0.1357                 0.7654                 0.3804
 IR Inten    --      1.7875                 4.8836                 1.4429

                     25                     26                     27
                      A                      A                      A
 Frequencies --    443.5529               453.4639               465.7679
 Red. masses --      3.1001                 2.9713                 4.1378
 Frc consts  --      0.3594                 0.3600                 0.5289
 IR Inten    --      3.5550                13.5123                 7.9391

                     28                     29                     30
                      A                      A                      A
 Frequencies --    511.4445               516.7871               535.9103
 Red. masses --      2.0255                 2.6267                 1.2914
 Frc consts  --      0.3122                 0.4133                 0.2185
 IR Inten    --      9.5005                13.8787                99.4064

                     31                     32                     33
                      A                      A                      A
 Frequencies --    552.2337               560.0817               607.4510
 Red. masses --      3.6081                 2.9988                 5.5225
 Frc consts  --      0.6483                 0.5542                 1.2006
 IR Inten    --     48.6315                34.0860               153.6695

                     34                     35                     36
                      A                      A                      A
 Frequencies --    649.7177               679.9781               705.3526
 Red. masses --      2.1225                 2.5153                 4.0348
 Frc consts  --      0.5279                 0.6852                 1.1827
 IR Inten    --     27.2047               127.1404                 2.4237

                     37                     38                     39
                      A                      A                      A
 Frequencies --    722.9928               762.1917               794.5693
 Red. masses --      2.3897                 6.8731                 2.0702
 Frc consts  --      0.7360                 2.3525                 0.7700
 IR Inten    --     25.5393                25.6577                20.9363

                     40                     41                     42
                      A                      A                      A
 Frequencies --    811.6316               829.2563               839.3837
 Red. masses --      2.2701                 2.0991                 1.9402
 Frc consts  --      0.8811                 0.8505                 0.8054
 IR Inten    --     39.1701                 8.6179                42.0820

                     43                     44                     45
                      A                      A                      A
 Frequencies --    848.1028               885.5261               902.2424
 Red. masses --      1.9371                 2.6098                 1.6614
 Frc consts  --      0.8209                 1.2058                 0.7968
 IR Inten    --      5.2330                 3.7381                22.9316

                     46                     47                     48
                      A                      A                      A
 Frequencies --    911.7522               949.0300               949.6296
 Red. masses --      3.0082                 2.2458                 3.0040
 Frc consts  --      1.4734                 1.1917                 1.5961
 IR Inten    --     53.8146                 5.9254                69.4722

                     49                     50                     51
                      A                      A                      A
 Frequencies --    987.7731              1008.1379              1025.9690
 Red. masses --      2.6019                 1.7701                 1.9964
 Frc consts  --      1.4957                 1.0600                 1.2381
 IR Inten    --     40.3552                 0.6876                 5.8710

                     52                     53                     54
                      A                      A                      A
 Frequencies --   1047.4600              1081.2623              1086.3502
 Red. masses --      2.3188                 1.9746                 2.0725
 Frc consts  --      1.4990                 1.3601                 1.4410
 IR Inten    --      7.2554                 5.7995                17.4059

                     55                     56                     57
                      A                      A                      A
 Frequencies --   1096.8794              1118.2458              1122.9069
 Red. masses --      4.1424                 2.9445                 3.7557
 Frc consts  --      2.9364                 2.1694                 2.7902
 IR Inten    --     35.1239                13.2975               146.2628

                     58                     59                     60
                      A                      A                      A
 Frequencies --   1135.4920              1140.1567              1157.7941
 Red. masses --      3.1772                 2.9538                 2.2737
 Frc consts  --      2.4136                 2.2623                 1.7958
 IR Inten    --    201.9586                27.8265                41.4556

                     61                     62                     63
                      A                      A                      A
 Frequencies --   1181.9883              1206.8565              1212.9869
 Red. masses --      2.0709                 1.5115                 1.7658
 Frc consts  --      1.7046                 1.2971                 1.5308
 IR Inten    --    276.8631                22.5477                15.6542

                     64                     65                     66
                      A                      A                      A
 Frequencies --   1243.4069              1262.1943              1286.6031
 Red. masses --      1.3686                 1.4227                 1.3018
 Frc consts  --      1.2467                 1.3354                 1.2696
 IR Inten    --      4.2110                11.3783                14.3996

                     67                     68                     69
                      A                      A                      A
 Frequencies --   1315.2971              1320.3359              1331.0616
 Red. masses --      1.2789                 3.6952                 1.3646
 Frc consts  --      1.3035                 3.7953                 1.4245
 IR Inten    --     12.5966               115.9374                17.6484

                     70                     71                     72
                      A                      A                      A
 Frequencies --   1341.1173              1344.9192              1357.6231
 Red. masses --      1.1550                 1.3530                 2.6608
 Frc consts  --      1.2239                 1.4419                 2.8895
 IR Inten    --     19.1977                 8.3865               429.1982

                     73                     74                     75
                      A                      A                      A
 Frequencies --   1367.5738              1380.3710              1392.8108
 Red. masses --      1.2767                 1.2507                 1.3658
 Frc consts  --      1.4068                 1.4041                 1.5611
 IR Inten    --     18.2053                 6.8317                11.3544

                     76                     77                     78
                      A                      A                      A
 Frequencies --   1407.5558              1414.4023              1418.6399
 Red. masses --      1.4875                 1.6017                 1.5402
 Frc consts  --      1.7364                 1.8879                 1.8263
 IR Inten    --     19.7856                14.5767                13.3853

                     79                     80                     81
                      A                      A                      A
 Frequencies --   1422.7027              1425.4077              1434.6578
 Red. masses --      1.4448                 1.3951                 1.4201
 Frc consts  --      1.7230                 1.6701                 1.7222
 IR Inten    --      8.0453                62.1692                56.8254

                     82                     83                     84
                      A                      A                      A
 Frequencies --   1445.8149              1447.0294              1496.6869
 Red. masses --      1.7790                 1.4249                 1.0957
 Frc consts  --      2.1911                 1.7579                 1.4461
 IR Inten    --     30.6007                40.6139                 9.2583

                     85                     86                     87
                      A                      A                      A
 Frequencies --   1505.3808              1510.8565              1516.4711
 Red. masses --      1.0870                 1.0698                 1.0668
 Frc consts  --      1.4513                 1.4388                 1.4455
 IR Inten    --      8.9514                 0.9771                 3.1361

                     88                     89                     90
                      A                      A                      A
 Frequencies --   1521.0606              1522.8579              1535.4473
 Red. masses --      1.0816                 1.0949                 1.0938
 Frc consts  --      1.4744                 1.4961                 1.5194
 IR Inten    --     10.3583                 7.9441                14.3139

                     91                     92                     93
                      A                      A                      A
 Frequencies --   1536.3176              1542.4957              1821.5087
 Red. masses --      1.0698                 1.0790                 9.5853
 Frc consts  --      1.4877                 1.5126                18.7379
 IR Inten    --     11.8881                 2.2806               290.6638

                     94                     95                     96
                      A                      A                      A
 Frequencies --   1839.3376              3007.1757              3033.9203
 Red. masses --      9.3972                 1.0736                 1.0700
 Frc consts  --     18.7314                 5.7202                 5.8027
 IR Inten    --    270.6554                35.5424                 9.5778

                     97                     98                     99
                      A                      A                      A
 Frequencies --   3040.4868              3052.2354              3065.4206
 Red. masses --      1.0634                 1.0607                 1.0666
 Frc consts  --      5.7921                 5.8224                 5.9049
 IR Inten    --     30.5364                26.8175                 6.3454

                    100                    101                    102
                      A                      A                      A
 Frequencies --   3065.8571              3072.5042              3085.6512
 Red. masses --      1.0362                 1.0667                 1.0941
 Frc consts  --      5.7385                 5.9332                 6.1379
 IR Inten    --     12.5449                 4.7815                39.2664

                    103                    104                    105
                      A                      A                      A
 Frequencies --   3089.0029              3097.2890              3103.4116
 Red. masses --      1.0842                 1.1039                 1.0598
 Frc consts  --      6.0952                 6.2393                 6.0139
 IR Inten    --     12.5073                60.6881                21.6942

                    106                    107                    108
                      A                      A                      A
 Frequencies --   3111.1908              3119.8267              3135.9653
 Red. masses --      1.0951                 1.0950                 1.0990
 Frc consts  --      6.2453                 6.2797                 6.3677
 IR Inten    --     10.2569                35.7224                34.9430

                    109                    110                    111
                      A                      A                      A
 Frequencies --   3139.3747              3142.8301              3166.3462
 Red. masses --      1.1002                 1.1047                 1.1091
 Frc consts  --      6.3887                 6.4288                 6.5514
 IR Inten    --      7.7503                 2.3079                20.9270

                    112                    113                    114
                      A                      A                      A
 Frequencies --   3182.0871              3618.1782              3680.5476
 Red. masses --      1.0907                 1.0771                 1.0639
 Frc consts  --      6.5069                 8.3076                 8.4915
 IR Inten    --      2.5776                63.2883                53.2173

 - Thermochemistry -
 -------------------
 Temperature   298.150 Kelvin.  Pressure   1.00000 Atm.
 Atom     1 has atomic number  6 and mass  12.00000

 Molecular mass:   308.10421 amu.
 Principal axes and moments of inertia in atomic units:
                           1         2         3
     Eigenvalues --  4381.737248356.568368625.99119
           X            0.99982  -0.01028   0.01578
           Y            0.01088   0.99921  -0.03823
           Z           -0.01537   0.03839   0.99914
 This molecule is an asymmetric top.
 Rotational symmetry number  1.
 Warning -- assumption of classical behavior for rotation
           may cause significant error
 Rotational temperatures (Kelvin)      0.01977     0.01036     0.01004
 Rotational constants (GHZ):           0.41188     0.21597     0.20922
 Zero-point vibrational energy     872449.8 (Joules/Mol)
                                  208.52051 (Kcal/Mol)
 Warning -- explicit consideration of  33 degrees of freedom as
           vibrations may cause significant error
 Vibrational temperatures:      5.18    42.16    48.21    60.02    74.10
          (Kelvin)            101.30   107.22   140.32   161.05   188.40
                              252.28   271.40   307.04   342.60   346.88
                              367.61   376.39   433.18   439.16   475.33
                              483.39   497.10   550.52   614.67   638.17
                              652.43   670.14   735.85   743.54   771.06
                              794.54   805.83   873.99   934.80   978.34
                             1014.85  1040.23  1096.62  1143.21  1167.76
                             1193.11  1207.69  1220.23  1274.07  1298.13
                             1311.81  1365.44  1366.31  1421.19  1450.49
                             1476.14  1507.06  1555.70  1563.02  1578.16
                             1608.91  1615.61  1633.72  1640.43  1665.81
                             1700.62  1736.40  1745.22  1788.99  1816.02
                             1851.13  1892.42  1899.67  1915.10  1929.57
                             1935.04  1953.32  1967.63  1986.05  2003.94
                             2025.16  2035.01  2041.11  2046.95  2050.84
                             2064.15  2080.21  2081.95  2153.40  2165.91
                             2173.79  2181.86  2188.47  2191.05  2209.17
                             2210.42  2219.31  2620.74  2646.40  4326.66
                             4365.13  4374.58  4391.49  4410.46  4411.08
                             4420.65  4439.56  4444.39  4456.31  4465.12
                             4476.31  4488.73  4511.95  4516.86  4521.83
                             4555.67  4578.31  5205.75  5295.49

 Zero-point correction=                           0.332299 (Hartree/Particle)
 Thermal correction to Energy=                    0.353146
 Thermal correction to Enthalpy=                  0.354090
 Thermal correction to Gibbs Free Energy=         0.278685
 Sum of electronic and zero-point Energies=          -1389.963640
 Sum of electronic and thermal Energies=             -1389.942793
 Sum of electronic and thermal Enthalpies=           -1389.941848
 Sum of electronic and thermal Free Energies=        -1390.017254

                     E (Thermal)             CV                S
                      KCal/Mol        Cal/Mol-Kelvin    Cal/Mol-Kelvin
 Total                  221.602             77.020            158.703
 Electronic               0.000              0.000              0.000
 Translational            0.889              2.981             43.072
 Rotational               0.889              2.981             34.112
 Vibrational            219.825             71.058             81.519
 Vibration     1          0.592              1.987             10.040
 Vibration     2          0.593              1.984              5.876
 Vibration     3          0.594              1.983              5.610
 Vibration     4          0.594              1.981              5.176
 Vibration     5          0.596              1.977              4.759
 Vibration     6          0.598              1.968              4.142
 Vibration     7          0.599              1.966              4.030
 Vibration     8          0.603              1.951              3.503
 Vibration     9          0.607              1.940              3.235
 Vibration    10          0.612              1.922              2.932
 Vibration    11          0.627              1.873              2.377
 Vibration    12          0.633              1.855              2.241
 Vibration    13          0.644              1.821              2.014
 Vibration    14          0.656              1.782              1.817
 Vibration    15          0.658              1.777              1.795
 Vibration    16          0.666              1.753              1.692
 Vibration    17          0.669              1.743              1.651
 Vibration    18          0.693              1.672              1.411
 Vibration    19          0.696              1.664              1.388
 Vibration    20          0.713              1.615              1.258
 Vibration    21          0.717              1.604              1.231
 Vibration    22          0.724              1.584              1.187
 Vibration    23          0.752              1.507              1.029
 Vibration    24          0.789              1.411              0.868
 Vibration    25          0.803              1.375              0.816
 Vibration    26          0.812              1.353              0.785
 Vibration    27          0.823              1.326              0.750
 Vibration    28          0.867              1.225              0.630
 Vibration    29          0.872              1.213              0.617
 Vibration    30          0.891              1.171              0.574
 Vibration    31          0.908              1.135              0.540
 Vibration    32          0.916              1.118              0.524
 Vibration    33          0.966              1.016              0.437

 Optimization completed.
    -- Stationary point found.
 Normal termination of Gaussian 16 at Sat Dec 12 17:35:35 2020.

 ----------------------------------------------------------------------
 # B3LYP/6-311++G(d,p) empiricaldispersion=gd3bj scf=xqc pop=npa geom=c
 heck
 ----------------------------------------------------------------------

 ----------------------------------------
 CID_114462495_JID_10435_Energie_neutraal
 ----------------------------------------
 Structure from the checkpoint file:  "JID_10435.chk"
 Charge =  0 Multiplicity = 1

 SCF Done:  E(RB3LYP) =  -1390.62304077     A.U. after   16 cycles
 Normal termination of Gaussian 16 at Sat Dec 12 17:48:05 2020.

 ----------------------------------------------------------------------
 # B3LYP/6-311++G(d,p) empiricaldispersion=gd3bj scf=xqc pop=npa geom=c
 heck
 ----------------------------------------------------------------------

 --------------------------------------
 CID_114462495_JID_10435_Energie_kation
 --------------------------------------
 Structure from the checkpoint file:  "JID_10435.chk"
 Charge =  1 Multiplicity = 2

 SCF Done:  E(UB3LYP) =  -1390.29625572     A.U. after   25 cycles
 Normal termination of Gaussian 16 at Sat Dec 12 18:16:11 2020.
 Gaussian 16:  ES64L-G16RevA.03 25-Dec-2016

 ----------------------------------------------------------------------
 # B3LYP/6-311++G(d,p) empiricaldispersion=gd3bj scf=xqc pop=npa geom=c
 heck
 ----------------------------------------------------------------------

 -------------------------------------
 CID_114462495_JID_10435_Energie_anion
 -------------------------------------
 Structure from the checkpoint file:  "JID_10435.chk"
 Charge = -1 Multiplicity = 2

                         Standard orientation:
 ---------------------------------------------------------------------
 Center     Atomic      Atomic             Coordinates (Angstroms)
 Number     Number       Type             X           Y           Z
 ---------------------------------------------------------------------
      1          6           0       -2.757997    0.532455   -2.648137
      2          6           0       -3.649733   -0.130854   -1.611962
      3          8           0       -2.907065   -0.452517   -0.411956
      4          6           0       -2.157070   -1.557629   -0.473720
      5          8           0       -2.120376   -2.356587   -1.387835
      6          7           0       -1.394940   -1.719539    0.678559
      7         16           0       -0.871277   -0.488790    1.733690
      8          8           0       -2.024567    0.043850    2.440217
      9          8           0        0.224060   -1.132863    2.459613
     10          7           0       -0.328917    0.702729    0.664004
     11          6           0       -0.676537    2.068390    1.138155
     12          6           0       -0.522427    3.075906    0.006965
     13          6           0        0.901958    3.043602   -0.537718
     14          6           0        1.261526    1.622071   -0.966854
     15          6           0        1.074361    0.577424    0.145408
     16          6           0        1.363573   -0.839033   -0.394625
     17          6           0        2.665279   -1.010090   -1.190686
     18          6           0        3.930517   -0.649095   -0.445428
     19          8           0        4.033234    0.159708    0.452413
     20          8           0        4.998798   -1.324834   -0.932946
     21          1           0       -2.277665    1.422441   -2.230860
     22          1           0       -3.355858    0.833395   -3.515527
     23          1           0       -1.984644   -0.161871   -2.987578
     24          1           0       -4.433989    0.541852   -1.260239
     25          1           0       -4.101486   -1.046499   -1.999713
     26          1           0       -0.779908   -2.524161    0.661899
     27          1           0       -0.028572    2.355845    1.981011
     28          1           0       -1.703561    2.040401    1.495074
     29          1           0       -0.780923    4.070638    0.388801
     30          1           0       -1.237416    2.834212   -0.789500
     31          1           0        1.017794    3.732611   -1.382352
     32          1           0        1.599840    3.374949    0.243519
     33          1           0        0.646926    1.328787   -1.829558
     34          1           0        2.309061    1.593741   -1.278530
     35          1           0        1.774464    0.793687    0.959153
     36          1           0        1.388758   -1.540949    0.441361
     37          1           0        0.545440   -1.138239   -1.058997
     38          1           0        2.748839   -2.048945   -1.524054
     39          1           0        2.654854   -0.407452   -2.107469
     40          1           0        5.772107   -1.009065   -0.427858
 ---------------------------------------------------------------------

 SCF Done:  E(UB3LYP) =  -1390.61659054     A.U. after   33 cycles
 SCF Done:  E(UB3LYP) =  -1390.61659054     a.u. after    1 cycles

 The electronic state is 2-A.
 Alpha  occ. eigenvalues --  -89.01152 -19.09702 -19.08211 -19.04950 -19.04946
 Alpha  occ. eigenvalues --  -19.03858 -19.02930 -14.28955 -14.26992 -10.26304
 Alpha  occ. eigenvalues --  -10.22076 -10.15359 -10.13243 -10.12465 -10.10372
 Alpha  occ. eigenvalues --  -10.09604 -10.08795 -10.08392 -10.08320 -10.08282
 Alpha  occ. eigenvalues --   -8.07054  -6.03362  -6.03261  -6.03230  -1.06517
 Alpha  occ. eigenvalues --   -1.04488  -1.02370  -0.95790  -0.94576  -0.93446
 Alpha  occ. eigenvalues --   -0.86958  -0.85526  -0.73275  -0.72006  -0.69683
 Alpha  occ. eigenvalues --   -0.67372  -0.62839  -0.60363  -0.58961  -0.55323
 Alpha  occ. eigenvalues --   -0.54554  -0.51068  -0.50004  -0.48762  -0.47108
 Alpha  occ. eigenvalues --   -0.46160  -0.43938  -0.42050  -0.41468  -0.40794
 Alpha  occ. eigenvalues --   -0.40091  -0.39264  -0.39027  -0.38308  -0.37576
 Alpha  occ. eigenvalues --   -0.36990  -0.36174  -0.35613  -0.35117  -0.33997
 Alpha  occ. eigenvalues --   -0.32742  -0.32157  -0.31724  -0.30414  -0.29940
 Alpha  occ. eigenvalues --   -0.29448  -0.28595  -0.28155  -0.27833  -0.26959
 Alpha  occ. eigenvalues --   -0.26838  -0.26199  -0.25190  -0.24766  -0.24339
 Alpha  occ. eigenvalues --   -0.23915  -0.23762  -0.23271  -0.22290  -0.21813
 Alpha  occ. eigenvalues --   -0.19906  -0.17498   0.03614
 Alpha virt. eigenvalues --    0.05149   0.06353   0.06756   0.07064   0.07745
 Alpha virt. eigenvalues --    0.08044   0.08597   0.08855   0.08949   0.09522
 Alpha virt. eigenvalues --    0.09991   0.11064   0.11468   0.11919   0.12243

  Beta  occ. eigenvalues --  -89.01147 -19.09703 -19.08161 -19.04947 -19.04942
  Beta  occ. eigenvalues --  -19.03852 -19.02911 -14.28948 -14.26984 -10.26293
  Beta  occ. eigenvalues --  -10.22052 -10.15345 -10.13243 -10.12463 -10.10340
  Beta  occ. eigenvalues --  -10.09595 -10.08775 -10.08369 -10.08304 -10.08243
  Beta  occ. eigenvalues --   -8.07047  -6.03356  -6.03256  -6.03224  -1.06504
  Beta  occ. eigenvalues --   -1.04478  -1.02294  -0.95782  -0.94564  -0.93383
  Beta  occ. eigenvalues --   -0.86944  -0.85513  -0.73244  -0.71976  -0.69650
  Beta  occ. eigenvalues --   -0.67325  -0.62807  -0.60310  -0.58911  -0.55290
  Beta  occ. eigenvalues --   -0.54502  -0.51026  -0.49919  -0.48723  -0.47086
  Beta  occ. eigenvalues --   -0.46147  -0.43923  -0.42014  -0.41428  -0.40758
  Beta  occ. eigenvalues --   -0.40057  -0.39242  -0.38989  -0.38286  -0.37556
  Beta  occ. eigenvalues --   -0.36941  -0.36135  -0.35579  -0.35091  -0.33958
  Beta  occ. eigenvalues --   -0.32706  -0.32118  -0.31686  -0.30378  -0.29910
  Beta  occ. eigenvalues --   -0.29403  -0.28576  -0.28128  -0.27806  -0.26939
  Beta  occ. eigenvalues --   -0.26820  -0.26183  -0.25163  -0.24751  -0.24296
  Beta  occ. eigenvalues --   -0.23860  -0.23746  -0.23256  -0.22273  -0.21800
  Beta  occ. eigenvalues --   -0.19863  -0.17479
  Beta virt. eigenvalues --    0.05805   0.06369   0.06789   0.07196   0.07584
  Beta virt. eigenvalues --    0.07896   0.08337   0.08770   0.09147   0.09425
  Beta virt. eigenvalues --    0.09751   0.10206   0.11364   0.11640   0.12082

 Mulliken charges and spin densities:
               1          2
     1  C    0.626202  -1.029839
     2  C   -0.282264   0.104387
     3  O    0.053866   0.015762
     4  C   -0.125183  -0.107675
     5  O   -0.206725   0.009823
     6  N   -0.367140   0.005077
     7  S    0.685214  -0.049384
     8  O   -0.141109  -0.003621
     9  O   -0.067599   0.005764
    10  N    0.161570   0.023542
    11  C   -0.315784  -0.022500
    12  C    0.266724  -0.457773
    13  C   -0.229727  -0.443934
    14  C    0.093954  -0.154163
    15  C   -0.832376  -0.025089
    16  C   -0.645532   0.636829
    17  C    1.121327  -1.906042
    18  C   -0.255096   0.121166
    19  O   -0.260366   0.005332
    20  O   -0.178785   0.057582
    21  H    0.071462   0.088069
    22  H   -0.473241   0.635351
    23  H   -0.173450   0.343317
    24  H   -0.151415   0.322049
    25  H    0.184162  -0.020303
    26  H    0.321155   0.044424
    27  H    0.133277   0.022402
    28  H    0.210266   0.023557
    29  H   -0.175715   0.365127
    30  H    0.081636   0.036557
    31  H   -0.462412   0.652979
    32  H    0.184057  -0.047571
    33  H    0.152553   0.017390
    34  H    0.014545   0.191124
    35  H    0.319597   0.010189
    36  H    0.115031   0.129585
    37  H    0.451351  -0.261579
    38  H    0.033241   0.209607
    39  H   -0.524661   0.752572
    40  H   -0.412612   0.699913
 Sum of Mulliken charges =  -1.00000   1.00000

 Dipole moment (field-independent basis, Debye):
    X=             -4.3235    Y=             -1.5087    Z=              3.9375  Tot=              6.0392
 Quadrupole moment (field-independent basis, Debye-Ang):
   XX=           -218.0472   YY=           -169.9978   ZZ=           -186.0587
   XY=              8.0994   XZ=              0.9806   YZ=              6.9750

 Summary of Natural Population Analysis:

                                       Natural Population
                Natural  -----------------------------------------------
    Atom  No    Charge         Core      Valence    Rydberg      Total
 -----------------------------------------------------------------------
      C    1   -0.30040      0.99966     2.29538    0.00536     3.30040
      C    2   -0.01409      0.99958     2.00301    0.01150     3.01409
      O    3   -0.27496      0.99985     3.26682    0.00829     4.27496
      C    4    0.46646      0.99972     1.50814    0.02568     2.53354
      O    5   -0.31541      0.99987     3.31047    0.00508     4.31541
      N    6   -0.43628      0.99966     2.92652    0.01010     3.93628
      S    7    1.17517      4.99931     1.72088    0.10465     6.82483
      O    8   -0.44500      0.99990     3.43969    0.00542     4.44500
      O    9   -0.45657      0.99990     3.45153    0.00515     4.45657
      N   10   -0.36992      0.99971     2.85785    0.01236     3.86992
      C   11   -0.08690      0.99959     2.07642    0.01088     3.08690
      C   12   -0.19389      0.99962     2.18562    0.00865     3.19389
      C   13   -0.18786      0.99962     2.17988    0.00836     3.18786
      C   14   -0.19568      0.99960     2.18610    0.00999     3.19568
      C   15   -0.00750      0.99956     1.99551    0.01243     3.00750
      C   16   -0.20095      0.99960     2.19122    0.01013     3.20095
      C   17   -0.23942      0.99957     2.23100    0.00884     3.23942
      C   18    0.41085      0.99972     1.56474    0.02469     2.58915
      O   19   -0.30947      0.99987     3.30362    0.00598     4.30947
      O   20   -0.34274      0.99988     3.33638    0.00648     4.34274
      H   21    0.10242      0.00000     0.39577    0.00180     0.39758
      H   22    0.10553      0.00000     0.39294    0.00153     0.39447
      H   23    0.10640      0.00000     0.39232    0.00128     0.39360
      H   24    0.09304      0.00000     0.40593    0.00103     0.40696
      H   25    0.09453      0.00000     0.40441    0.00107     0.40547
      H   26    0.21152      0.00000     0.28626    0.00223     0.28848
      H   27    0.08738      0.00000     0.41151    0.00112     0.41262
      H   28    0.11606      0.00000     0.38275    0.00119     0.38394
      H   29    0.10262      0.00000     0.39649    0.00089     0.39738
      H   30    0.09939      0.00000     0.39871    0.00190     0.40061
      H   31    0.10410      0.00000     0.39476    0.00114     0.39590
      H   32    0.09492      0.00000     0.40390    0.00118     0.40508
      H   33    0.09864      0.00000     0.39908    0.00228     0.40136
      H   34    0.10875      0.00000     0.38983    0.00142     0.39125
      H   35    0.10786      0.00000     0.39066    0.00147     0.39214
      H   36    0.10772      0.00000     0.39097    0.00131     0.39228
      H   37    0.10390      0.00000     0.39380    0.00230     0.39610
      H   38    0.11576      0.00000     0.38320    0.00104     0.38424
      H   39    0.12047      0.00000     0.37770    0.00183     0.37953
      H   40    0.24359      0.00000     0.24379    0.01262     0.25641
 =======================================================================
   * Total *    0.00000     23.99378    57.66559    0.34064    82.00000

 Normal termination of Gaussian 16 at Sat Dec 12 18:53:05 2020.
