 Gaussian 16, Revision A.03,

 -----------------------------------------------------------
 # opt freq B3LYP/6-31G(d) empiricaldispersion=gd3bj scf=xqc
 -----------------------------------------------------------

 -------------------------------
 CID_140687051_JID_4887_neutraal
 -------------------------------
 Symbolic Z-matrix:
 Charge =  0 Multiplicity = 1

 SCF Done:  E(RB3LYP) =  -621.007596197     A.U. after   15 cycles
 SCF Done:  E(RB3LYP) =  -621.011695558     A.U. after   12 cycles
 SCF Done:  E(RB3LYP) =  -621.011890796     A.U. after   11 cycles
 SCF Done:  E(RB3LYP) =  -621.011907009     A.U. after    9 cycles
 SCF Done:  E(RB3LYP) =  -621.011908435     A.U. after    8 cycles
 SCF Done:  E(RB3LYP) =  -621.011908882     A.U. after    7 cycles
 Optimization completed.
    -- Stationary point found.
 Normal termination of Gaussian 16 at Thu Dec 10 10:42:24 2020.

 --------------------------------------------------------------------
 #N Geom=AllCheck Guess=TCheck SCRF=Check GenChk RB3LYP/6-31G(d) Freq
 --------------------------------------------------------------------

 Structure from the checkpoint file:  "JID_4887.chk"
 -------------------------------
 CID_140687051_JID_4887_neutraal
 -------------------------------
 Charge =  0 Multiplicity = 1

 SCF Done:  E(RB3LYP) =  -621.011908882     A.U. after    1 cycles

  Exact polarizability: 196.843   2.218 134.457  -0.028   0.007  41.982
 Approx polarizability: 314.988   6.080 257.136  -0.029  -0.106  67.431

                      1                      2                      3
                      A                      A                      A
 Frequencies --     76.4528               117.4125               171.4571
 Red. masses --      4.2138                 6.4457                 1.5480
 Frc consts  --      0.0145                 0.0524                 0.0268
 IR Inten    --     53.7096                 0.3746               130.4818

                      4                      5                      6
                      A                      A                      A
 Frequencies --    176.9550               227.7570               294.8623
 Red. masses --      3.9014                 4.1553                 5.4785
 Frc consts  --      0.0720                 0.1270                 0.2806
 IR Inten    --     18.2718                18.8634                28.1227

                      7                      8                      9
                      A                      A                      A
 Frequencies --    329.9238               380.6600               426.6999
 Red. masses --      4.8965                 3.8210                 1.4743
 Frc consts  --      0.3140                 0.3262                 0.1582
 IR Inten    --      1.5931                 6.4803                83.9513

                     10                     11                     12
                      A                      A                      A
 Frequencies --    443.2205               456.4180               554.0042
 Red. masses --      7.9054                 2.5118                 5.1398
 Frc consts  --      0.9150                 0.3083                 0.9294
 IR Inten    --      1.6840                10.8255                 0.2353

                     13                     14                     15
                      A                      A                      A
 Frequencies --    557.5349               584.1061               598.4868
 Red. masses --      3.0161                 6.7095                 2.5889
 Frc consts  --      0.5524                 1.3487                 0.5464
 IR Inten    --     27.2274                 6.2026                 5.5939

                     16                     17                     18
                      A                      A                      A
 Frequencies --    614.2402               616.1205               682.1688
 Red. masses --      5.8930                 1.2417                 7.3631
 Frc consts  --      1.3100                 0.2777                 2.0188
 IR Inten    --      1.7421                 0.1013                 3.0272

                     19                     20                     21
                      A                      A                      A
 Frequencies --    695.1298               729.3166               777.0046
 Red. masses --      9.5127                 6.7437                 2.2866
 Frc consts  --      2.7082                 2.1134                 0.8134
 IR Inten    --      1.5192                 3.9527                 7.2968

                     22                     23                     24
                      A                      A                      A
 Frequencies --    804.3846               825.4428               871.2507
 Red. masses --      2.0951                11.1832                 5.2470
 Frc consts  --      0.7987                 4.4894                 2.3466
 IR Inten    --     26.8678                17.1212                 1.2293

                     25                     26                     27
                      A                      A                      A
 Frequencies --    897.4311               929.5075               963.5211
 Red. masses --      7.9452                 1.3598                 1.3007
 Frc consts  --      3.7701                 0.6922                 0.7114
 IR Inten    --     18.7853                 0.4010                 0.7412

                     28                     29                     30
                      A                      A                      A
 Frequencies --    980.1496              1018.3317              1054.9930
 Red. masses --      1.4519                 3.2917                 3.1726
 Frc consts  --      0.8218                 2.0112                 2.0805
 IR Inten    --      1.3321                 8.1366                 3.9592

                     31                     32                     33
                      A                      A                      A
 Frequencies --   1073.9796              1143.9446              1159.1728
 Red. masses --      2.2176                 1.7633                 2.9076
 Frc consts  --      1.5071                 1.3595                 2.3018
 IR Inten    --      3.4280                19.3758                42.9618

                     34                     35                     36
                      A                      A                      A
 Frequencies --   1234.1421              1246.4260              1287.9370
 Red. masses --      1.8683                 1.9354                 3.8685
 Frc consts  --      1.6766                 1.7716                 3.7808
 IR Inten    --      6.6091                42.9782                54.4925

                     37                     38                     39
                      A                      A                      A
 Frequencies --   1340.3955              1343.8015              1367.0484
 Red. masses --      6.9930                 3.1840                 2.4338
 Frc consts  --      7.4025                 3.3876                 2.6798
 IR Inten    --     26.9966                24.8027                44.0698

                     40                     41                     42
                      A                      A                      A
 Frequencies --   1410.1632              1439.9748              1456.1648
 Red. masses --      2.0451                 2.9651                 2.6091
 Frc consts  --      2.3960                 3.6224                 3.2596
 IR Inten    --     85.6679                 0.8916                50.7598

                     43                     44                     45
                      A                      A                      A
 Frequencies --   1463.1360              1521.8996              1543.9382
 Red. masses --      4.6514                 2.6879                 2.8907
 Frc consts  --      5.8668                 3.6681                 4.0599
 IR Inten    --     21.7847                17.4972                17.7831

                     46                     47                     48
                      A                      A                      A
 Frequencies --   1614.4735              1627.3796              1651.2006
 Red. masses --      5.7635                 2.4590                 6.7791
 Frc consts  --      8.8512                 3.8369                10.8898
 IR Inten    --     13.3258                17.0125               298.7312

                     49                     50                     51
                      A                      A                      A
 Frequencies --   1670.7240              1686.5426              3183.0887
 Red. masses --      7.1436                 2.5990                 1.0887
 Frc consts  --     11.7484                 4.3557                 6.4991
 IR Inten    --     47.6979               586.9746                20.8509

                     52                     53                     54
                      A                      A                      A
 Frequencies --   3187.1927              3198.7056              3218.5147
 Red. masses --      1.0905                 1.0902                 1.0959
 Frc consts  --      6.5267                 6.5720                 6.6887
 IR Inten    --     37.5826                13.4088                21.2402

                     55                     56                     57
                      A                      A                      A
 Frequencies --   3579.8801              3657.3499              3719.8764
 Red. masses --      1.0461                 1.0798                 1.1052
 Frc consts  --      7.8984                 8.5097                 9.0107
 IR Inten    --     70.6038                67.1717                77.4753

 - Thermochemistry -
 -------------------
 Temperature   298.150 Kelvin.  Pressure   1.00000 Atm.
 Atom     1 has atomic number  6 and mass  12.00000

 Molecular mass:   185.07015 amu.
 Principal axes and moments of inertia in atomic units:
                           1         2         3
     Eigenvalues --  1171.202923041.740714212.93112
           X            0.99996  -0.00887  -0.00006
           Y            0.00887   0.99996   0.00027
           Z            0.00006  -0.00027   1.00000
 This molecule is an asymmetric top.
 Rotational symmetry number  1.
 Warning -- assumption of classical behavior for rotation
           may cause significant error
 Rotational temperatures (Kelvin)      0.07395     0.02848     0.02056
 Rotational constants (GHZ):           1.54093     0.59333     0.42838
 Zero-point vibrational energy     417987.2 (Joules/Mol)
                                   99.90133 (Kcal/Mol)
 Warning -- explicit consideration of  17 degrees of freedom as
           vibrations may cause significant error
 Vibrational temperatures:    110.00   168.93   246.69   254.60   327.69
          (Kelvin)            424.24   474.69   547.68   613.93   637.70
                              656.68   797.09   802.17   840.40   861.09
                              883.75   886.46   981.49  1000.14  1049.32
                             1117.94  1157.33  1187.63  1253.54  1291.20
                             1337.35  1386.29  1410.22  1465.15  1517.90
                             1545.22  1645.88  1667.79  1775.66  1793.33
                             1853.05  1928.53  1933.43  1966.88  2028.91
                             2071.80  2095.10  2105.13  2189.67  2221.38
                             2322.87  2341.44  2375.71  2403.80  2426.56
                             4579.75  4585.66  4602.22  4630.72  5150.65
                             5262.11  5352.07

 Zero-point correction=                           0.159203 (Hartree/Particle)
 Thermal correction to Energy=                    0.169260
 Thermal correction to Enthalpy=                  0.170204
 Thermal correction to Gibbs Free Energy=         0.123519
 Sum of electronic and zero-point Energies=           -620.852706
 Sum of electronic and thermal Energies=              -620.842649
 Sum of electronic and thermal Enthalpies=            -620.841705
 Sum of electronic and thermal Free Energies=         -620.888390

                     E (Thermal)             CV                S
                      KCal/Mol        Cal/Mol-Kelvin    Cal/Mol-Kelvin
 Total                  106.212             40.520             98.257
 Electronic               0.000              0.000              0.000
 Translational            0.889              2.981             41.553
 Rotational               0.889              2.981             31.085
 Vibrational            104.435             34.559             25.620
 Vibration     1          0.599              1.965              3.980
 Vibration     2          0.608              1.935              3.143
 Vibration     3          0.626              1.878              2.419
 Vibration     4          0.628              1.871              2.360
 Vibration     5          0.651              1.799              1.897
 Vibration     6          0.689              1.683              1.446
 Vibration     7          0.713              1.616              1.260
 Vibration     8          0.750              1.511              1.037
 Vibration     9          0.788              1.412              0.870
 Vibration    10          0.803              1.376              0.817
 Vibration    11          0.815              1.347              0.777
 Vibration    12          0.909              1.131              0.536
 Vibration    13          0.913              1.123              0.529
 Vibration    14          0.941              1.066              0.478
 Vibration    15          0.956              1.035              0.452
 Vibration    16          0.974              1.002              0.426
 Vibration    17          0.976              0.998              0.423

                           ! Non-Optimized Parameters !
 Normal termination of Gaussian 16 at Thu Dec 10 10:47:52 2020.

 ----------------------------------------------------------------------
 # B3LYP/6-311++G(d,p) empiricaldispersion=gd3bj scf=xqc pop=npa geom=c
 heck
 ----------------------------------------------------------------------

 ---------------------------------------
 CID_140687051_JID_4887_Energie_neutraal
 ---------------------------------------
 Structure from the checkpoint file:  "JID_4887.chk"
 Charge =  0 Multiplicity = 1

 SCF Done:  E(RB3LYP) =  -621.177592478     A.U. after   14 cycles
 Normal termination of Gaussian 16 at Thu Dec 10 10:49:54 2020.

 ----------------------------------------------------------------------
 # B3LYP/6-311++G(d,p) empiricaldispersion=gd3bj scf=xqc pop=npa geom=c
 heck
 ----------------------------------------------------------------------

 -------------------------------------
 CID_140687051_JID_4887_Energie_kation
 -------------------------------------
 Structure from the checkpoint file:  "JID_4887.chk"
 Charge =  1 Multiplicity = 2

 SCF Done:  E(UB3LYP) =  -620.886916965     A.U. after   22 cycles
 Normal termination of Gaussian 16 at Thu Dec 10 10:54:23 2020.
 Gaussian 16:  ES64L-G16RevA.03 25-Dec-2016

 ----------------------------------------------------------------------
 # B3LYP/6-311++G(d,p) empiricaldispersion=gd3bj scf=xqc pop=npa geom=c
 heck
 ----------------------------------------------------------------------

 ------------------------------------
 CID_140687051_JID_4887_Energie_anion
 ------------------------------------
 Structure from the checkpoint file:  "JID_4887.chk"
 Charge = -1 Multiplicity = 2

                         Standard orientation:
 ---------------------------------------------------------------------
 Center     Atomic      Atomic             Coordinates (Angstroms)
 Number     Number       Type             X           Y           Z
 ---------------------------------------------------------------------
      1          6           0        3.491495   -0.008464    0.001459
      2          6           0        2.716161   -1.171754   -0.000101
      3          6           0        1.339562   -0.991433   -0.001208
      4          6           0        0.808050    0.334643   -0.001176
      5          6           0       -0.618853    0.196761   -0.001945
      6          6           0       -1.720129    1.071352   -0.001163
      7          7           0       -2.972331    0.569193    0.002605
      8          6           0       -3.097245   -0.764510    0.002842
      9          7           0       -2.141543   -1.705929    0.000614
     10          6           0       -0.914294   -1.177415   -0.001323
     11          7           0        0.274674   -1.883758   -0.001633
     12          7           0       -1.543752    2.409734   -0.007737
     13          7           0        1.553823    1.446131    0.000858
     14          6           0        2.880195    1.253887    0.002132
     15          1           0        4.574532   -0.076353    0.002342
     16          1           0        3.172394   -2.157450   -0.000183
     17          1           0       -4.120270   -1.135059    0.005872
     18          1           0        0.329619   -2.891260   -0.000877
     19          1           0       -0.605849    2.787640    0.010823
     20          1           0       -2.349855    3.014703    0.018181
     21          1           0        3.493683    2.151782    0.003785
 ---------------------------------------------------------------------

 SCF Done:  E(UB3LYP) =  -621.178774159     A.U. after   30 cycles

 The electronic state is 2-A.
 Alpha  occ. eigenvalues --  -14.21971 -14.19287 -14.15756 -14.15461 -14.13546
 Alpha  occ. eigenvalues --  -10.10267 -10.09427 -10.07112 -10.06874 -10.04630
 Alpha  occ. eigenvalues --  -10.04292 -10.02199 -10.01901 -10.01872  -0.86178
 Alpha  occ. eigenvalues --   -0.82647  -0.78963  -0.77196  -0.71458  -0.65400
 Alpha  occ. eigenvalues --   -0.63578  -0.59080  -0.52942  -0.50087  -0.48505
 Alpha  occ. eigenvalues --   -0.45808  -0.41930  -0.40790  -0.38509  -0.36717
 Alpha  occ. eigenvalues --   -0.34513  -0.31980  -0.31356  -0.29643  -0.28207
 Alpha  occ. eigenvalues --   -0.27925  -0.26385  -0.25713  -0.23422  -0.23277
 Alpha  occ. eigenvalues --   -0.19767  -0.15863  -0.15486  -0.12348  -0.11957
 Alpha  occ. eigenvalues --   -0.10798  -0.09746  -0.07368   0.05709
 Alpha virt. eigenvalues --    0.08845   0.09671   0.09978   0.10901   0.11556
 Alpha virt. eigenvalues --    0.12559   0.13230   0.14104   0.14759   0.15497
 Alpha virt. eigenvalues --    0.15603   0.16208   0.17191   0.17467   0.18248

  Beta  occ. eigenvalues --  -14.21964 -14.19227 -14.15801 -14.15533 -14.12997
  Beta  occ. eigenvalues --  -10.10078 -10.09325 -10.06966 -10.06748 -10.04677
  Beta  occ. eigenvalues --  -10.04153 -10.01896 -10.01858 -10.01705  -0.86034
  Beta  occ. eigenvalues --   -0.82465  -0.78648  -0.76625  -0.71385  -0.64972
  Beta  occ. eigenvalues --   -0.63141  -0.58744  -0.52516  -0.49842  -0.48353
  Beta  occ. eigenvalues --   -0.45427  -0.41664  -0.40666  -0.38342  -0.36503
  Beta  occ. eigenvalues --   -0.34361  -0.31763  -0.30814  -0.29533  -0.28069
  Beta  occ. eigenvalues --   -0.27780  -0.25678  -0.25450  -0.23103  -0.22345
  Beta  occ. eigenvalues --   -0.18790  -0.15443  -0.14386  -0.11966  -0.11794
  Beta  occ. eigenvalues --   -0.10251  -0.08563  -0.06467
  Beta virt. eigenvalues --    0.08800   0.09663   0.09932   0.10882   0.11363
  Beta virt. eigenvalues --    0.11492   0.13202   0.13282   0.14731   0.14920
  Beta virt. eigenvalues --    0.15577   0.15763   0.17169   0.17397   0.17457

 Mulliken charges and spin densities:
               1          2
     1  C   -0.164149   0.179796
     2  C   -0.559680   0.258133
     3  C   -0.327765  -0.057871
     4  C   -0.377348   0.092370
     5  C    0.679010  -0.012643
     6  C   -0.028426   0.111377
     7  N   -0.235123  -0.056619
     8  C    0.043497   0.273284
     9  N   -0.201039  -0.041160
    10  C   -0.152088   0.050553
    11  N   -0.237028   0.009085
    12  N   -0.443704   0.037640
    13  N   -0.150281   0.244702
    14  C   -0.169127  -0.026877
    15  H    0.105306  -0.009047
    16  H    0.095633  -0.026699
    17  H    0.163041  -0.021517
    18  H    0.274097   0.000585
    19  H    0.294508  -0.004176
    20  H    0.275542  -0.001261
    21  H    0.115123   0.000346
 Sum of Mulliken charges =  -1.00000   1.00000

 Dipole moment (field-independent basis, Debye):
    X=              0.9424    Y=             -0.3818    Z=              0.0581  Tot=              1.0185
 Quadrupole moment (field-independent basis, Debye-Ang):
   XX=           -120.7252   YY=            -87.2656   ZZ=            -90.6015
   XY=             -8.1914   XZ=             -0.1009   YZ=              0.2131

 Summary of Natural Population Analysis:

                                       Natural Population
                Natural  -----------------------------------------------
    Atom  No    Charge         Core      Valence    Rydberg      Total
 -----------------------------------------------------------------------
      C    1   -0.11020      0.99961     2.09993    0.01066     3.11020
      C    2   -0.05773      0.99953     2.04933    0.00886     3.05773
      C    3    0.05325      0.99947     1.93676    0.01052     2.94675
      C    4    0.08052      0.99952     1.89989    0.02007     2.91948
      C    5   -0.06245      0.99940     2.05300    0.01005     3.06245
      C    6    0.23146      0.99958     1.74994    0.01902     2.76854
      N    7   -0.31170      0.99968     2.80014    0.01187     3.81170
      C    8    0.20539      0.99969     1.77438    0.02053     2.79461
      N    9   -0.30089      0.99968     2.79015    0.01106     3.80089
      C   10    0.21352      0.99954     1.76964    0.01730     2.78648
      N   11   -0.28749      0.99963     2.77741    0.01045     3.78749
      N   12   -0.38676      0.99970     2.87882    0.00824     3.88676
      N   13   -0.17681      0.99966     2.66513    0.01202     3.67681
      C   14    0.00516      0.99949     1.97965    0.01570     2.99484
      H   15    0.08870      0.00000     0.41001    0.00128     0.41130
      H   16    0.08698      0.00000     0.41133    0.00169     0.41302
      H   17    0.06650      0.00000     0.43217    0.00133     0.43350
      H   18    0.19377      0.00000     0.30425    0.00198     0.30623
      H   19    0.20502      0.00000     0.29319    0.00179     0.29498
      H   20    0.18740      0.00000     0.31082    0.00178     0.31260
      H   21    0.07675      0.00000     0.42150    0.00175     0.42325
 =======================================================================
   * Total *    0.00039     13.99419    33.80744    0.19797    47.99961

 Normal termination of Gaussian 16 at Thu Dec 10 11:01:15 2020.
