 Gaussian 16, Revision A.03,

 -----------------------------------------------------------
 # opt freq B3LYP/6-31G(d) empiricaldispersion=gd3bj scf=xqc
 -----------------------------------------------------------

 ------------------------------
 CID_54901459_JID_7770_neutraal
 ------------------------------
 Symbolic Z-matrix:
 Charge =  0 Multiplicity = 1

 SCF Done:  E(RB3LYP) =  -1149.84100478     A.U. after   14 cycles
 SCF Done:  E(RB3LYP) =  -1149.83233091     A.U. after   13 cycles
 SCF Done:  E(RB3LYP) =  -1149.84477111     A.U. after   12 cycles
 SCF Done:  E(RB3LYP) =  -1149.84399028     A.U. after   13 cycles
 SCF Done:  E(RB3LYP) =  -1149.84574891     A.U. after   13 cycles
 SCF Done:  E(RB3LYP) =  -1149.84681437     A.U. after   13 cycles
 SCF Done:  E(RB3LYP) =  -1149.84732075     A.U. after   13 cycles
 SCF Done:  E(RB3LYP) =  -1149.84834458     A.U. after   12 cycles
 SCF Done:  E(RB3LYP) =  -1149.84808326     A.U. after   12 cycles
 SCF Done:  E(RB3LYP) =  -1149.84856160     A.U. after   12 cycles
 SCF Done:  E(RB3LYP) =  -1149.84949256     A.U. after   10 cycles
 SCF Done:  E(RB3LYP) =  -1149.84949870     A.U. after   10 cycles
 SCF Done:  E(RB3LYP) =  -1149.84949908     A.U. after    8 cycles
 SCF Done:  E(RB3LYP) =  -1149.84949913     A.U. after    6 cycles
 SCF Done:  E(RB3LYP) =  -1149.84949913     A.U. after    6 cycles
 Optimization completed.
    -- Stationary point found.
 Normal termination of Gaussian 16 at Fri Dec 11 13:37:58 2020.

 --------------------------------------------------------------------
 #N Geom=AllCheck Guess=TCheck SCRF=Check GenChk RB3LYP/6-31G(d) Freq
 --------------------------------------------------------------------

 Structure from the checkpoint file:  "JID_7770.chk"
 ------------------------------
 CID_54901459_JID_7770_neutraal
 ------------------------------
 Charge =  0 Multiplicity = 1

 SCF Done:  E(RB3LYP) =  -1149.84949913     A.U. after    1 cycles

  Exact polarizability: 167.068  -8.330 160.465   3.442   1.843 138.822
 Approx polarizability: 221.909  -3.729 234.627   9.307   9.313 214.514

                      1                      2                      3
                      A                      A                      A
 Frequencies --     17.5472                38.3670                48.9829
 Red. masses --      3.9300                 4.8946                 4.7578
 Frc consts  --      0.0007                 0.0042                 0.0067
 IR Inten    --      0.1310                 1.9413                 1.1990

                      4                      5                      6
                      A                      A                      A
 Frequencies --     59.2881                60.7499                89.9520
 Red. masses --      3.3119                 4.1114                 3.6186
 Frc consts  --      0.0069                 0.0089                 0.0173
 IR Inten    --      0.6028                 1.2390                 0.8600

                      7                      8                      9
                      A                      A                      A
 Frequencies --    100.5598               105.1056               113.8978
 Red. masses --      3.0659                 3.5381                 3.6878
 Frc consts  --      0.0183                 0.0230                 0.0282
 IR Inten    --      0.1965                 1.2834                 3.2083

                     10                     11                     12
                      A                      A                      A
 Frequencies --    123.4064               143.4024               152.9832
 Red. masses --      2.5104                 3.9855                 3.5313
 Frc consts  --      0.0225                 0.0483                 0.0487
 IR Inten    --      2.1993                 0.2087                 0.3748

                     13                     14                     15
                      A                      A                      A
 Frequencies --    181.4827               200.9799               223.1578
 Red. masses --      2.1808                 1.6641                 2.7369
 Frc consts  --      0.0423                 0.0396                 0.0803
 IR Inten    --      1.7060                 1.3480                 0.6797

                     16                     17                     18
                      A                      A                      A
 Frequencies --    229.8981               245.1756               272.6983
 Red. masses --      1.3058                 1.9506                 1.5290
 Frc consts  --      0.0407                 0.0691                 0.0670
 IR Inten    --      0.6285                 3.2359                 0.4736

                     19                     20                     21
                      A                      A                      A
 Frequencies --    302.4600               314.4072               337.5121
 Red. masses --      2.1537                 2.3447                 2.6233
 Frc consts  --      0.1161                 0.1366                 0.1761
 IR Inten    --      0.9412                 2.3844                14.7757

                     22                     23                     24
                      A                      A                      A
 Frequencies --    376.1891               379.9830               397.3486
 Red. masses --      1.9608                 2.3720                 3.4144
 Frc consts  --      0.1635                 0.2018                 0.3176
 IR Inten    --      0.4829                 2.2198                 1.9782

                     25                     26                     27
                      A                      A                      A
 Frequencies --    423.9738               446.3719               462.2767
 Red. masses --      3.3526                 3.4421                 2.1933
 Frc consts  --      0.3551                 0.4041                 0.2761
 IR Inten    --      4.3415                 8.1639                 2.1548

                     28                     29                     30
                      A                      A                      A
 Frequencies --    518.9154               572.5852               591.0994
 Red. masses --      3.8398                 4.3299                 3.8052
 Frc consts  --      0.6092                 0.8364                 0.7833
 IR Inten    --     16.9315                12.2750                 3.0164

                     31                     32                     33
                      A                      A                      A
 Frequencies --    645.5042               663.1447               686.4449
 Red. masses --      4.1350                 4.3751                 4.3396
 Frc consts  --      1.0151                 1.1336                 1.2048
 IR Inten    --      1.1156                 2.6033                20.7687

                     34                     35                     36
                      A                      A                      A
 Frequencies --    756.2889               766.0351               788.5505
 Red. masses --      1.5585                 2.0276                 4.5118
 Frc consts  --      0.5252                 0.7010                 1.6529
 IR Inten    --      3.5417                12.8183                 2.5065

                     37                     38                     39
                      A                      A                      A
 Frequencies --    794.3383               807.9081               810.1487
 Red. masses --      1.2973                 1.5462                 1.6532
 Frc consts  --      0.4823                 0.5946                 0.6393
 IR Inten    --     16.9192                 1.0748                 4.4094

                     40                     41                     42
                      A                      A                      A
 Frequencies --    873.5477               893.9507               912.6545
 Red. masses --      2.8408                 1.5189                 1.6383
 Frc consts  --      1.2772                 0.7152                 0.8040
 IR Inten    --      9.2004                 0.7556                 0.8965

                     43                     44                     45
                      A                      A                      A
 Frequencies --    927.7710               939.2439               958.3379
 Red. masses --      2.5821                 2.2228                 2.1993
 Frc consts  --      1.3095                 1.1553                 1.1901
 IR Inten    --     11.1447                 1.9597                 1.9377

                     46                     47                     48
                      A                      A                      A
 Frequencies --    993.1083              1006.1273              1060.2544
 Red. masses --      1.6890                 2.4411                 4.3075
 Frc consts  --      0.9815                 1.4559                 2.8530
 IR Inten    --      0.4533                 8.7330                44.0966

                     49                     50                     51
                      A                      A                      A
 Frequencies --   1067.0825              1081.5952              1108.5141
 Red. masses --      2.6065                 1.9647                 1.3838
 Frc consts  --      1.7487                 1.3542                 1.0018
 IR Inten    --     16.0633                 2.6619                 6.1930

                     52                     53                     54
                      A                      A                      A
 Frequencies --   1113.7181              1131.6580              1134.1044
 Red. masses --      1.8912                 1.7685                 1.8992
 Frc consts  --      1.3821                 1.3344                 1.4392
 IR Inten    --     15.4963                 3.0998                28.4125

                     55                     56                     57
                      A                      A                      A
 Frequencies --   1146.2589              1200.3959              1208.3891
 Red. masses --      1.4771                 1.5771                 1.7418
 Frc consts  --      1.1435                 1.3389                 1.4985
 IR Inten    --     33.5097                18.8235                 4.6500

                     58                     59                     60
                      A                      A                      A
 Frequencies --   1229.1963              1241.1703              1270.7589
 Red. masses --      1.2891                 1.8928                 1.3223
 Frc consts  --      1.1476                 1.7180                 1.2580
 IR Inten    --      6.3293                 6.3356                 0.0738

                     61                     62                     63
                      A                      A                      A
 Frequencies --   1276.2437              1282.9818              1326.0137
 Red. masses --      2.5029                 1.5587                 1.3758
 Frc consts  --      2.4019                 1.5117                 1.4253
 IR Inten    --    144.8547                69.7042                77.5243

                     64                     65                     66
                      A                      A                      A
 Frequencies --   1328.8829              1341.8865              1350.2593
 Red. masses --      1.1876                 1.1347                 1.1919
 Frc consts  --      1.2356                 1.2038                 1.2803
 IR Inten    --      3.4164                11.4191                 9.9392

                     67                     68                     69
                      A                      A                      A
 Frequencies --   1352.5211              1380.8150              1398.8540
 Red. masses --      1.6346                 1.4537                 1.3850
 Frc consts  --      1.7618                 1.6330                 1.5968
 IR Inten    --     40.2814                38.4422                 2.4476

                     70                     71                     72
                      A                      A                      A
 Frequencies --   1407.4918              1408.7701              1421.3272
 Red. masses --      1.4419                 1.3010                 1.3039
 Frc consts  --      1.6830                 1.5213                 1.5519
 IR Inten    --      8.4182                 8.6730                 6.5427

                     73                     74                     75
                      A                      A                      A
 Frequencies --   1441.3680              1446.0404              1455.3814
 Red. masses --      1.2585                 1.3008                 1.2375
 Frc consts  --      1.5404                 1.6026                 1.5444
 IR Inten    --     17.8898                10.9371                 9.3455

                     76                     77                     78
                      A                      A                      A
 Frequencies --   1468.3231              1487.8976              1495.8337
 Red. masses --      1.4379                 1.2144                 1.0956
 Frc consts  --      1.8265                 1.5840                 1.4443
 IR Inten    --     50.9380                18.5593                13.8272

                     79                     80                     81
                      A                      A                      A
 Frequencies --   1503.3966              1510.1163              1514.2174
 Red. masses --      1.3628                 1.0974                 1.0539
 Frc consts  --      1.8148                 1.4745                 1.4237
 IR Inten    --     76.2264                 6.7986                 4.9842

                     82                     83                     84
                      A                      A                      A
 Frequencies --   1518.1124              1520.3465              1523.7119
 Red. masses --      1.1129                 1.0884                 1.0522
 Frc consts  --      1.5111                 1.4823                 1.4393
 IR Inten    --     18.9045                 6.1405                10.0648

                     85                     86                     87
                      A                      A                      A
 Frequencies --   1526.8987              1534.0953              1535.7876
 Red. masses --      1.0754                 1.0676                 1.0974
 Frc consts  --      1.4772                 1.4803                 1.5250
 IR Inten    --      3.2988                 7.4904                12.1404

                     88                     89                     90
                      A                      A                      A
 Frequencies --   1538.9497              1555.4104              1726.6556
 Red. masses --      1.0503                 1.0524                 9.3476
 Frc consts  --      1.4656                 1.5001                16.4195
 IR Inten    --      6.7747                 3.1656               282.3989

                     91                     92                     93
                      A                      A                      A
 Frequencies --   1828.1109              3016.0601              3038.6129
 Red. masses --     11.3822                 1.0670                 1.0608
 Frc consts  --     22.4121                 5.7186                 5.7710
 IR Inten    --    250.7251                27.4372                22.8631

                     94                     95                     96
                      A                      A                      A
 Frequencies --   3040.4509              3042.2285              3063.4239
 Red. masses --      1.0423                 1.0739                 1.0376
 Frc consts  --      5.6770                 5.8559                 5.7371
 IR Inten    --     33.1863                44.2333                23.8061

                     97                     98                     99
                      A                      A                      A
 Frequencies --   3066.9993              3070.1616              3072.8850
 Red. masses --      1.0387                 1.0974                 1.0967
 Frc consts  --      5.7565                 6.0948                 6.1016
 IR Inten    --     13.0224                57.2952                33.0869

                    100                    101                    102
                      A                      A                      A
 Frequencies --   3082.7278              3090.3274              3094.1216
 Red. masses --      1.0677                 1.0600                 1.0583
 Frc consts  --      5.9785                 5.9645                 5.9697
 IR Inten    --     19.4477                14.2493                27.3435

                    103                    104                    105
                      A                      A                      A
 Frequencies --   3095.9017              3102.2418              3124.2751
 Red. masses --      1.0627                 1.0998                 1.1016
 Frc consts  --      6.0012                 6.2362                 6.3356
 IR Inten    --      8.8244                44.0002                24.2025

                    106                    107                    108
                      A                      A                      A
 Frequencies --   3132.9910              3134.7964              3139.5429
 Red. masses --      1.1012                 1.1004                 1.1041
 Frc consts  --      6.3683                 6.3714                 6.4122
 IR Inten    --      6.8431                20.3852                 1.9940

                    109                    110                    111
                      A                      A                      A
 Frequencies --   3143.1239              3157.2507              3160.3141
 Red. masses --      1.1055                 1.0976                 1.0941
 Frc consts  --      6.4347                 6.4461                 6.4384
 IR Inten    --     13.3186                 3.1861                11.8194

                    112                    113                    114
                      A                      A                      A
 Frequencies --   3164.0009              3167.1962              3169.8622
 Red. masses --      1.1025                 1.1049                 1.0971
 Frc consts  --      6.5027                 6.5303                 6.4948
 IR Inten    --     10.0182                18.1568                21.7401

 - Thermochemistry -
 -------------------
 Temperature   298.150 Kelvin.  Pressure   1.00000 Atm.
 Atom     1 has atomic number  6 and mass  12.00000

 Molecular mass:   261.13987 amu.
 Principal axes and moments of inertia in atomic units:
                           1         2         3
     Eigenvalues --  3556.758515286.008506736.56448
           X            0.99737  -0.06998  -0.01880
           Y            0.06982   0.99752  -0.00921
           Z            0.01940   0.00787   0.99978
 This molecule is an asymmetric top.
 Rotational symmetry number  1.
 Warning -- assumption of classical behavior for rotation
           may cause significant error
 Rotational temperatures (Kelvin)      0.02435     0.01639     0.01286
 Rotational constants (GHZ):           0.50741     0.34142     0.26790
 Zero-point vibrational energy     918272.4 (Joules/Mol)
                                  219.47237 (Kcal/Mol)
 Warning -- explicit consideration of  30 degrees of freedom as
           vibrations may cause significant error
 Vibrational temperatures:     25.25    55.20    70.48    85.30    87.41
          (Kelvin)            129.42   144.68   151.22   163.87   177.55
                              206.32   220.11   261.11   289.17   321.07
                              330.77   352.75   392.35   435.17   452.36
                              485.60   541.25   546.71   571.70   610.00
                              642.23   665.11   746.60   823.82   850.46
                              928.74   954.12   987.64  1088.13  1102.15
                             1134.55  1142.88  1162.40  1165.62  1256.84
                             1286.20  1313.11  1334.86  1351.36  1378.83
                             1428.86  1447.59  1525.47  1535.29  1556.17
                             1594.90  1602.39  1628.20  1631.72  1649.21
                             1727.10  1738.60  1768.54  1785.77  1828.34
                             1836.23  1845.92  1907.84  1911.97  1930.68
                             1942.72  1945.98  1986.68  2012.64  2025.07
                             2026.91  2044.97  2073.81  2080.53  2093.97
                             2112.59  2140.75  2152.17  2163.05  2172.72
                             2178.62  2184.23  2187.44  2192.28  2196.87
                             2207.22  2209.66  2214.21  2237.89  2484.27
                             2630.24  4339.44  4371.89  4374.53  4377.09
                             4407.58  4412.73  4417.28  4421.20  4435.36
                             4446.29  4451.75  4454.31  4463.43  4495.13
                             4507.68  4510.27  4517.10  4522.25  4542.58
                             4546.99  4552.29  4556.89  4560.72

 Zero-point correction=                           0.349751 (Hartree/Particle)
 Thermal correction to Energy=                    0.370107
 Thermal correction to Enthalpy=                  0.371051
 Thermal correction to Gibbs Free Energy=         0.299294
 Sum of electronic and zero-point Energies=          -1149.499748
 Sum of electronic and thermal Energies=             -1149.479393
 Sum of electronic and thermal Enthalpies=           -1149.478448
 Sum of electronic and thermal Free Energies=        -1149.550205

                     E (Thermal)             CV                S
                      KCal/Mol        Cal/Mol-Kelvin    Cal/Mol-Kelvin
 Total                  232.245             73.379            151.024
 Electronic               0.000              0.000              0.000
 Translational            0.889              2.981             42.579
 Rotational               0.889              2.981             33.204
 Vibrational            230.468             67.417             75.241
 Vibration     1          0.593              1.986              6.894
 Vibration     2          0.594              1.982              5.342
 Vibration     3          0.595              1.978              4.858
 Vibration     4          0.597              1.974              4.481
 Vibration     5          0.597              1.973              4.433
 Vibration     6          0.602              1.956              3.661
 Vibration     7          0.604              1.949              3.443
 Vibration     8          0.605              1.945              3.357
 Vibration     9          0.607              1.938              3.201
 Vibration    10          0.610              1.930              3.046
 Vibration    11          0.616              1.910              2.758
 Vibration    12          0.619              1.899              2.635
 Vibration    13          0.630              1.865              2.313
 Vibration    14          0.638              1.838              2.124
 Vibration    15          0.649              1.806              1.933
 Vibration    16          0.652              1.795              1.880
 Vibration    17          0.660              1.771              1.765
 Vibration    18          0.676              1.724              1.579
 Vibration    19          0.694              1.669              1.403
 Vibration    20          0.702              1.646              1.339
 Vibration    21          0.718              1.601              1.224
 Vibration    22          0.747              1.521              1.054
 Vibration    23          0.750              1.513              1.039
 Vibration    24          0.764              1.476              0.972
 Vibration    25          0.786              1.418              0.879
 Vibration    26          0.806              1.369              0.807
 Vibration    27          0.820              1.334              0.760
 Vibration    28          0.874              1.208              0.612
 Vibration    29          0.929              1.091              0.499
 Vibration    30          0.949              1.051              0.465

 Optimization completed.
    -- Stationary point found.
 Normal termination of Gaussian 16 at Fri Dec 11 13:59:44 2020.

 ----------------------------------------------------------------------
 # B3LYP/6-311++G(d,p) empiricaldispersion=gd3bj scf=xqc pop=npa geom=c
 heck
 ----------------------------------------------------------------------

 --------------------------------------
 CID_54901459_JID_7770_Energie_neutraal
 --------------------------------------
 Structure from the checkpoint file:  "JID_7770.chk"
 Charge =  0 Multiplicity = 1

 SCF Done:  E(RB3LYP) =  -1150.09417054     A.U. after   16 cycles
 Normal termination of Gaussian 16 at Fri Dec 11 14:10:51 2020.

 ----------------------------------------------------------------------
 # B3LYP/6-311++G(d,p) empiricaldispersion=gd3bj scf=xqc pop=npa geom=c
 heck
 ----------------------------------------------------------------------

 ------------------------------------
 CID_54901459_JID_7770_Energie_kation
 ------------------------------------
 Structure from the checkpoint file:  "JID_7770.chk"
 Charge =  1 Multiplicity = 2

 SCF Done:  E(UB3LYP) =  -1149.79418986     A.U. after   25 cycles
 Normal termination of Gaussian 16 at Fri Dec 11 14:34:54 2020.
 Gaussian 16:  ES64L-G16RevA.03 25-Dec-2016

 ----------------------------------------------------------------------
 # B3LYP/6-311++G(d,p) empiricaldispersion=gd3bj scf=xqc pop=npa geom=c
 heck
 ----------------------------------------------------------------------

 -----------------------------------
 CID_54901459_JID_7770_Energie_anion
 -----------------------------------
 Structure from the checkpoint file:  "JID_7770.chk"
 Charge = -1 Multiplicity = 2

                         Standard orientation:
 ---------------------------------------------------------------------
 Center     Atomic      Atomic             Coordinates (Angstroms)
 Number     Number       Type             X           Y           Z
 ---------------------------------------------------------------------
      1          6           0       -3.123508    1.475307    1.393970
      2          6           0       -3.820640    0.571854    0.371250
      3          6           0       -3.195396    0.615729   -1.028093
      4          6           0       -1.766206    0.075635   -1.126281
      5         16           0       -1.610754   -1.735384   -0.811420
      6          6           0       -1.051670   -1.773368    0.941808
      7          6           0        0.176630   -0.916761    1.212931
      8          8           0        0.055555    0.151364    1.817010
      9          7           0        1.403436   -1.325810    0.773674
     10          6           0        1.681951   -2.495767   -0.060182
     11          6           0        2.025473   -2.143467   -1.507844
     12          6           0        2.497964   -0.413135    1.051364
     13          6           0        2.451130    0.932724    0.332375
     14          8           0        3.174215    1.852737    0.643574
     15          8           0        1.571990    0.958003   -0.684561
     16          6           0        1.433615    2.224975   -1.372891
     17          6           0        0.558952    3.190588   -0.589432
     18          1           0       -2.094182    1.161636    1.593881
     19          1           0       -3.660751    1.467287    2.349310
     20          1           0       -3.098296    2.514319    1.040238
     21          1           0       -3.828491   -0.467183    0.726525
     22          1           0       -4.874292    0.866970    0.283503
     23          1           0       -3.829923    0.060765   -1.730201
     24          1           0       -3.177608    1.658355   -1.380927
     25          1           0       -1.377673    0.220778   -2.139292
     26          1           0       -1.083729    0.588143   -0.446494
     27          1           0       -1.837106   -1.402796    1.600633
     28          1           0       -0.883417   -2.830772    1.164901
     29          1           0        2.509310   -3.049469    0.403179
     30          1           0        0.812262   -3.151310   -0.041107
     31          1           0        2.906616   -1.496580   -1.566876
     32          1           0        2.239420   -3.059675   -2.069228
     33          1           0        1.185653   -1.628002   -1.977848
     34          1           0        2.537224   -0.179171    2.117988
     35          1           0        3.439012   -0.901409    0.781156
     36          1           0        2.429970    2.641077   -1.541017
     37          1           0        0.984360    1.956555   -2.331609
     38          1           0        1.022539    3.434087    0.369184
     39          1           0        0.433079    4.117437   -1.160605
     40          1           0       -0.429802    2.763038   -0.400327
 ---------------------------------------------------------------------

 SCF Done:  E(UB3LYP) =  -1150.08052824     A.U. after   33 cycles
 SCF Done:  E(UB3LYP) =  -1150.08052824     a.u. after    1 cycles

 The electronic state is 2-A.
 Alpha  occ. eigenvalues --  -88.74932 -19.07904 -19.02212 -18.99908 -14.25746
 Alpha  occ. eigenvalues --  -10.21357 -10.18403 -10.14022 -10.12895 -10.11716
 Alpha  occ. eigenvalues --  -10.11607 -10.10170 -10.07714 -10.07578 -10.07391
 Alpha  occ. eigenvalues --  -10.07090 -10.06150  -7.83526  -5.79936  -5.79562
 Alpha  occ. eigenvalues --   -5.78877  -1.02060  -0.95342  -0.93387  -0.85178
 Alpha  occ. eigenvalues --   -0.72915  -0.69896  -0.68787  -0.67235  -0.65045
 Alpha  occ. eigenvalues --   -0.62829  -0.57788  -0.56636  -0.55206  -0.52657
 Alpha  occ. eigenvalues --   -0.48331  -0.47194  -0.46205  -0.42895  -0.41678
 Alpha  occ. eigenvalues --   -0.39793  -0.39098  -0.38084  -0.37666  -0.37357
 Alpha  occ. eigenvalues --   -0.35977  -0.35077  -0.34354  -0.33456  -0.32616
 Alpha  occ. eigenvalues --   -0.32387  -0.31591  -0.31176  -0.30803  -0.30047
 Alpha  occ. eigenvalues --   -0.29356  -0.28789  -0.28293  -0.27650  -0.26738
 Alpha  occ. eigenvalues --   -0.26428  -0.25568  -0.24709  -0.24289  -0.23495
 Alpha  occ. eigenvalues --   -0.22117  -0.21733  -0.20210  -0.17215  -0.15880
 Alpha  occ. eigenvalues --   -0.13510   0.04275
 Alpha virt. eigenvalues --    0.05330   0.06841   0.07286   0.07479   0.08198
 Alpha virt. eigenvalues --    0.08524   0.08660   0.08926   0.09374   0.10056
 Alpha virt. eigenvalues --    0.10274   0.10699   0.11473   0.11769   0.11817

  Beta  occ. eigenvalues --  -88.74922 -19.07905 -19.02201 -18.99881 -14.25749
  Beta  occ. eigenvalues --  -10.21333 -10.18385 -10.14009 -10.12883 -10.11676
  Beta  occ. eigenvalues --  -10.11576 -10.10154 -10.07693 -10.07575 -10.07371
  Beta  occ. eigenvalues --  -10.07082 -10.06144  -7.83516  -5.79909  -5.79555
  Beta  occ. eigenvalues --   -5.78870  -1.02041  -0.95298  -0.93371  -0.85159
  Beta  occ. eigenvalues --   -0.72873  -0.69860  -0.68748  -0.67196  -0.65010
  Beta  occ. eigenvalues --   -0.62792  -0.57740  -0.56593  -0.55162  -0.52618
  Beta  occ. eigenvalues --   -0.48290  -0.47151  -0.46177  -0.42852  -0.41617
  Beta  occ. eigenvalues --   -0.39750  -0.39044  -0.38048  -0.37625  -0.37328
  Beta  occ. eigenvalues --   -0.35946  -0.35041  -0.34325  -0.33409  -0.32580
  Beta  occ. eigenvalues --   -0.32352  -0.31561  -0.31148  -0.30774  -0.30022
  Beta  occ. eigenvalues --   -0.29302  -0.28760  -0.28242  -0.27612  -0.26703
  Beta  occ. eigenvalues --   -0.26378  -0.25546  -0.24666  -0.24270  -0.23463
  Beta  occ. eigenvalues --   -0.22076  -0.21700  -0.20189  -0.17182  -0.15826
  Beta  occ. eigenvalues --   -0.13477
  Beta virt. eigenvalues --    0.06260   0.06896   0.07075   0.07612   0.07912
  Beta virt. eigenvalues --    0.08699   0.08776   0.08991   0.09158   0.09532
  Beta virt. eigenvalues --    0.10413   0.10631   0.10929   0.11589   0.11931

 Mulliken charges and spin densities:
               1          2
     1  C   -0.355958  -0.115810
     2  C   -0.481959   0.127112
     3  C    0.485988  -0.825833
     4  C   -0.292131   0.294140
     5  S    0.261036   0.026050
     6  C   -0.176807  -0.409243
     7  C   -0.436979   0.060041
     8  O   -0.254221   0.017233
     9  N    0.128251   0.133347
    10  C    1.011260  -1.192179
    11  C   -0.302163  -0.169312
    12  C   -0.356955  -0.052111
    13  C    0.510312  -0.448571
    14  O   -0.255774   0.013430
    15  O    0.090626   0.003322
    16  C   -0.165917  -0.030843
    17  C    0.046243  -0.405075
    18  H    0.228413  -0.022637
    19  H    0.104648   0.026874
    20  H    0.020689   0.096693
    21  H    0.111056  -0.016854
    22  H   -0.034083   0.195446
    23  H   -0.114884   0.262592
    24  H   -0.307826   0.456521
    25  H   -0.110287   0.405239
    26  H    0.434132  -0.770684
    27  H    0.291288  -0.060704
    28  H   -0.418389   0.678989
    29  H   -1.157745   1.367689
    30  H    0.148082  -0.040955
    31  H    0.165561  -0.030742
    32  H   -0.046395   0.191737
    33  H    0.145213   0.019224
    34  H    0.152879   0.094480
    35  H   -0.042057   0.268608
    36  H    0.168477   0.012919
    37  H   -0.196799   0.357157
    38  H    0.109456   0.065355
    39  H   -0.419641   0.570639
    40  H    0.313359  -0.153284
 Sum of Mulliken charges =  -1.00000   1.00000

 Dipole moment (field-independent basis, Debye):
    X=             -1.9493    Y=              1.0561    Z=              0.2356  Tot=              2.2295
 Quadrupole moment (field-independent basis, Debye-Ang):
   XX=           -176.8416   YY=           -185.5305   ZZ=           -150.8932
   XY=             17.0464   XZ=            -15.0079   YZ=              9.9340

 Summary of Natural Population Analysis:

                                       Natural Population
                Natural  -----------------------------------------------
    Atom  No    Charge         Core      Valence    Rydberg      Total
 -----------------------------------------------------------------------
      C    1   -0.29680      0.99966     2.29185    0.00529     3.29680
      C    2   -0.19356      0.99964     2.18590    0.00803     3.19356
      C    3   -0.19364      0.99961     2.18359    0.01044     3.19364
      C    4   -0.25668      0.99957     2.24511    0.01199     3.25668
      S    5    0.09186      4.99963     2.89287    0.01564     7.90814
      C    6   -0.28726      0.99954     2.27777    0.00995     3.28726
      C    7    0.34551      0.99961     1.63207    0.02282     2.65449
      O    8   -0.32949      0.99988     3.32408    0.00553     4.32949
      N    9   -0.25432      0.99963     2.73889    0.01580     3.75432
      C   10   -0.08252      0.99960     2.07039    0.01253     3.08252
      C   11   -0.29071      0.99965     2.28547    0.00559     3.29071
      C   12   -0.13116      0.99956     2.11967    0.01194     3.13116
      C   13    0.41425      0.99969     1.56048    0.02557     2.58575
      O   14   -0.31079      0.99987     3.30568    0.00524     4.31079
      O   15   -0.28126      0.99986     3.27199    0.00941     4.28126
      C   16   -0.01653      0.99958     2.00528    0.01167     3.01653
      C   17   -0.29932      0.99966     2.29450    0.00516     3.29932
      H   18    0.11355      0.00000     0.38541    0.00104     0.38645
      H   19    0.09466      0.00000     0.40470    0.00064     0.40534
      H   20    0.09442      0.00000     0.40474    0.00084     0.40558
      H   21    0.09463      0.00000     0.40429    0.00108     0.40537
      H   22    0.09372      0.00000     0.40541    0.00088     0.40628
      H   23    0.09863      0.00000     0.40008    0.00129     0.40137
      H   24    0.09876      0.00000     0.39950    0.00174     0.40124
      H   25    0.10594      0.00000     0.39287    0.00119     0.39406
      H   26    0.11266      0.00000     0.38485    0.00248     0.38734
      H   27    0.11243      0.00000     0.38631    0.00125     0.38757
      H   28    0.11499      0.00000     0.38382    0.00120     0.38501
      H   29    0.09911      0.00000     0.39334    0.00755     0.40089
      H   30    0.10286      0.00000     0.39567    0.00147     0.39714
      H   31    0.09549      0.00000     0.40370    0.00080     0.40451
      H   32    0.10046      0.00000     0.39879    0.00075     0.39954
      H   33    0.10775      0.00000     0.39122    0.00104     0.39225
      H   34    0.11913      0.00000     0.37999    0.00087     0.38087
      H   35    0.11447      0.00000     0.38442    0.00111     0.38553
      H   36    0.09311      0.00000     0.40586    0.00103     0.40689
      H   37    0.09266      0.00000     0.40623    0.00112     0.40734
      H   38    0.10706      0.00000     0.39216    0.00078     0.39294
      H   39    0.10264      0.00000     0.39625    0.00111     0.39736
      H   40    0.10326      0.00000     0.39559    0.00115     0.39674
 =======================================================================
   * Total *   -0.00000     20.99423    49.78078    0.22499    71.00000

 Normal termination of Gaussian 16 at Fri Dec 11 15:06:43 2020.
