 Gaussian 16, Revision A.03,

 -----------------------------------------------------------
 # opt freq B3LYP/6-31G(d) empiricaldispersion=gd3bj scf=xqc
 -----------------------------------------------------------

 ------------------------------
 CID_20205639_JID_4577_neutraal
 ------------------------------
 Symbolic Z-matrix:
 Charge =  0 Multiplicity = 1

 SCF Done:  E(RB3LYP) =  -619.833897925     A.U. after   13 cycles
 SCF Done:  E(RB3LYP) =  -619.836483135     A.U. after   12 cycles
 SCF Done:  E(RB3LYP) =  -619.835811916     A.U. after   12 cycles
 SCF Done:  E(RB3LYP) =  -619.836824719     A.U. after   11 cycles
 SCF Done:  E(RB3LYP) =  -619.837320925     A.U. after   11 cycles
 SCF Done:  E(RB3LYP) =  -619.837375519     A.U. after   10 cycles
 SCF Done:  E(RB3LYP) =  -619.837473918     A.U. after   12 cycles
 SCF Done:  E(RB3LYP) =  -619.837557500     A.U. after   11 cycles
 SCF Done:  E(RB3LYP) =  -619.837738883     A.U. after   12 cycles
 SCF Done:  E(RB3LYP) =  -619.837574545     A.U. after   14 cycles
 SCF Done:  E(RB3LYP) =  -619.840054620     A.U. after   11 cycles
 SCF Done:  E(RB3LYP) =  -619.840071565     A.U. after   10 cycles
 SCF Done:  E(RB3LYP) =  -619.840079513     A.U. after    9 cycles
 SCF Done:  E(RB3LYP) =  -619.840080783     A.U. after    8 cycles
 SCF Done:  E(RB3LYP) =  -619.840080947     A.U. after    7 cycles
 Optimization completed.
    -- Stationary point found.
 Normal termination of Gaussian 16 at Thu Dec 10 10:21:54 2020.

 --------------------------------------------------------------------
 #N Geom=AllCheck Guess=TCheck SCRF=Check GenChk RB3LYP/6-31G(d) Freq
 --------------------------------------------------------------------

 Structure from the checkpoint file:  "JID_4577.chk"
 ------------------------------
 CID_20205639_JID_4577_neutraal
 ------------------------------
 Charge =  0 Multiplicity = 1

 SCF Done:  E(RB3LYP) =  -619.840080946     A.U. after    1 cycles

  Exact polarizability: 133.623   2.913 119.834   3.259  -0.437 111.741
 Approx polarizability: 177.493   4.145 174.675   3.375  -7.181 176.230

                      1                      2                      3
                      A                      A                      A
 Frequencies --     48.5459                70.9310                93.2497
 Red. masses --      5.8688                 4.7847                 2.8960
 Frc consts  --      0.0081                 0.0142                 0.0148
 IR Inten    --      1.5998                 0.9106                 0.1256

                      4                      5                      6
                      A                      A                      A
 Frequencies --    143.5442               214.9290               226.2045
 Red. masses --      4.9789                 1.9548                 1.9434
 Frc consts  --      0.0604                 0.0532                 0.0586
 IR Inten    --      1.1243                 0.7195                 0.1597

                      7                      8                      9
                      A                      A                      A
 Frequencies --    247.4155               254.7028               266.0505
 Red. masses --      2.0357                 1.1675                 2.5875
 Frc consts  --      0.0734                 0.0446                 0.1079
 IR Inten    --      0.4856                 0.3320                 0.3525

                     10                     11                     12
                      A                      A                      A
 Frequencies --    277.9510               296.1912               333.8663
 Red. masses --      1.9683                 2.0441                 1.8908
 Frc consts  --      0.0896                 0.1057                 0.1242
 IR Inten    --      0.2191                 0.2855                 0.5403

                     13                     14                     15
                      A                      A                      A
 Frequencies --    355.3834               397.1664               406.5982
 Red. masses --      2.1189                 1.7638                 2.4813
 Frc consts  --      0.1577                 0.1639                 0.2417
 IR Inten    --      0.2757                 0.0622                 1.6209

                     16                     17                     18
                      A                      A                      A
 Frequencies --    443.4332               478.6579               497.1347
 Red. masses --      2.8419                 2.2973                 2.7156
 Frc consts  --      0.3292                 0.3101                 0.3954
 IR Inten    --      0.5548                 1.1355                 1.8865

                     19                     20                     21
                      A                      A                      A
 Frequencies --    513.8334               553.7177               624.6953
 Red. masses --      3.8141                 2.9634                 3.1047
 Frc consts  --      0.5933                 0.5353                 0.7139
 IR Inten    --      3.5644                17.9166                33.6110

                     22                     23                     24
                      A                      A                      A
 Frequencies --    655.4096               687.9513               752.0784
 Red. masses --      1.8951                 2.0674                 3.4333
 Frc consts  --      0.4796                 0.5765                 1.1442
 IR Inten    --     37.4361                36.4486                20.7355

                     25                     26                     27
                      A                      A                      A
 Frequencies --    767.6134               784.9945               817.6213
 Red. masses --      2.9871                 2.9452                 2.8330
 Frc consts  --      1.0370                 1.0693                 1.1158
 IR Inten    --     19.0257                 5.2796                 4.8209

                     28                     29                     30
                      A                      A                      A
 Frequencies --    832.8495               842.1791               891.8327
 Red. masses --      2.1353                 2.0992                 2.2483
 Frc consts  --      0.8726                 0.8772                 1.0536
 IR Inten    --      2.8746                 5.5923                 2.0382

                     31                     32                     33
                      A                      A                      A
 Frequencies --    903.2386               935.8990               944.2517
 Red. masses --      2.4335                 2.4275                 2.5547
 Frc consts  --      1.1697                 1.2528                 1.3421
 IR Inten    --      2.7852                 2.7553                 2.0718

                     34                     35                     36
                      A                      A                      A
 Frequencies --    953.5650               969.3055               979.2391
 Red. masses --      1.7229                 1.7020                 1.7593
 Frc consts  --      0.9230                 0.9422                 0.9940
 IR Inten    --      0.3094                 0.1405                 0.0402

                     37                     38                     39
                      A                      A                      A
 Frequencies --   1000.8727              1024.4440              1033.9053
 Red. masses --      1.9162                 1.7687                 1.3566
 Frc consts  --      1.1309                 1.0936                 0.8544
 IR Inten    --      7.1697                 8.5108                 0.2001

                     40                     41                     42
                      A                      A                      A
 Frequencies --   1049.8334              1061.2519              1089.9209
 Red. masses --      1.4493                 1.6848                 1.6639
 Frc consts  --      0.9411                 1.1180                 1.1646
 IR Inten    --      7.6638                37.4179                 0.6469

                     43                     44                     45
                      A                      A                      A
 Frequencies --   1108.9536              1132.5717              1160.3666
 Red. masses --      1.5667                 1.4842                 1.2694
 Frc consts  --      1.1352                 1.1217                 1.0070
 IR Inten    --     14.2799                19.9192                10.9830

                     46                     47                     48
                      A                      A                      A
 Frequencies --   1168.6380              1196.0207              1205.5499
 Red. masses --      1.5825                 2.2864                 2.1580
 Frc consts  --      1.2733                 1.9270                 1.8479
 IR Inten    --     12.5657                11.4333                29.4892

                     49                     50                     51
                      A                      A                      A
 Frequencies --   1211.2481              1231.5313              1247.4329
 Red. masses --      2.2495                 1.6239                 2.0720
 Frc consts  --      1.9445                 1.4511                 1.8997
 IR Inten    --    147.1374                 1.6634                 2.1731

                     52                     53                     54
                      A                      A                      A
 Frequencies --   1250.0017              1278.5225              1301.6822
 Red. masses --      2.0256                 1.2969                 1.3717
 Frc consts  --      1.8647                 1.2491                 1.3694
 IR Inten    --      5.1938                 0.5898                 0.1692

                     55                     56                     57
                      A                      A                      A
 Frequencies --   1308.7371              1336.6089              1344.2366
 Red. masses --      1.4697                 1.6440                 1.5881
 Frc consts  --      1.4832                 1.7304                 1.6907
 IR Inten    --      0.2623                 0.9967                 0.2247

                     58                     59                     60
                      A                      A                      A
 Frequencies --   1352.5888              1358.1910              1364.5328
 Red. masses --      1.6325                 1.4809                 1.4102
 Frc consts  --      1.7597                 1.6095                 1.5471
 IR Inten    --      2.0555                 2.4629                11.6973

                     61                     62                     63
                      A                      A                      A
 Frequencies --   1372.3907              1393.2367              1428.8209
 Red. masses --      1.8931                 1.4464                 1.2295
 Frc consts  --      2.1008                 1.6542                 1.4789
 IR Inten    --     17.6790                 1.6525                 2.9202

                     64                     65                     66
                      A                      A                      A
 Frequencies --   1437.1215              1453.2999              1460.4585
 Red. masses --      1.2574                 1.2662                 1.2409
 Frc consts  --      1.5301                 1.5756                 1.5594
 IR Inten    --      4.8066                 6.1545                 5.9068

                     67                     68                     69
                      A                      A                      A
 Frequencies --   1515.4373              1519.2361              1524.9623
 Red. masses --      1.0619                 1.0586                 1.0679
 Frc consts  --      1.4368                 1.4395                 1.4632
 IR Inten    --      0.4978                 0.2511                 4.1359

                     70                     71                     72
                      A                      A                      A
 Frequencies --   1532.1519              1536.6340              1538.8802
 Red. masses --      1.0535                 1.0666                 1.0625
 Frc consts  --      1.4571                 1.4838                 1.4825
 IR Inten    --      6.0834                 9.8107                 3.2973

                     73                     74                     75
                      A                      A                      A
 Frequencies --   1541.1081              1550.2480              1566.5130
 Red. masses --      1.0623                 1.0678                 1.0747
 Frc consts  --      1.4865                 1.5119                 1.5539
 IR Inten    --     12.3611                 5.9491                 4.3249

                     76                     77                     78
                      A                      A                      A
 Frequencies --   1827.5410              3017.1633              3046.0051
 Red. masses --      9.6545                 1.0823                 1.0389
 Frc consts  --     18.9982                 5.8051                 5.6792
 IR Inten    --    217.7927                10.3401                18.6714

                     79                     80                     81
                      A                      A                      A
 Frequencies --   3053.8119              3056.6475              3061.2739
 Red. masses --      1.0694                 1.0573                 1.0722
 Frc consts  --      5.8759                 5.8201                 5.9204
 IR Inten    --     18.1472                16.7009                11.2696

                     82                     83                     84
                      A                      A                      A
 Frequencies --   3067.4531              3074.0126              3082.5996
 Red. masses --      1.0628                 1.0730                 1.0393
 Frc consts  --      5.8917                 5.9738                 5.8187
 IR Inten    --     24.8352                47.5085                16.5920

                     85                     86                     87
                      A                      A                      A
 Frequencies --   3088.0174              3095.5352              3109.0042
 Red. masses --      1.0851                 1.0857                 1.1013
 Frc consts  --      6.0963                 6.1294                 6.2721
 IR Inten    --     92.8570                45.0272                23.0518

                     88                     89                     90
                      A                      A                      A
 Frequencies --   3117.9530              3119.8927              3123.8269
 Red. masses --      1.0976                 1.0998                 1.0964
 Frc consts  --      6.2869                 6.3075                 6.3038
 IR Inten    --     18.4805                54.7471                17.7788

                     91                     92                     93
                      A                      A                      A
 Frequencies --   3135.5422              3139.8575              3151.1360
 Red. masses --      1.1004                 1.1010                 1.0984
 Frc consts  --      6.3741                 6.3951                 6.4261
 IR Inten    --     20.3522                42.1760                28.6356

                     94                     95                     96
                      A                      A                      A
 Frequencies --   3166.8924              3177.4854              3677.0078
 Red. masses --      1.0908                 1.0995                 1.0639
 Frc consts  --      6.4455                 6.5407                 8.4749
 IR Inten    --     26.3802                11.3200                49.8203

 - Thermochemistry -
 -------------------
 Temperature   298.150 Kelvin.  Pressure   1.00000 Atm.
 Atom     1 has atomic number  6 and mass  12.00000

 Molecular mass:   196.14633 amu.
 Principal axes and moments of inertia in atomic units:
                           1         2         3
     Eigenvalues --  1592.919753218.422683606.79310
           X            0.99994  -0.00629   0.00863
           Y            0.00623   0.99995   0.00788
           Z           -0.00868  -0.00783   0.99993
 This molecule is an asymmetric top.
 Rotational symmetry number  1.
 Warning -- assumption of classical behavior for rotation
           may cause significant error
 Rotational temperatures (Kelvin)      0.05437     0.02691     0.02401
 Rotational constants (GHZ):           1.13298     0.56075     0.50037
 Zero-point vibrational energy     807712.8 (Joules/Mol)
                                  193.04799 (Kcal/Mol)
 Warning -- explicit consideration of  20 degrees of freedom as
           vibrations may cause significant error
 Vibrational temperatures:     69.85   102.05   134.17   206.53   309.23
          (Kelvin)            325.46   355.98   366.46   382.79   399.91
                              426.15   480.36   511.32   571.43   585.00
                              638.00   688.68   715.27   739.29   796.68
                              898.80   942.99   989.81  1082.07  1104.42
                             1129.43  1176.37  1198.28  1211.71  1283.15
                             1299.56  1346.55  1358.57  1371.97  1394.61
                             1408.91  1440.03  1473.95  1487.56  1510.48
                             1526.90  1568.15  1595.54  1629.52  1669.51
                             1681.41  1720.81  1734.52  1742.72  1771.90
                             1794.78  1798.47  1839.51  1872.83  1882.98
                             1923.08  1934.06  1946.07  1954.13  1963.26
                             1974.56  2004.56  2055.75  2067.70  2090.97
                             2101.27  2180.38  2185.84  2194.08  2204.42
                             2210.87  2214.11  2217.31  2230.46  2253.86
                             2629.42  4341.02  4382.52  4393.75  4397.83
                             4404.49  4413.38  4422.82  4435.17  4442.97
                             4453.78  4473.16  4486.04  4488.83  4494.49
                             4511.35  4517.55  4533.78  4556.45  4571.69
                             5290.39

 Zero-point correction=                           0.307642 (Hartree/Particle)
 Thermal correction to Energy=                    0.321082
 Thermal correction to Enthalpy=                  0.322026
 Thermal correction to Gibbs Free Energy=         0.268588
 Sum of electronic and zero-point Energies=           -619.532439
 Sum of electronic and thermal Energies=              -619.518999
 Sum of electronic and thermal Enthalpies=            -619.518055
 Sum of electronic and thermal Free Energies=         -619.571493

                     E (Thermal)             CV                S
                      KCal/Mol        Cal/Mol-Kelvin    Cal/Mol-Kelvin
 Total                  201.482             54.647            112.469
 Electronic               0.000              0.000              0.000
 Translational            0.889              2.981             41.726
 Rotational               0.889              2.981             31.292
 Vibrational            199.704             48.685             39.451
 Vibration     1          0.595              1.978              4.876
 Vibration     2          0.598              1.968              4.127
 Vibration     3          0.602              1.954              3.591
 Vibration     4          0.616              1.910              2.756
 Vibration     5          0.645              1.818              2.001
 Vibration     6          0.650              1.801              1.909
 Vibration     7          0.661              1.767              1.749
 Vibration     8          0.665              1.755              1.698
 Vibration     9          0.672              1.735              1.622
 Vibration    10          0.679              1.714              1.546
 Vibration    11          0.690              1.681              1.438
 Vibration    12          0.715              1.608              1.241
 Vibration    13          0.731              1.564              1.142
 Vibration    14          0.764              1.476              0.973
 Vibration    15          0.771              1.456              0.939
 Vibration    16          0.803              1.375              0.816
 Vibration    17          0.835              1.297              0.714
 Vibration    18          0.853              1.256              0.665
 Vibration    19          0.869              1.219              0.624
 Vibration    20          0.909              1.132              0.537

                           ! Non-Optimized Parameters !
 Normal termination of Gaussian 16 at Thu Dec 10 10:35:42 2020.

 ----------------------------------------------------------------------
 # B3LYP/6-311++G(d,p) empiricaldispersion=gd3bj scf=xqc pop=npa geom=c
 heck
 ----------------------------------------------------------------------

 --------------------------------------
 CID_20205639_JID_4577_Energie_neutraal
 --------------------------------------
 Structure from the checkpoint file:  "JID_4577.chk"
 Charge =  0 Multiplicity = 1

 SCF Done:  E(RB3LYP) =  -620.018642706     A.U. after   15 cycles
 Normal termination of Gaussian 16 at Thu Dec 10 10:42:57 2020.

 ----------------------------------------------------------------------
 # B3LYP/6-311++G(d,p) empiricaldispersion=gd3bj scf=xqc pop=npa geom=c
 heck
 ----------------------------------------------------------------------

 ------------------------------------
 CID_20205639_JID_4577_Energie_kation
 ------------------------------------
 Structure from the checkpoint file:  "JID_4577.chk"
 Charge =  1 Multiplicity = 2

 SCF Done:  E(UB3LYP) =  -619.673450131     A.U. after   29 cycles
 Normal termination of Gaussian 16 at Thu Dec 10 11:02:00 2020.
 Gaussian 16:  ES64L-G16RevA.03 25-Dec-2016

 ----------------------------------------------------------------------
 # B3LYP/6-311++G(d,p) empiricaldispersion=gd3bj scf=xqc pop=npa geom=c
 heck
 ----------------------------------------------------------------------

 -----------------------------------
 CID_20205639_JID_4577_Energie_anion
 -----------------------------------
 Structure from the checkpoint file:  "JID_4577.chk"
 Charge = -1 Multiplicity = 2

                         Standard orientation:
 ---------------------------------------------------------------------
 Center     Atomic      Atomic             Coordinates (Angstroms)
 Number     Number       Type             X           Y           Z
 ---------------------------------------------------------------------
      1          6           0        1.243570   -2.121561    0.410923
      2          6           0        1.234124   -0.929004   -0.554149
      3          6           0       -0.049101   -0.062681   -0.729484
      4          6           0       -1.355348   -0.780008   -1.149109
      5          6           0       -2.014222   -1.584843    0.002646
      6          6           0       -2.601026   -0.477471    0.930850
      7          6           0       -2.094505    0.817754    0.268690
      8          6           0       -2.292436    0.445647   -1.217658
      9          6           0       -0.536670    0.949807    0.393010
     10          6           0       -0.025953    0.667214    1.812951
     11          6           0       -0.117689    2.386549    0.028193
     12          6           0        2.417326    0.012629   -0.367439
     13          8           0        2.703303    0.915990   -1.125259
     14          8           0        3.155456   -0.240589    0.743460
     15          1           0        1.006043   -1.842933    1.438135
     16          1           0        2.234922   -2.583810    0.418338
     17          1           0        0.529969   -2.879504    0.081141
     18          1           0        1.405565   -1.341717   -1.559194
     19          1           0        0.218006    0.564826   -1.586813
     20          1           0       -1.245226   -1.353504   -2.075372
     21          1           0       -1.319003   -2.235881    0.531139
     22          1           0       -2.807093   -2.224484   -0.400129
     23          1           0       -2.298034   -0.586495    1.974317
     24          1           0       -3.696504   -0.493033    0.914798
     25          1           0       -2.613631    1.717425    0.614338
     26          1           0       -3.331346    0.186344   -1.450642
     27          1           0       -1.955081    1.208430   -1.925660
     28          1           0        1.057250    0.807886    1.879323
     29          1           0       -0.491794    1.363425    2.521200
     30          1           0       -0.245367   -0.344690    2.157405
     31          1           0       -0.540244    2.696747   -0.933382
     32          1           0       -0.465611    3.094123    0.790835
     33          1           0        0.969950    2.473593   -0.050563
     34          1           0        3.868735    0.425855    0.738641
 ---------------------------------------------------------------------

 SCF Done:  E(UB3LYP) =  -620.004933406     A.U. after   33 cycles
 SCF Done:  E(UB3LYP) =  -620.004933406     a.u. after    1 cycles

 The electronic state is 2-A.
 Alpha  occ. eigenvalues --  -19.06927 -19.01301 -10.20449 -10.09348 -10.08324
 Alpha  occ. eigenvalues --  -10.07590 -10.07204 -10.07019 -10.06233 -10.06154
 Alpha  occ. eigenvalues --  -10.06143 -10.06111 -10.05545 -10.05394  -1.00994
 Alpha  occ. eigenvalues --   -0.91894  -0.77930  -0.70359  -0.67958  -0.63041
 Alpha  occ. eigenvalues --   -0.60241  -0.57996  -0.57449  -0.54912  -0.50305
 Alpha  occ. eigenvalues --   -0.47361  -0.45490  -0.41152  -0.39935  -0.39036
 Alpha  occ. eigenvalues --   -0.38741  -0.38092  -0.36634  -0.33512  -0.33158
 Alpha  occ. eigenvalues --   -0.31988  -0.31791  -0.30599  -0.29497  -0.28666
 Alpha  occ. eigenvalues --   -0.28294  -0.27975  -0.26367  -0.26030  -0.24966
 Alpha  occ. eigenvalues --   -0.24508  -0.24098  -0.22670  -0.22645  -0.21803
 Alpha  occ. eigenvalues --   -0.20204  -0.19645  -0.18586  -0.17700   0.04343
 Alpha virt. eigenvalues --    0.06170   0.07006   0.07945   0.08228   0.08826
 Alpha virt. eigenvalues --    0.09373   0.09786   0.10055   0.10281   0.11217
 Alpha virt. eigenvalues --    0.12237   0.12421   0.12694   0.12836   0.13317

  Beta  occ. eigenvalues --  -19.06877 -19.01285 -10.20439 -10.09332 -10.08322
  Beta  occ. eigenvalues --  -10.07587 -10.07193 -10.07013 -10.06219 -10.06140
  Beta  occ. eigenvalues --  -10.06119 -10.06095 -10.05525 -10.05382  -1.00925
  Beta  occ. eigenvalues --   -0.91839  -0.77911  -0.70322  -0.67937  -0.63012
  Beta  occ. eigenvalues --   -0.60209  -0.57963  -0.57398  -0.54846  -0.50235
  Beta  occ. eigenvalues --   -0.47307  -0.45453  -0.41114  -0.39891  -0.39001
  Beta  occ. eigenvalues --   -0.38706  -0.38049  -0.36601  -0.33467  -0.33128
  Beta  occ. eigenvalues --   -0.31967  -0.31767  -0.30563  -0.29469  -0.28640
  Beta  occ. eigenvalues --   -0.28271  -0.27946  -0.26342  -0.26002  -0.24942
  Beta  occ. eigenvalues --   -0.24480  -0.24065  -0.22635  -0.22622  -0.21771
  Beta  occ. eigenvalues --   -0.20179  -0.19620  -0.18563  -0.17651
  Beta virt. eigenvalues --    0.06518   0.07478   0.07694   0.08298   0.08972
  Beta virt. eigenvalues --    0.09160   0.09800   0.10040   0.10318   0.10553
  Beta virt. eigenvalues --    0.11704   0.12676   0.12732   0.12971   0.13128

 Mulliken charges and spin densities:
               1          2
     1  C    1.215519  -1.907501
     2  C   -0.170966   0.378486
     3  C    1.221887  -1.265825
     4  C   -1.254772   1.577576
     5  C    1.077631  -1.543924
     6  C   -0.215821  -0.485842
     7  C   -0.733757   1.186798
     8  C    0.572303  -1.271607
     9  C   -1.199402   1.380903
    10  C    0.431299  -1.067039
    11  C    0.087117  -0.699006
    12  C    0.077438  -0.602834
    13  O   -0.253792   0.044690
    14  O   -0.171305   0.068196
    15  H    0.067027   0.120908
    16  H   -0.236749   0.411382
    17  H   -0.199925   0.345198
    18  H   -0.295740   0.535007
    19  H    0.474997  -0.211164
    20  H   -0.521384   0.757988
    21  H    0.361858  -0.274377
    22  H   -0.375210   0.550951
    23  H   -0.063127   0.191648
    24  H   -0.271918   0.431797
    25  H   -0.036046   0.274704
    26  H   -0.264836   0.439708
    27  H   -0.003797   0.129836
    28  H    0.005630   0.178111
    29  H   -0.085743   0.247679
    30  H    0.143175  -0.027415
    31  H    0.052864   0.071319
    32  H   -0.056625   0.183764
    33  H    0.097656   0.088193
    34  H   -0.475488   0.761693
 Sum of Mulliken charges =  -1.00000   1.00000

 Dipole moment (field-independent basis, Debye):
    X=             -1.4493    Y=              1.4998    Z=              0.6758  Tot=              2.1924
 Quadrupole moment (field-independent basis, Debye-Ang):
   XX=           -162.7093   YY=           -128.4458   ZZ=           -125.5441
   XY=             -5.1760   XZ=             -4.5663   YZ=             -3.7402

 Summary of Natural Population Analysis:

                                       Natural Population
                Natural  -----------------------------------------------
    Atom  No    Charge         Core      Valence    Rydberg      Total
 -----------------------------------------------------------------------
      C    1   -0.28635      0.99964     2.28010    0.00660     3.28635
      C    2   -0.15394      0.99952     2.14166    0.01276     3.15394
      C    3   -0.09954      0.99952     2.08555    0.01446     3.09954
      C    4   -0.10822      0.99958     2.09595    0.01269     3.10822
      C    5   -0.19555      0.99962     2.18761    0.00832     3.19555
      C    6   -0.19272      0.99962     2.18429    0.00880     3.19272
      C    7   -0.10578      0.99957     2.09355    0.01267     3.10578
      C    8   -0.18867      0.99961     2.17971    0.00935     3.18867
      C    9   -0.03541      0.99955     2.02302    0.01284     3.03541
      C   10   -0.29147      0.99961     2.28437    0.00748     3.29147
      C   11   -0.28378      0.99962     2.27789    0.00627     3.28378
      C   12    0.41552      0.99968     1.55855    0.02625     2.58448
      O   13   -0.31267      0.99987     3.30671    0.00609     4.31267
      O   14   -0.34420      0.99988     3.33710    0.00722     4.34420
      H   15    0.10185      0.00000     0.39692    0.00123     0.39815
      H   16    0.10618      0.00000     0.39260    0.00122     0.39382
      H   17    0.10020      0.00000     0.39875    0.00105     0.39980
      H   18    0.11511      0.00000     0.38307    0.00182     0.38489
      H   19    0.10838      0.00000     0.38967    0.00195     0.39162
      H   20    0.10305      0.00000     0.39555    0.00140     0.39695
      H   21    0.10003      0.00000     0.39845    0.00152     0.39997
      H   22    0.10056      0.00000     0.39804    0.00140     0.39944
      H   23    0.09928      0.00000     0.39965    0.00106     0.40072
      H   24    0.09898      0.00000     0.39980    0.00122     0.40102
      H   25    0.10120      0.00000     0.39782    0.00098     0.39880
      H   26    0.10028      0.00000     0.39855    0.00118     0.39972
      H   27    0.09966      0.00000     0.39929    0.00106     0.40034
      H   28    0.10490      0.00000     0.39360    0.00150     0.39510
      H   29    0.09947      0.00000     0.39970    0.00083     0.40053
      H   30    0.09919      0.00000     0.39963    0.00118     0.40081
      H   31    0.09806      0.00000     0.40105    0.00089     0.40194
      H   32    0.09559      0.00000     0.40354    0.00087     0.40441
      H   33    0.10705      0.00000     0.39190    0.00104     0.39295
      H   34    0.24374      0.00000     0.24246    0.01380     0.25626
 =======================================================================
   * Total *    0.00000     13.99490    39.81611    0.18899    54.00000

 Normal termination of Gaussian 16 at Thu Dec 10 11:23:14 2020.
