 Gaussian 16, Revision A.03,

 -----------------------------------------------------------
 # opt freq B3LYP/6-31G(d) empiricaldispersion=gd3bj scf=xqc
 -----------------------------------------------------------

 ------------------------------
 CID_75422454_JID_9744_neutraal
 ------------------------------
 Symbolic Z-matrix:
 Charge =  0 Multiplicity = 1

 SCF Done:  E(RB3LYP) =  -802.721002107     A.U. after   14 cycles
 SCF Done:  E(RB3LYP) =  -802.561652565     A.U. after   15 cycles
 SCF Done:  E(RB3LYP) =  -802.725253685     A.U. after   13 cycles
 SCF Done:  E(RB3LYP) =  -802.726492423     A.U. after   12 cycles
 SCF Done:  E(RB3LYP) =  -802.727590450     A.U. after   12 cycles
 SCF Done:  E(RB3LYP) =  -802.728087792     A.U. after   12 cycles
 SCF Done:  E(RB3LYP) =  -802.728227017     A.U. after   11 cycles
 SCF Done:  E(RB3LYP) =  -802.728291467     A.U. after   10 cycles
 SCF Done:  E(RB3LYP) =  -802.728307068     A.U. after   10 cycles
 SCF Done:  E(RB3LYP) =  -802.728313942     A.U. after    8 cycles
 SCF Done:  E(RB3LYP) =  -802.728316555     A.U. after    8 cycles
 SCF Done:  E(RB3LYP) =  -802.728319700     A.U. after    9 cycles
 SCF Done:  E(RB3LYP) =  -802.728320560     A.U. after    8 cycles
 SCF Done:  E(RB3LYP) =  -802.728320661     A.U. after    7 cycles
 Optimization completed.
    -- Stationary point found.
 Normal termination of Gaussian 16 at Sat Dec 12 10:06:56 2020.

 --------------------------------------------------------------------
 #N Geom=AllCheck Guess=TCheck SCRF=Check GenChk RB3LYP/6-31G(d) Freq
 --------------------------------------------------------------------

 Structure from the checkpoint file:  "JID_9744.chk"
 ------------------------------
 CID_75422454_JID_9744_neutraal
 ------------------------------
 Charge =  0 Multiplicity = 1

 SCF Done:  E(RB3LYP) =  -802.728320661     A.U. after    1 cycles

  Exact polarizability: 147.938 -10.114 177.088  17.411   2.525 165.302
 Approx polarizability: 208.737 -19.531 297.416  41.052   7.612 273.936

                      1                      2                      3
                      A                      A                      A
 Frequencies --     30.7369                48.0846                76.7241
 Red. masses --      3.9672                 4.6497                 4.3402
 Frc consts  --      0.0022                 0.0063                 0.0151
 IR Inten    --      0.7793                 0.2023                 0.3173

                      4                      5                      6
                      A                      A                      A
 Frequencies --     90.2618               109.7913               144.7774
 Red. masses --      4.4564                 4.4056                 3.3867
 Frc consts  --      0.0214                 0.0313                 0.0418
 IR Inten    --      5.0207                 0.1030                 2.0991

                      7                      8                      9
                      A                      A                      A
 Frequencies --    157.2531               191.1045               197.6945
 Red. masses --      4.3070                 3.4247                 3.4018
 Frc consts  --      0.0628                 0.0737                 0.0783
 IR Inten    --      0.7758                 3.4967                 1.0066

                     10                     11                     12
                      A                      A                      A
 Frequencies --    227.3868               253.9941               261.1884
 Red. masses --      2.0770                 3.0674                 1.3432
 Frc consts  --      0.0633                 0.1166                 0.0540
 IR Inten    --      0.1582                 3.4830                 0.3719

                     13                     14                     15
                      A                      A                      A
 Frequencies --    302.0661               313.8214               325.3612
 Red. masses --      3.2375                 1.9593                 2.6283
 Frc consts  --      0.1740                 0.1137                 0.1639
 IR Inten    --      2.0093                 4.5608                 3.3229

                     16                     17                     18
                      A                      A                      A
 Frequencies --    393.6092               401.0422               417.7641
 Red. masses --      2.6258                 4.5820                 3.8117
 Frc consts  --      0.2397                 0.4342                 0.3919
 IR Inten    --      0.3249                 0.6160                 0.9604

                     19                     20                     21
                      A                      A                      A
 Frequencies --    442.4119               456.3810               495.8271
 Red. masses --      3.8705                 3.3486                 2.6264
 Frc consts  --      0.4463                 0.4109                 0.3804
 IR Inten    --      3.7342                 1.3728                 2.3931

                     22                     23                     24
                      A                      A                      A
 Frequencies --    581.7173               589.1916               608.1977
 Red. masses --      2.9743                 2.5199                 3.3862
 Frc consts  --      0.5930                 0.5154                 0.7380
 IR Inten    --     12.1641                13.5789                 3.4278

                     25                     26                     27
                      A                      A                      A
 Frequencies --    631.7595               662.6275               686.5250
 Red. masses --      4.2309                 3.9052                 6.6705
 Frc consts  --      0.9949                 1.0103                 1.8523
 IR Inten    --      2.3260                 8.2495                 3.5600

                     28                     29                     30
                      A                      A                      A
 Frequencies --    694.4493               710.1629               720.9162
 Red. masses --      3.2056                 1.9350                 1.2687
 Frc consts  --      0.9108                 0.5750                 0.3885
 IR Inten    --      5.0608               164.2932                31.4641

                     31                     32                     33
                      A                      A                      A
 Frequencies --    767.1398               770.9397               797.0053
 Red. masses --      3.2489                 3.0472                 2.8452
 Frc consts  --      1.1265                 1.0671                 1.0648
 IR Inten    --      0.9479                 2.1717                19.3468

                     34                     35                     36
                      A                      A                      A
 Frequencies --    837.1365               837.5057               839.4182
 Red. masses --      1.3955                 1.5388                 1.8046
 Frc consts  --      0.5762                 0.6359                 0.7492
 IR Inten    --      5.9079                24.5599                 9.7597

                     37                     38                     39
                      A                      A                      A
 Frequencies --    896.0183               904.0050               911.7678
 Red. masses --      1.3224                 1.9030                 2.2292
 Frc consts  --      0.6255                 0.9163                 1.0919
 IR Inten    --      2.2240                 1.5687                 2.1773

                     40                     41                     42
                      A                      A                      A
 Frequencies --    925.6660               946.3164               964.6561
 Red. masses --      1.5992                 5.1624                 1.6471
 Frc consts  --      0.8074                 2.7238                 0.9030
 IR Inten    --      2.7323                 9.9461                 6.3949

                     43                     44                     45
                      A                      A                      A
 Frequencies --    977.1261               993.2257              1010.1394
 Red. masses --      1.3073                 1.4511                 2.0961
 Frc consts  --      0.7354                 0.8434                 1.2602
 IR Inten    --      2.4195                 0.8813                11.6979

                     46                     47                     48
                      A                      A                      A
 Frequencies --   1017.3967              1020.4920              1055.0394
 Red. masses --      6.7377                 2.7360                 1.8690
 Frc consts  --      4.1090                 1.6788                 1.2257
 IR Inten    --      4.3710                 0.9455                13.4784

                     49                     50                     51
                      A                      A                      A
 Frequencies --   1083.2785              1096.5039              1103.5414
 Red. masses --      1.8306                 2.2830                 2.1000
 Frc consts  --      1.2657                 1.6173                 1.5068
 IR Inten    --      3.7170                 2.0627                 0.9028

                     52                     53                     54
                      A                      A                      A
 Frequencies --   1106.8018              1120.2813              1128.4878
 Red. masses --      1.3610                 1.7677                 1.7450
 Frc consts  --      0.9823                 1.3071                 1.3093
 IR Inten    --      6.3933                 2.1607                 5.1149

                     55                     56                     57
                      A                      A                      A
 Frequencies --   1165.5389              1184.4249              1190.7277
 Red. masses --      2.1606                 2.4725                 2.8379
 Frc consts  --      1.7294                 2.0437                 2.3707
 IR Inten    --     16.2427                21.8925                24.8307

                     58                     59                     60
                      A                      A                      A
 Frequencies --   1200.0726              1221.4934              1230.7957
 Red. masses --      1.6849                 2.3370                 1.8430
 Frc consts  --      1.4297                 2.0545                 1.6449
 IR Inten    --     10.7510                 6.0295                 5.7067

                     61                     62                     63
                      A                      A                      A
 Frequencies --   1242.8759              1258.0498              1281.4434
 Red. masses --      1.7755                 1.2732                 1.7410
 Frc consts  --      1.6160                 1.1873                 1.6844
 IR Inten    --     11.3872                 7.2748                 5.2599

                     64                     65                     66
                      A                      A                      A
 Frequencies --   1292.9373              1303.2089              1323.2854
 Red. masses --      1.9619                 2.5368                 1.5541
 Frc consts  --      1.9323                 2.5384                 1.6034
 IR Inten    --     17.0439                 6.8673                 4.0794

                     67                     68                     69
                      A                      A                      A
 Frequencies --   1333.2176              1334.7107              1359.9780
 Red. masses --      1.3374                 1.6994                 2.0145
 Frc consts  --      1.4005                 1.7837                 2.1952
 IR Inten    --      5.0999                 3.2154                17.2799

                     70                     71                     72
                      A                      A                      A
 Frequencies --   1364.1356              1375.7257              1392.3727
 Red. masses --      1.4294                 1.3777                 1.4168
 Frc consts  --      1.5672                 1.5362                 1.6184
 IR Inten    --      1.1740                 5.2052                 2.4055

                     73                     74                     75
                      A                      A                      A
 Frequencies --   1403.2897              1411.5112              1420.9235
 Red. masses --      1.3871                 1.2593                 1.3985
 Frc consts  --      1.6093                 1.4783                 1.6636
 IR Inten    --      0.9289                 8.7858                12.0228

                     76                     77                     78
                      A                      A                      A
 Frequencies --   1429.0011              1435.1862              1461.5939
 Red. masses --      1.2396                 1.8236                 2.0450
 Frc consts  --      1.4914                 2.2131                 2.5740
 IR Inten    --      8.5186                11.2207                19.5695

                     79                     80                     81
                      A                      A                      A
 Frequencies --   1483.3302              1497.4170              1514.2781
 Red. masses --      2.7516                 1.1200                 1.0930
 Frc consts  --      3.5670                 1.4796                 1.4766
 IR Inten    --     14.7057                 6.2938                 8.3287

                     82                     83                     84
                      A                      A                      A
 Frequencies --   1514.5120              1521.8747              1525.8881
 Red. masses --      1.2418                 1.0550                 2.1963
 Frc consts  --      1.6782                 1.4396                 3.0129
 IR Inten    --      5.1211                 8.6420                 6.5902

                     85                     86                     87
                      A                      A                      A
 Frequencies --   1526.6617              1540.0120              1548.0557
 Red. masses --      1.1693                 1.7495                 1.4037
 Frc consts  --      1.6056                 2.4447                 1.9819
 IR Inten    --      1.2409                13.2415                26.7987

                     88                     89                     90
                      A                      A                      A
 Frequencies --   1550.6039              1571.6843              1617.9762
 Red. masses --      1.3398                 3.7867                 6.3921
 Frc consts  --      1.8980                 5.5111                 9.8592
 IR Inten    --      8.5798                13.0464                13.5208

                     91                     92                     93
                      A                      A                      A
 Frequencies --   1654.0646              2983.1448              3038.1617
 Red. masses --      5.2402                 1.0821                 1.0805
 Frc consts  --      8.4471                 5.6735                 5.8762
 IR Inten    --     41.8629                26.4456                 5.6881

                     94                     95                     96
                      A                      A                      A
 Frequencies --   3044.3523              3046.8145              3051.9429
 Red. masses --      1.0665                 1.0655                 1.0358
 Frc consts  --      5.8238                 5.8277                 5.6845
 IR Inten    --     58.8123                24.7646                22.3814

                     97                     98                     99
                      A                      A                      A
 Frequencies --   3062.8036              3066.3064              3093.6745
 Red. masses --      1.0594                 1.0672                 1.1026
 Frc consts  --      5.8555                 5.9122                 6.2173
 IR Inten    --     19.0423                48.7332                26.4708

                    100                    101                    102
                      A                      A                      A
 Frequencies --   3096.2279              3107.1000              3119.0918
 Red. masses --      1.0977                 1.1076                 1.1015
 Frc consts  --      6.2000                 6.2998                 6.3137
 IR Inten    --     32.9988                20.2363                27.9638

                    103                    104                    105
                      A                      A                      A
 Frequencies --   3130.1068              3143.0464              3164.2198
 Red. masses --      1.0959                 1.1034                 1.0872
 Frc consts  --      6.3264                 6.4220                 6.4134
 IR Inten    --     13.0028                25.0220                21.4850

                    106                    107                    108
                      A                      A                      A
 Frequencies --   3177.3189              3186.6008              3224.1614
 Red. masses --      1.0894                 1.0945                 1.0922
 Frc consts  --      6.4799                 6.5482                 6.6891
 IR Inten    --     27.3278                19.1564                 3.4140

                    109                    110                    111
                      A                      A                      A
 Frequencies --   3256.9459              3287.2488              3531.6759
 Red. masses --      1.0919                 1.1033                 1.0737
 Frc consts  --      6.8243                 7.0246                 7.8903
 IR Inten    --      8.4328                 4.0213                11.5446

 - Thermochemistry -
 -------------------
 Temperature   298.150 Kelvin.  Pressure   1.00000 Atm.
 Atom     1 has atomic number  6 and mass  12.00000

 Molecular mass:   256.16880 amu.
 Principal axes and moments of inertia in atomic units:
                           1         2         3
     Eigenvalues --  3667.948334452.734235356.05104
           X            0.99486  -0.09983  -0.01674
           Y            0.09993   0.99498   0.00482
           Z            0.01618  -0.00646   0.99985
 This molecule is an asymmetric top.
 Rotational symmetry number  1.
 Warning -- assumption of classical behavior for rotation
           may cause significant error
 Rotational temperatures (Kelvin)      0.02361     0.01945     0.01617
 Rotational constants (GHZ):           0.49203     0.40531     0.33695
 Zero-point vibrational energy     890180.3 (Joules/Mol)
                                  212.75819 (Kcal/Mol)
 Warning -- explicit consideration of  24 degrees of freedom as
           vibrations may cause significant error
 Vibrational temperatures:     44.22    69.18   110.39   129.87   157.97
          (Kelvin)            208.30   226.25   274.96   284.44   327.16
                              365.44   375.79   434.61   451.52   468.12
                              566.32   577.01   601.07   636.53   656.63
                              713.38   836.96   847.72   875.06   908.96
                              953.37   987.76   999.16  1021.77  1037.24
                             1103.74  1109.21  1146.71  1204.45  1204.98
                             1207.74  1289.17  1300.66  1311.83  1331.83
                             1361.54  1387.92  1405.87  1429.03  1453.37
                             1463.81  1468.26  1517.97  1558.60  1577.62
                             1587.75  1592.44  1611.83  1623.64  1676.95
                             1704.12  1713.19  1726.64  1757.46  1770.84
                             1788.22  1810.05  1843.71  1860.25  1875.03
                             1903.91  1918.20  1920.35  1956.71  1962.69
                             1979.36  2003.31  2019.02  2030.85  2044.39
                             2056.01  2064.91  2102.91  2134.18  2154.45
                             2178.71  2179.04  2189.64  2195.41  2196.53
                             2215.73  2227.31  2230.97  2261.30  2327.91
                             2379.83  4292.08  4371.24  4380.14  4383.69
                             4391.07  4406.69  4411.73  4451.11  4454.78
                             4470.42  4487.68  4503.53  4522.14  4552.61
                             4571.45  4584.81  4638.85  4686.02  4729.62
                             5081.29

 Zero-point correction=                           0.339052 (Hartree/Particle)
 Thermal correction to Energy=                    0.355268
 Thermal correction to Enthalpy=                  0.356213
 Thermal correction to Gibbs Free Energy=         0.295380
 Sum of electronic and zero-point Energies=           -802.389269
 Sum of electronic and thermal Energies=              -802.373052
 Sum of electronic and thermal Enthalpies=            -802.372108
 Sum of electronic and thermal Free Energies=         -802.432940

                     E (Thermal)             CV                S
                      KCal/Mol        Cal/Mol-Kelvin    Cal/Mol-Kelvin
 Total                  222.934             65.005            128.032
 Electronic               0.000              0.000              0.000
 Translational            0.889              2.981             42.522
 Rotational               0.889              2.981             32.836
 Vibrational            221.157             59.043             52.674
 Vibration     1          0.594              1.984              5.781
 Vibration     2          0.595              1.978              4.895
 Vibration     3          0.599              1.965              3.973
 Vibration     4          0.602              1.956              3.654
 Vibration     5          0.606              1.941              3.273
 Vibration     6          0.616              1.908              2.740
 Vibration     7          0.621              1.895              2.583
 Vibration     8          0.634              1.852              2.217
 Vibration     9          0.637              1.843              2.154
 Vibration    10          0.651              1.799              1.899
 Vibration    11          0.665              1.756              1.703
 Vibration    12          0.669              1.744              1.654
 Vibration    13          0.694              1.670              1.405
 Vibration    14          0.702              1.647              1.342
 Vibration    15          0.709              1.625              1.283
 Vibration    16          0.761              1.484              0.986
 Vibration    17          0.767              1.468              0.959
 Vibration    18          0.781              1.432              0.900
 Vibration    19          0.802              1.378              0.819
 Vibration    20          0.815              1.347              0.777
 Vibration    21          0.851              1.259              0.669
 Vibration    22          0.938              1.071              0.482
 Vibration    23          0.946              1.055              0.469
 Vibration    24          0.967              1.014              0.436

                           ! Non-Optimized Parameters !
 Normal termination of Gaussian 16 at Sat Dec 12 10:30:37 2020.

 ----------------------------------------------------------------------
 # B3LYP/6-311++G(d,p) empiricaldispersion=gd3bj scf=xqc pop=npa geom=c
 heck
 ----------------------------------------------------------------------

 --------------------------------------
 CID_75422454_JID_9744_Energie_neutraal
 --------------------------------------
 Structure from the checkpoint file:  "JID_9744.chk"
 Charge =  0 Multiplicity = 1

 SCF Done:  E(RB3LYP) =  -802.938443529     A.U. after   15 cycles
 Normal termination of Gaussian 16 at Sat Dec 12 10:39:20 2020.

 ----------------------------------------------------------------------
 # B3LYP/6-311++G(d,p) empiricaldispersion=gd3bj scf=xqc pop=npa geom=c
 heck
 ----------------------------------------------------------------------

 ------------------------------------
 CID_75422454_JID_9744_Energie_kation
 ------------------------------------
 Structure from the checkpoint file:  "JID_9744.chk"
 Charge =  1 Multiplicity = 2

 SCF Done:  E(UB3LYP) =  -802.655268164     A.U. after   25 cycles
 Normal termination of Gaussian 16 at Sat Dec 12 10:58:46 2020.
 Gaussian 16:  ES64L-G16RevA.03 25-Dec-2016

 ----------------------------------------------------------------------
 # B3LYP/6-311++G(d,p) empiricaldispersion=gd3bj scf=xqc pop=npa geom=c
 heck
 ----------------------------------------------------------------------

 -----------------------------------
 CID_75422454_JID_9744_Energie_anion
 -----------------------------------
 Structure from the checkpoint file:  "JID_9744.chk"
 Charge = -1 Multiplicity = 2

                         Standard orientation:
 ---------------------------------------------------------------------
 Center     Atomic      Atomic             Coordinates (Angstroms)
 Number     Number       Type             X           Y           Z
 ---------------------------------------------------------------------
      1          6           0        3.335332   -1.584154   -0.754990
      2          6           0        2.119866   -1.247689    0.127060
      3          6           0        1.776787    0.229483   -0.058203
      4          6           0        1.031081    0.685920   -1.147788
      5          6           0        0.762775    2.047811   -1.267163
      6          7           0        1.177381    2.975745   -0.392313
      7          6           0        1.912008    2.536391    0.638410
      8          6           0        2.236966    1.196097    0.842107
      9          7           0        1.066028   -2.213757   -0.144698
     10          6           0        0.036051   -2.487055    0.841149
     11          6           0       -1.112868   -1.460143    1.082942
     12          6           0       -0.802748   -0.369413    2.124164
     13          6           0       -1.927384    0.671526    2.175930
     14          6           0       -2.058957    1.400188    0.837575
     15          7           0       -2.083363    0.431843   -0.256812
     16          6           0       -1.592540   -0.846263   -0.198880
     17          7           0       -1.625610   -1.427010   -1.390016
     18          6           0       -2.150202   -0.484067   -2.248550
     19          6           0       -2.434202    0.675827   -1.570302
     20          1           0        3.070840   -1.484317   -1.814384
     21          1           0        3.647582   -2.616416   -0.574470
     22          1           0        4.172620   -0.907258   -0.554102
     23          1           0        2.409899   -1.388071    1.176858
     24          1           0        0.624998   -0.002625   -1.880313
     25          1           0        0.166953    2.409338   -2.102773
     26          1           0        2.249962    3.295357    1.342442
     27          1           0        2.828953    0.905085    1.706775
     28          1           0        0.640661   -2.089613   -1.059471
     29          1           0       -0.435077   -3.425619    0.531446
     30          1           0        0.524329   -2.681718    1.805239
     31          1           0       -1.947037   -2.051598    1.494514
     32          1           0        0.138026    0.132720    1.882870
     33          1           0       -0.675556   -0.839600    3.106128
     34          1           0       -2.877343    0.177876    2.419680
     35          1           0       -1.736965    1.413557    2.959007
     36          1           0       -2.978610    1.992926    0.798847
     37          1           0       -1.212057    2.079349    0.684914
     38          1           0       -2.297456   -0.698216   -3.298401
     39          1           0       -2.847563    1.624344   -1.878699
 ---------------------------------------------------------------------

 SCF Done:  E(UB3LYP) =  -802.928514652     A.U. after   33 cycles
 SCF Done:  E(UB3LYP) =  -802.928514652     a.u. after    1 cycles

 The electronic state is 2-A.
 Alpha  occ. eigenvalues --  -14.26869 -14.19369 -14.19053 -14.18831 -10.12685
 Alpha  occ. eigenvalues --  -10.11318 -10.10588 -10.10041 -10.09434 -10.09254
 Alpha  occ. eigenvalues --  -10.09246 -10.08955 -10.08292 -10.07284 -10.07251
 Alpha  occ. eigenvalues --  -10.06791 -10.06484 -10.06469 -10.06459  -0.92158
 Alpha  occ. eigenvalues --   -0.82922  -0.80839  -0.78994  -0.72299  -0.70293
 Alpha  occ. eigenvalues --   -0.66108  -0.64946  -0.64138  -0.63224  -0.58021
 Alpha  occ. eigenvalues --   -0.54158  -0.52485  -0.51536  -0.50813  -0.50285
 Alpha  occ. eigenvalues --   -0.48278  -0.43850  -0.41965  -0.41691  -0.38220
 Alpha  occ. eigenvalues --   -0.37968  -0.36845  -0.36221  -0.35789  -0.34698
 Alpha  occ. eigenvalues --   -0.34335  -0.34050  -0.33508  -0.32268  -0.31756
 Alpha  occ. eigenvalues --   -0.31175  -0.30024  -0.29649  -0.27881  -0.27517
 Alpha  occ. eigenvalues --   -0.26734  -0.26489  -0.25268  -0.24523  -0.23874
 Alpha  occ. eigenvalues --   -0.23814  -0.22729  -0.18035  -0.17384  -0.17142
 Alpha  occ. eigenvalues --   -0.15566  -0.14947  -0.13034  -0.11778   0.04472
 Alpha virt. eigenvalues --    0.06483   0.06975   0.07344   0.07788   0.08356
 Alpha virt. eigenvalues --    0.08600   0.09009   0.09674   0.09868   0.10037
 Alpha virt. eigenvalues --    0.10881   0.11161   0.11516   0.11861   0.12402

  Beta  occ. eigenvalues --  -14.26865 -14.19367 -14.19045 -14.18609 -10.12681
  Beta  occ. eigenvalues --  -10.11303 -10.10598 -10.10036 -10.09426 -10.09236
  Beta  occ. eigenvalues --  -10.09214 -10.08956 -10.08285 -10.07216 -10.07087
  Beta  occ. eigenvalues --  -10.06799 -10.06460 -10.06453 -10.06451  -0.92149
  Beta  occ. eigenvalues --   -0.82636  -0.80794  -0.78981  -0.72243  -0.70070
  Beta  occ. eigenvalues --   -0.66052  -0.64824  -0.64091  -0.63190  -0.57988
  Beta  occ. eigenvalues --   -0.54012  -0.52432  -0.51436  -0.50769  -0.50272
  Beta  occ. eigenvalues --   -0.48156  -0.43819  -0.41932  -0.41632  -0.38136
  Beta  occ. eigenvalues --   -0.37928  -0.36800  -0.36136  -0.35746  -0.34640
  Beta  occ. eigenvalues --   -0.34294  -0.34023  -0.33469  -0.32201  -0.31723
  Beta  occ. eigenvalues --   -0.31129  -0.29976  -0.29304  -0.27766  -0.27439
  Beta  occ. eigenvalues --   -0.26675  -0.26345  -0.25201  -0.24425  -0.23808
  Beta  occ. eigenvalues --   -0.23770  -0.22698  -0.18026  -0.17348  -0.16319
  Beta  occ. eigenvalues --   -0.15264  -0.14706  -0.13004  -0.11718
  Beta virt. eigenvalues --    0.06855   0.07321   0.07676   0.08096   0.08147
  Beta virt. eigenvalues --    0.08640   0.08857   0.09379   0.09873   0.10073
  Beta virt. eigenvalues --    0.10360   0.11002   0.11514   0.11691   0.12152

 Mulliken charges and spin densities:
               1          2
     1  C   -0.399967  -0.228786
     2  C   -0.751014  -0.226209
     3  C    0.671515   0.336058
     4  C   -0.068555  -0.040320
     5  C   -0.776446   0.159687
     6  N   -0.054540   0.069624
     7  C    0.057887  -0.450447
     8  C   -0.099272   0.017821
     9  N    0.123287   0.034274
    10  C   -0.086114  -0.625467
    11  C    0.368898  -0.083043
    12  C   -0.206359  -0.138463
    13  C    0.884979  -1.508189
    14  C   -0.125015  -0.139312
    15  N    0.123051   0.096043
    16  C   -0.548586   0.151707
    17  N   -0.083645   0.015502
    18  C    0.104656  -0.132451
    19  C   -0.118150   0.159326
    20  H    0.107339   0.032616
    21  H    0.077205   0.073285
    22  H    0.136380  -0.000243
    23  H   -0.164056   0.341768
    24  H    0.162857  -0.031032
    25  H    0.157377   0.010988
    26  H   -0.028407   0.184256
    27  H   -0.147298   0.303569
    28  H    0.247258   0.006867
    29  H    0.140921   0.039132
    30  H   -0.013115   0.158381
    31  H   -0.080006   0.314554
    32  H    0.523093  -0.290243
    33  H   -0.575581   0.771322
    34  H   -0.051445   0.209800
    35  H   -0.844209   1.056607
    36  H   -0.299357   0.472314
    37  H    0.507372  -0.301170
    38  H    0.142747   0.007929
    39  H   -0.015686   0.171946
 Sum of Mulliken charges =  -1.00000   1.00000

 Dipole moment (field-independent basis, Debye):
    X=              1.1321    Y=             -1.1607    Z=             -6.3029  Tot=              6.5081
 Quadrupole moment (field-independent basis, Debye-Ang):
   XX=           -159.7799   YY=           -164.8758   ZZ=           -163.4708
   XY=             -0.4504   XZ=              8.6014   YZ=             -4.1189

 Summary of Natural Population Analysis:

                                       Natural Population
                Natural  -----------------------------------------------
    Atom  No    Charge         Core      Valence    Rydberg      Total
 -----------------------------------------------------------------------
      C    1   -0.27704      0.99964     2.27116    0.00623     3.27704
      C    2   -0.02030      0.99956     2.00747    0.01327     3.02030
      C    3    0.02725      0.99948     1.96219    0.01109     2.97275
      C    4   -0.12823      0.99947     2.12014    0.00863     3.12823
      C    5    0.02511      0.99959     1.95994    0.01536     2.97489
      N    6   -0.21757      0.99972     2.70698    0.01088     3.71757
      C    7    0.02770      0.99959     1.95709    0.01563     2.97230
      C    8   -0.13233      0.99950     2.12341    0.00943     3.13233
      N    9   -0.34659      0.99973     2.83576    0.01110     3.84659
      C   10   -0.07596      0.99961     2.06326    0.01309     3.07596
      C   11   -0.13752      0.99954     2.12678    0.01119     3.13752
      C   12   -0.19160      0.99960     2.18163    0.01037     3.19160
      C   13   -0.19137      0.99963     2.18273    0.00901     3.19137
      C   14   -0.07970      0.99960     2.06968    0.01042     3.07970
      N   15   -0.20563      0.99960     2.69515    0.01088     3.70563
      C   16    0.20904      0.99957     1.77312    0.01827     2.79096
      N   17   -0.27705      0.99969     2.76877    0.00859     3.77705
      C   18   -0.03886      0.99958     2.02586    0.01342     3.03886
      C   19   -0.03788      0.99955     2.02704    0.01129     3.03788
      H   20    0.09539      0.00000     0.40379    0.00082     0.40461
      H   21    0.10102      0.00000     0.39785    0.00113     0.39898
      H   22    0.09764      0.00000     0.40178    0.00058     0.40236
      H   23    0.09492      0.00000     0.40306    0.00202     0.40508
      H   24    0.10626      0.00000     0.39232    0.00143     0.39374
      H   25    0.08679      0.00000     0.41200    0.00120     0.41321
      H   26    0.08761      0.00000     0.41125    0.00113     0.41239
      H   27    0.10257      0.00000     0.39632    0.00111     0.39743
      H   28    0.18612      0.00000     0.31163    0.00224     0.31388
      H   29    0.09609      0.00000     0.40279    0.00112     0.40391
      H   30    0.09406      0.00000     0.40476    0.00118     0.40594
      H   31    0.10579      0.00000     0.39275    0.00146     0.39421
      H   32    0.10492      0.00000     0.39155    0.00353     0.39508
      H   33    0.10276      0.00000     0.39483    0.00241     0.39724
      H   34    0.09690      0.00000     0.40090    0.00219     0.40310
      H   35    0.10876      0.00000     0.38898    0.00226     0.39124
      H   36    0.09858      0.00000     0.40011    0.00131     0.40142
      H   37    0.10520      0.00000     0.39244    0.00237     0.39480
      H   38    0.09422      0.00000     0.40506    0.00072     0.40578
      H   39    0.10293      0.00000     0.39619    0.00089     0.39707
 =======================================================================
   * Total *    0.00000     18.99224    49.75852    0.24923    69.00000

 Normal termination of Gaussian 16 at Sat Dec 12 11:25:19 2020.
