 Gaussian 16, Revision A.03,

 -----------------------------------------------------------
 # opt freq B3LYP/6-31G(d) empiricaldispersion=gd3bj scf=xqc
 -----------------------------------------------------------

 ------------------------------
 CID_54489269_JID_4690_neutraal
 ------------------------------
 Symbolic Z-matrix:
 Charge =  0 Multiplicity = 1

 SCF Done:  E(RB3LYP) =  -653.292079329     A.U. after   15 cycles
 SCF Done:  E(RB3LYP) =  -653.296236005     A.U. after   13 cycles
 SCF Done:  E(RB3LYP) =  -653.293529102     A.U. after   13 cycles
 SCF Done:  E(RB3LYP) =  -653.297077047     A.U. after   12 cycles
 SCF Done:  E(RB3LYP) =  -653.297923199     A.U. after   12 cycles
 SCF Done:  E(RB3LYP) =  -653.298189983     A.U. after   12 cycles
 SCF Done:  E(RB3LYP) =  -653.298251558     A.U. after   11 cycles
 SCF Done:  E(RB3LYP) =  -653.298272598     A.U. after   10 cycles
 SCF Done:  E(RB3LYP) =  -653.298280380     A.U. after   10 cycles
 SCF Done:  E(RB3LYP) =  -653.298284431     A.U. after    9 cycles
 SCF Done:  E(RB3LYP) =  -653.298286191     A.U. after    9 cycles
 SCF Done:  E(RB3LYP) =  -653.298286763     A.U. after    8 cycles
 SCF Done:  E(RB3LYP) =  -653.298286895     A.U. after    8 cycles
 SCF Done:  E(RB3LYP) =  -653.298286917     A.U. after    6 cycles
 Optimization completed.
    -- Stationary point found.
 Normal termination of Gaussian 16 at Thu Dec 10 10:24:23 2020.

 --------------------------------------------------------------------
 #N Geom=AllCheck Guess=TCheck SCRF=Check GenChk RB3LYP/6-31G(d) Freq
 --------------------------------------------------------------------

 Structure from the checkpoint file:  "JID_4690.chk"
 ------------------------------
 CID_54489269_JID_4690_neutraal
 ------------------------------
 Charge =  0 Multiplicity = 1

 SCF Done:  E(RB3LYP) =  -653.298286917     A.U. after    1 cycles

  Exact polarizability: 194.153   4.272 120.065  15.687   0.319  78.535
 Approx polarizability: 269.003  16.452 191.853  37.508   9.140 125.494

                      1                      2                      3
                      A                      A                      A
 Frequencies --     22.7425                46.6486                51.4248
 Red. masses --      4.0722                 4.9254                 5.8325
 Frc consts  --      0.0012                 0.0063                 0.0091
 IR Inten    --      0.1503                 0.2182                 1.5434

                      4                      5                      6
                      A                      A                      A
 Frequencies --     86.5140               101.3814               145.7289
 Red. masses --      4.3872                 4.0809                 3.0402
 Frc consts  --      0.0193                 0.0247                 0.0380
 IR Inten    --      0.2662                 3.6808                 0.2010

                      7                      8                      9
                      A                      A                      A
 Frequencies --    158.4787               169.1229               205.6911
 Red. masses --      2.8989                 4.5737                 2.5885
 Frc consts  --      0.0429                 0.0771                 0.0645
 IR Inten    --      0.4093                 1.2783                 1.0084

                     10                     11                     12
                      A                      A                      A
 Frequencies --    222.5554               286.7862               333.0290
 Red. masses --      2.1981                 2.0311                 3.1112
 Frc consts  --      0.0641                 0.0984                 0.2033
 IR Inten    --      0.4464                 0.3951                 3.3279

                     13                     14                     15
                      A                      A                      A
 Frequencies --    355.9190               380.5095               430.6686
 Red. masses --      2.6762                 3.3444                 2.3087
 Frc consts  --      0.1997                 0.2853                 0.2523
 IR Inten    --      1.2408                 3.4455                 0.3053

                     16                     17                     18
                      A                      A                      A
 Frequencies --    506.2706               530.5990               606.4105
 Red. masses --      2.2982                 3.8668                 3.2347
 Frc consts  --      0.3471                 0.6414                 0.7008
 IR Inten    --     11.3382                17.2377                13.4515

                     19                     20                     21
                      A                      A                      A
 Frequencies --    615.8845               650.5075               684.1753
 Red. masses --      2.6501                 1.9172                 4.2248
 Frc consts  --      0.5923                 0.4780                 1.1652
 IR Inten    --     39.0582                58.8056                 6.9256

                     22                     23                     24
                      A                      A                      A
 Frequencies --    743.2514               750.1964               762.5421
 Red. masses --      1.4867                 2.1989                 1.7187
 Frc consts  --      0.4839                 0.7291                 0.5888
 IR Inten    --     26.3855                26.9157                28.6194

                     25                     26                     27
                      A                      A                      A
 Frequencies --    785.2406               809.6266               814.8022
 Red. masses --      3.1756                 1.2994                 2.6647
 Frc consts  --      1.1537                 0.5019                 1.0423
 IR Inten    --     11.4390                12.9183                15.0153

                     28                     29                     30
                      A                      A                      A
 Frequencies --    833.4616               868.8000               897.2179
 Red. masses --      3.4969                 1.2985                 1.5519
 Frc consts  --      1.4312                 0.5775                 0.7361
 IR Inten    --     11.0565                 0.0681                 3.4276

                     31                     32                     33
                      A                      A                      A
 Frequencies --    910.0460               919.0098               949.0563
 Red. masses --      5.9163                 1.4540                 2.8639
 Frc consts  --      2.8869                 0.7235                 1.5198
 IR Inten    --     11.2728                 6.1133                12.0125

                     34                     35                     36
                      A                      A                      A
 Frequencies --    972.5333               985.9276              1049.8198
 Red. masses --      2.3780                 1.5522                 1.3301
 Frc consts  --      1.3252                 0.8889                 0.8637
 IR Inten    --      5.2223                 3.2673                33.3877

                     37                     38                     39
                      A                      A                      A
 Frequencies --   1075.1571              1094.0217              1125.0185
 Red. masses --      1.8226                 2.3732                 2.3384
 Frc consts  --      1.2413                 1.6736                 1.7438
 IR Inten    --     11.3952                 5.8278                 5.2423

                     40                     41                     42
                      A                      A                      A
 Frequencies --   1137.5965              1149.3182              1195.5543
 Red. masses --      1.8834                 2.3359                 2.0990
 Frc consts  --      1.4360                 1.8179                 1.7677
 IR Inten    --      1.2610                59.4042                 6.4756

                     43                     44                     45
                      A                      A                      A
 Frequencies --   1205.5420              1227.5061              1262.5374
 Red. masses --      2.0626                 1.3265                 1.6612
 Frc consts  --      1.7661                 1.1776                 1.5601
 IR Inten    --    135.3780                 1.7255                 7.0229

                     46                     47                     48
                      A                      A                      A
 Frequencies --   1279.5591              1315.3992              1335.4783
 Red. masses --      1.3415                 4.1454                 1.2031
 Frc consts  --      1.2941                 4.2261                 1.2642
 IR Inten    --      0.9352                16.2205                 0.8527

                     49                     50                     51
                      A                      A                      A
 Frequencies --   1349.5797              1367.0230              1397.4179
 Red. masses --      1.4426                 1.4075                 1.3302
 Frc consts  --      1.5481                 1.5497                 1.5305
 IR Inten    --      7.7648                 6.3989                 8.8113

                     52                     53                     54
                      A                      A                      A
 Frequencies --   1410.1299              1425.7094              1445.3101
 Red. masses --      1.4658                 2.4132                 2.3133
 Frc consts  --      1.7173                 2.8901                 2.8471
 IR Inten    --      6.0687                30.7718                 2.2584

                     55                     56                     57
                      A                      A                      A
 Frequencies --   1447.0916              1510.9207              1519.5952
 Red. masses --      1.3402                 1.0848                 1.1512
 Frc consts  --      1.6535                 1.4591                 1.5662
 IR Inten    --     23.4481                 2.6422                 6.5286

                     58                     59                     60
                      A                      A                      A
 Frequencies --   1527.5342              1528.3691              1537.2844
 Red. masses --      1.4487                 1.8931                 1.0687
 Frc consts  --      1.9916                 2.6054                 1.4881
 IR Inten    --      7.9043                17.6537                 9.4269

                     61                     62                     63
                      A                      A                      A
 Frequencies --   1548.2993              1610.0977              1712.2398
 Red. masses --      1.0621                 5.2580                 7.5374
 Frc consts  --      1.5001                 8.0312                13.0197
 IR Inten    --      2.5460                 3.3037                24.4889

                     64                     65                     66
                      A                      A                      A
 Frequencies --   1809.1771              3026.3700              3041.2997
 Red. masses --      9.6134                 1.0611                 1.0641
 Frc consts  --     18.5391                 5.7262                 5.7989
 IR Inten    --    361.3431                28.3313                30.3159

                     67                     68                     69
                      A                      A                      A
 Frequencies --   3045.8006              3061.2659              3066.9069
 Red. masses --      1.0409                 1.0771                 1.0855
 Frc consts  --      5.6893                 5.9469                 6.0154
 IR Inten    --     31.9752                13.5415                37.2228

                     70                     71                     72
                      A                      A                      A
 Frequencies --   3078.7232              3107.1616              3110.2875
 Red. masses --      1.0982                 1.1007                 1.1017
 Frc consts  --      6.1327                 6.2613                 6.2795
 IR Inten    --     56.8140                46.4386                16.7300

                     73                     74                     75
                      A                      A                      A
 Frequencies --   3136.5716              3161.1211              3265.4317
 Red. masses --      1.1000                 1.0874                 1.0920
 Frc consts  --      6.3764                 6.4022                 6.8602
 IR Inten    --     25.8647                10.3336                 4.8763

                     76                     77                     78
                      A                      A                      A
 Frequencies --   3277.3361              3303.6201              3679.9474
 Red. masses --      1.0961                 1.1049                 1.0637
 Frc consts  --      6.9365                 7.1045                 8.4871
 IR Inten    --      2.1063                 0.9016                47.9531

 - Thermochemistry -
 -------------------
 Temperature   298.150 Kelvin.  Pressure   1.00000 Atm.
 Atom     1 has atomic number  6 and mass  12.00000

 Molecular mass:   194.09429 amu.
 Principal axes and moments of inertia in atomic units:
                           1         2         3
     Eigenvalues --  1170.869644822.980355420.47282
           X            0.99999  -0.00426  -0.00260
           Y            0.00420   0.99976  -0.02173
           Z            0.00270   0.02172   0.99976
 This molecule is an asymmetric top.
 Rotational symmetry number  1.
 Warning -- assumption of classical behavior for rotation
           may cause significant error
 Rotational temperatures (Kelvin)      0.07397     0.01796     0.01598
 Rotational constants (GHZ):           1.54137     0.37420     0.33295
 Zero-point vibrational energy     613402.5 (Joules/Mol)
                                  146.60672 (Kcal/Mol)
 Warning -- explicit consideration of  19 degrees of freedom as
           vibrations may cause significant error
 Vibrational temperatures:     32.72    67.12    73.99   124.47   145.87
          (Kelvin)            209.67   228.02   243.33   295.94   320.21
                              412.62   479.15   512.09   547.47   619.64
                              728.41   763.41   872.49   886.12   935.94
                              984.38  1069.37  1079.37  1097.13  1129.79
                             1164.87  1172.32  1199.17  1250.01  1290.90
                             1309.35  1322.25  1365.48  1399.26  1418.53
                             1510.46  1546.91  1574.05  1618.65  1636.75
                             1653.61  1720.14  1734.51  1766.11  1816.51
                             1841.00  1892.57  1921.46  1941.74  1966.84
                             2010.57  2028.86  2051.28  2079.48  2082.04
                             2173.88  2186.36  2197.78  2198.98  2211.81
                             2227.66  2316.57  2463.53  2603.00  4354.27
                             4375.75  4382.23  4404.48  4412.60  4429.60
                             4470.51  4475.01  4512.83  4548.15  4698.23
                             4715.36  4753.17  5294.62

 Zero-point correction=                           0.233633 (Hartree/Particle)
 Thermal correction to Energy=                    0.247509
 Thermal correction to Enthalpy=                  0.248453
 Thermal correction to Gibbs Free Energy=         0.191296
 Sum of electronic and zero-point Energies=           -653.064654
 Sum of electronic and thermal Energies=              -653.050778
 Sum of electronic and thermal Enthalpies=            -653.049834
 Sum of electronic and thermal Free Energies=         -653.106991

                     E (Thermal)             CV                S
                      KCal/Mol        Cal/Mol-Kelvin    Cal/Mol-Kelvin
 Total                  155.314             51.222            120.297
 Electronic               0.000              0.000              0.000
 Translational            0.889              2.981             41.695
 Rotational               0.889              2.981             31.793
 Vibrational            153.537             45.260             46.809
 Vibration     1          0.593              1.985              6.379
 Vibration     2          0.595              1.979              4.955
 Vibration     3          0.596              1.977              4.762
 Vibration     4          0.601              1.959              3.737
 Vibration     5          0.604              1.948              3.428
 Vibration     6          0.617              1.907              2.727
 Vibration     7          0.621              1.893              2.568
 Vibration     8          0.625              1.880              2.445
 Vibration     9          0.640              1.832              2.082
 Vibration    10          0.648              1.807              1.938
 Vibration    11          0.684              1.698              1.493
 Vibration    12          0.715              1.610              1.245
 Vibration    13          0.731              1.563              1.140
 Vibration    14          0.750              1.512              1.037
 Vibration    15          0.792              1.403              0.856
 Vibration    16          0.861              1.236              0.643
 Vibration    17          0.886              1.182              0.586
 Vibration    18          0.965              1.018              0.439
 Vibration    19          0.975              0.998              0.423

                           ! Non-Optimized Parameters !
 Normal termination of Gaussian 16 at Thu Dec 10 10:32:21 2020.

 ----------------------------------------------------------------------
 # B3LYP/6-311++G(d,p) empiricaldispersion=gd3bj scf=xqc pop=npa geom=c
 heck
 ----------------------------------------------------------------------

 --------------------------------------
 CID_54489269_JID_4690_Energie_neutraal
 --------------------------------------
 Structure from the checkpoint file:  "JID_4690.chk"
 Charge =  0 Multiplicity = 1

 SCF Done:  E(RB3LYP) =  -653.489489694     A.U. after   15 cycles
 Normal termination of Gaussian 16 at Thu Dec 10 10:36:03 2020.

 ----------------------------------------------------------------------
 # B3LYP/6-311++G(d,p) empiricaldispersion=gd3bj scf=xqc pop=npa geom=c
 heck
 ----------------------------------------------------------------------

 ------------------------------------
 CID_54489269_JID_4690_Energie_kation
 ------------------------------------
 Structure from the checkpoint file:  "JID_4690.chk"
 Charge =  1 Multiplicity = 2

 SCF Done:  E(UB3LYP) =  -653.200153064     A.U. after   21 cycles
 Normal termination of Gaussian 16 at Thu Dec 10 10:43:32 2020.
 Gaussian 16:  ES64L-G16RevA.03 25-Dec-2016

 ----------------------------------------------------------------------
 # B3LYP/6-311++G(d,p) empiricaldispersion=gd3bj scf=xqc pop=npa geom=c
 heck
 ----------------------------------------------------------------------

 -----------------------------------
 CID_54489269_JID_4690_Energie_anion
 -----------------------------------
 Structure from the checkpoint file:  "JID_4690.chk"
 Charge = -1 Multiplicity = 2

                         Standard orientation:
 ---------------------------------------------------------------------
 Center     Atomic      Atomic             Coordinates (Angstroms)
 Number     Number       Type             X           Y           Z
 ---------------------------------------------------------------------
      1          6           0        4.111642    0.557573   -0.279350
      2          6           0        3.196604   -0.395767   -1.055132
      3          6           0        2.630931   -1.547300   -0.211700
      4          6           0        1.707732   -1.133780    0.954959
      5          6           0        0.449479   -0.418176    0.512375
      6          6           0       -0.712912   -1.086816    0.354621
      7          6           0       -2.042440   -0.610164    0.072527
      8          6           0       -3.181455   -1.303068   -0.265396
      9          6           0       -4.229991   -0.343114   -0.390881
     10          6           0       -3.665796    0.866028   -0.107496
     11          8           0       -2.344437    0.723034    0.178566
     12          6           0        0.598617    1.050998    0.314019
     13          8           0        1.178292    1.788040    1.087751
     14          8           0        0.095281    1.494281   -0.862688
     15          1           0        3.566504    1.099820    0.498783
     16          1           0        4.556834    1.301821   -0.949302
     17          1           0        4.932437    0.008782    0.199527
     18          1           0        2.371764    0.167568   -1.509783
     19          1           0        3.757434   -0.832727   -1.891838
     20          1           0        2.071424   -2.229317   -0.865653
     21          1           0        3.465286   -2.127801    0.206433
     22          1           0        1.428339   -2.035337    1.511331
     23          1           0        2.247987   -0.484126    1.651382
     24          1           0       -0.681490   -2.164344    0.510048
     25          1           0       -3.250439   -2.371979   -0.411847
     26          1           0       -5.262537   -0.527231   -0.651101
     27          1           0       -4.048483    1.873714   -0.056694
     28          1           0        0.237372    2.459841   -0.861597
 ---------------------------------------------------------------------

 SCF Done:  E(UB3LYP) =  -653.495811275     A.U. after   27 cycles

 The electronic state is 2-A.
 Alpha  occ. eigenvalues --  -19.02938 -19.01345 -18.94684 -10.13109 -10.07193
 Alpha  occ. eigenvalues --  -10.07186 -10.04552 -10.04203 -10.04068 -10.03394
 Alpha  occ. eigenvalues --  -10.03055 -10.01584 -10.00863 -10.00791  -0.96089
 Alpha  occ. eigenvalues --   -0.95086  -0.85869  -0.68335  -0.65749  -0.65044
 Alpha  occ. eigenvalues --   -0.61108  -0.57232  -0.51830  -0.50601  -0.45753
 Alpha  occ. eigenvalues --   -0.45496  -0.42035  -0.40190  -0.38336  -0.34399
 Alpha  occ. eigenvalues --   -0.33867  -0.33378  -0.31797  -0.30774  -0.30291
 Alpha  occ. eigenvalues --   -0.28390  -0.27406  -0.27087  -0.26660  -0.26027
 Alpha  occ. eigenvalues --   -0.25678  -0.23968  -0.22446  -0.22198  -0.20995
 Alpha  occ. eigenvalues --   -0.19934  -0.19310  -0.17197  -0.14981  -0.14087
 Alpha  occ. eigenvalues --   -0.12549  -0.06766   0.05075
 Alpha virt. eigenvalues --    0.07969   0.08879   0.09425   0.10301   0.10491
 Alpha virt. eigenvalues --    0.10692   0.11999   0.12217   0.13062   0.13537
 Alpha virt. eigenvalues --    0.14256   0.14733   0.15082   0.16138   0.17066

  Beta  occ. eigenvalues --  -19.02753 -19.01294 -18.94445 -10.12937 -10.07177
  Beta  occ. eigenvalues --  -10.06973 -10.04546 -10.04201 -10.04033 -10.03480
  Beta  occ. eigenvalues --  -10.03066 -10.01381 -10.00568 -10.00489  -0.95786
  Beta  occ. eigenvalues --   -0.94842  -0.85518  -0.68111  -0.65468  -0.64637
  Beta  occ. eigenvalues --   -0.60837  -0.56938  -0.51658  -0.49974  -0.45637
  Beta  occ. eigenvalues --   -0.45328  -0.41737  -0.40005  -0.38042  -0.34193
  Beta  occ. eigenvalues --   -0.33725  -0.33092  -0.31614  -0.30188  -0.29780
  Beta  occ. eigenvalues --   -0.27920  -0.27272  -0.26893  -0.26548  -0.25846
  Beta  occ. eigenvalues --   -0.25550  -0.23800  -0.22256  -0.22036  -0.20829
  Beta  occ. eigenvalues --   -0.19867  -0.19091  -0.16369  -0.13626  -0.13168
  Beta  occ. eigenvalues --   -0.12079  -0.05106
  Beta virt. eigenvalues --    0.07892   0.08836   0.09351   0.10182   0.10342
  Beta virt. eigenvalues --    0.10651   0.11193   0.11982   0.12221   0.13005
  Beta virt. eigenvalues --    0.13460   0.14330   0.14846   0.15553   0.16418

 Mulliken charges and spin densities:
               1          2
     1  C   -0.527024  -0.064117
     2  C   -0.227423   0.042528
     3  C   -0.149760  -0.253252
     4  C   -0.299916   0.160806
     5  C    1.479038   0.072843
     6  C   -0.660679   0.180069
     7  C   -0.445854   0.003754
     8  C   -0.247492   0.163513
     9  C   -0.331100  -0.067849
    10  C   -0.071879   0.186971
    11  O    0.035119   0.034619
    12  C   -0.745386   0.112922
    13  O   -0.294248   0.075709
    14  O   -0.078694  -0.001147
    15  H    0.194076  -0.002658
    16  H    0.099273  -0.000717
    17  H    0.086990   0.022977
    18  H    0.171511  -0.013151
    19  H    0.087714   0.051293
    20  H    0.107231   0.024594
    21  H   -0.039673   0.140489
    22  H    0.013431   0.139128
    23  H    0.157587   0.033293
    24  H    0.116083  -0.031821
    25  H    0.111573  -0.010383
    26  H    0.106263   0.003828
    27  H    0.116691  -0.007241
    28  H    0.236550   0.003000
 Sum of Mulliken charges =  -1.00000   1.00000

 Dipole moment (field-independent basis, Debye):
    X=              0.8053    Y=             -0.0568    Z=             -2.1868  Tot=              2.3310
 Quadrupole moment (field-independent basis, Debye-Ang):
   XX=           -121.9385   YY=            -96.1160   ZZ=            -99.9841
   XY=             -1.2445   XZ=             -2.3392   YZ=             -4.1287

 Summary of Natural Population Analysis:

                                       Natural Population
                Natural  -----------------------------------------------
    Atom  No    Charge         Core      Valence    Rydberg      Total
 -----------------------------------------------------------------------
      C    1   -0.29054      0.99967     2.28657    0.00430     3.29054
      C    2   -0.19701      0.99964     2.18781    0.00956     3.19701
      C    3   -0.18130      0.99962     2.17189    0.00978     3.18130
      C    4   -0.19880      0.99961     2.18881    0.01038     3.19880
      C    5   -0.00822      0.99943     1.99536    0.01343     3.00822
      C    6   -0.06072      0.99947     2.05349    0.00776     3.06072
      C    7    0.14488      0.99945     1.84255    0.01312     2.85512
      C    8   -0.11678      0.99952     2.10867    0.00859     3.11678
      C    9   -0.18525      0.99958     2.17700    0.00867     3.18525
      C   10    0.09205      0.99953     1.89356    0.01486     2.90795
      O   11   -0.21708      0.99986     3.20819    0.00903     4.21708
      C   12    0.41767      0.99963     1.55649    0.02620     2.58233
      O   13   -0.31033      0.99987     3.30417    0.00629     4.31033
      O   14   -0.34203      0.99988     3.33502    0.00713     4.34203
      H   15    0.11172      0.00000     0.38728    0.00101     0.38828
      H   16    0.09098      0.00000     0.40820    0.00082     0.40902
      H   17    0.08804      0.00000     0.41087    0.00109     0.41196
      H   18    0.10443      0.00000     0.39444    0.00113     0.39557
      H   19    0.08706      0.00000     0.41174    0.00120     0.41294
      H   20    0.09404      0.00000     0.40491    0.00106     0.40596
      H   21    0.08575      0.00000     0.41258    0.00167     0.41425
      H   22    0.09578      0.00000     0.40277    0.00145     0.40422
      H   23    0.10491      0.00000     0.39380    0.00129     0.39509
      H   24    0.08802      0.00000     0.41081    0.00117     0.41198
      H   25    0.09623      0.00000     0.40293    0.00085     0.40377
      H   26    0.09743      0.00000     0.40167    0.00091     0.40257
      H   27    0.08279      0.00000     0.41623    0.00098     0.41721
      H   28    0.22627      0.00000     0.26952    0.00421     0.27373
 =======================================================================
   * Total *   -0.00000     13.99475    37.83731    0.16794    52.00000

 Normal termination of Gaussian 16 at Thu Dec 10 10:53:22 2020.
