 Gaussian 16, Revision A.03,

 -----------------------------------------------------------
 # opt freq B3LYP/6-31G(d) empiricaldispersion=gd3bj scf=xqc
 -----------------------------------------------------------

 ------------------------------
 CID_21434838_JID_2632_neutraal
 ------------------------------
 Symbolic Z-matrix:
 Charge =  0 Multiplicity = 1

 SCF Done:  E(RB3LYP) =  -900.017981117     A.U. after   14 cycles
 SCF Done:  E(RB3LYP) =  -900.023233054     A.U. after   11 cycles
 SCF Done:  E(RB3LYP) =  -900.023743398     A.U. after   11 cycles
 SCF Done:  E(RB3LYP) =  -900.023815751     A.U. after   11 cycles
 SCF Done:  E(RB3LYP) =  -900.023869309     A.U. after   10 cycles
 SCF Done:  E(RB3LYP) =  -900.023887505     A.U. after   10 cycles
 SCF Done:  E(RB3LYP) =  -900.023915229     A.U. after   11 cycles
 SCF Done:  E(RB3LYP) =  -900.023916199     A.U. after   10 cycles
 SCF Done:  E(RB3LYP) =  -900.023927513     A.U. after   11 cycles
 SCF Done:  E(RB3LYP) =  -900.023965769     A.U. after   12 cycles
 SCF Done:  E(RB3LYP) =  -900.024004383     A.U. after   10 cycles
 SCF Done:  E(RB3LYP) =  -900.024005204     A.U. after    8 cycles
 SCF Done:  E(RB3LYP) =  -900.024006333     A.U. after    9 cycles
 SCF Done:  E(RB3LYP) =  -900.024006351     A.U. after    7 cycles
 SCF Done:  E(RB3LYP) =  -900.024006339     A.U. after    7 cycles
 Optimization completed.
    -- Stationary point found.
 Normal termination of Gaussian 16 at Wed Dec  9 17:53:08 2020.

 --------------------------------------------------------------------
 #N Geom=AllCheck Guess=TCheck SCRF=Check GenChk RB3LYP/6-31G(d) Freq
 --------------------------------------------------------------------

 Structure from the checkpoint file:  "JID_2632.chk"
 ------------------------------
 CID_21434838_JID_2632_neutraal
 ------------------------------
 Charge =  0 Multiplicity = 1

 SCF Done:  E(RB3LYP) =  -900.024006339     A.U. after    1 cycles

  Exact polarizability: 123.909  -2.864 109.862   4.471  -1.264  95.427
 Approx polarizability: 161.797  -5.689 169.809  11.180  -6.254 156.466

                      1                      2                      3
                      A                      A                      A
 Frequencies --     27.6075                62.0925                96.4006
 Red. masses --      4.9671                 3.5724                 3.9151
 Frc consts  --      0.0022                 0.0081                 0.0214
 IR Inten    --      0.1326                 0.9478                 2.7372

                      4                      5                      6
                      A                      A                      A
 Frequencies --    115.1542               140.3654               194.9127
 Red. masses --      4.1825                 3.8907                 4.3285
 Frc consts  --      0.0327                 0.0452                 0.0969
 IR Inten    --      2.2886                 1.3405                 0.0905

                      7                      8                      9
                      A                      A                      A
 Frequencies --    256.5190               283.9461               307.7164
 Red. masses --      3.4709                 2.7479                 2.2593
 Frc consts  --      0.1346                 0.1305                 0.1260
 IR Inten    --      0.6086                 6.9075                 3.4803

                     10                     11                     12
                      A                      A                      A
 Frequencies --    363.0221               418.8861               443.9124
 Red. masses --      1.6694                 1.7449                 3.2731
 Frc consts  --      0.1296                 0.1804                 0.3800
 IR Inten    --     16.8828                61.7150                 6.8644

                     13                     14                     15
                      A                      A                      A
 Frequencies --    454.6854               518.3768               563.5888
 Red. masses --      2.5691                 3.9370                 4.2534
 Frc consts  --      0.3129                 0.6233                 0.7960
 IR Inten    --      6.2457                 6.9254                 0.5572

                     16                     17                     18
                      A                      A                      A
 Frequencies --    615.6536               704.9234               713.3670
 Red. masses --      2.9559                 3.4194                 1.9187
 Frc consts  --      0.6601                 1.0011                 0.5753
 IR Inten    --      3.0170                 1.9184                20.7878

                     19                     20                     21
                      A                      A                      A
 Frequencies --    727.6014               777.9522               807.6727
 Red. masses --      2.3146                 4.7958                 3.1807
 Frc consts  --      0.7220                 1.7101                 1.2225
 IR Inten    --     45.2537                 1.6762                20.8404

                     22                     23                     24
                      A                      A                      A
 Frequencies --    833.4884               863.7985               891.4370
 Red. masses --      3.2398                 2.6824                 1.8970
 Frc consts  --      1.3261                 1.1792                 0.8882
 IR Inten    --     19.1642                27.9697                13.3784

                     25                     26                     27
                      A                      A                      A
 Frequencies --    924.5251               944.9849               955.9222
 Red. masses --      2.4120                 1.9054                 2.0860
 Frc consts  --      1.2147                 1.0025                 1.1231
 IR Inten    --     14.9954                 7.8179                 4.1901

                     28                     29                     30
                      A                      A                      A
 Frequencies --    963.9225               968.6164              1001.8355
 Red. masses --      2.5487                 1.3517                 2.3209
 Frc consts  --      1.3953                 0.7472                 1.3725
 IR Inten    --      5.3575                 1.5643                 8.6649

                     31                     32                     33
                      A                      A                      A
 Frequencies --   1024.2654              1053.7147              1068.6489
 Red. masses --      2.6333                 1.4280                 2.4653
 Frc consts  --      1.6277                 0.9342                 1.6588
 IR Inten    --     11.8731                 2.2941                32.9811

                     34                     35                     36
                      A                      A                      A
 Frequencies --   1072.8120              1106.1374              1135.3164
 Red. masses --      1.8676                 2.4440                 2.3305
 Frc consts  --      1.2665                 1.7619                 1.7699
 IR Inten    --     26.6503                52.1947                25.7261

                     37                     38                     39
                      A                      A                      A
 Frequencies --   1144.8238              1185.7863              1190.1649
 Red. masses --      1.4874                 1.1537                 1.3869
 Frc consts  --      1.1486                 0.9558                 1.1575
 IR Inten    --     13.7364                24.6057                24.7985

                     40                     41                     42
                      A                      A                      A
 Frequencies --   1212.5676              1253.1968              1261.0334
 Red. masses --      1.2093                 1.2801                 1.6583
 Frc consts  --      1.0476                 1.1845                 1.5537
 IR Inten    --     48.7977                 8.4548                 7.7766

                     43                     44                     45
                      A                      A                      A
 Frequencies --   1281.3442              1284.9352              1311.9704
 Red. masses --      1.2395                 1.3903                 1.2312
 Frc consts  --      1.1990                 1.3525                 1.2486
 IR Inten    --      0.3841                10.9020                18.6612

                     46                     47                     48
                      A                      A                      A
 Frequencies --   1327.6467              1333.4530              1346.5462
 Red. masses --      1.3532                 1.4981                 1.5536
 Frc consts  --      1.4053                 1.5695                 1.6597
 IR Inten    --      5.2527                 5.9743                 5.1759

                     49                     50                     51
                      A                      A                      A
 Frequencies --   1377.4324              1395.4287              1414.3570
 Red. masses --      1.3180                 1.3664                 1.5150
 Frc consts  --      1.4734                 1.5676                 1.7855
 IR Inten    --     10.5409                 7.7619                 1.7641

                     52                     53                     54
                      A                      A                      A
 Frequencies --   1429.8633              1455.2471              1501.1010
 Red. masses --      1.3022                 1.2141                 1.0903
 Frc consts  --      1.5687                 1.5148                 1.4475
 IR Inten    --      8.1279                55.8079                 4.9920

                     55                     56                     57
                      A                      A                      A
 Frequencies --   1504.3596              1513.3034              1539.5860
 Red. masses --      1.0982                 1.0926                 1.0934
 Frc consts  --      1.4643                 1.4742                 1.5269
 IR Inten    --      4.9060                 2.5028                 2.8354

                     58                     59                     60
                      A                      A                      A
 Frequencies --   1694.5789              3032.5983              3034.6532
 Red. masses --      6.0586                 1.0731                 1.0764
 Frc consts  --     10.2505                 5.8145                 5.8401
 IR Inten    --      0.5631                34.6581                19.8733

                     61                     62                     63
                      A                      A                      A
 Frequencies --   3041.0023              3054.6780              3088.1556
 Red. masses --      1.0652                 1.0644                 1.0979
 Frc consts  --      5.8039                 5.8516                 6.1692
 IR Inten    --     18.7817                28.5926                 8.7642

                     64                     65                     66
                      A                      A                      A
 Frequencies --   3089.4437              3090.2489              3103.5631
 Red. masses --      1.0598                 1.0980                 1.0875
 Frc consts  --      5.9598                 6.1777                 6.1718
 IR Inten    --     27.2434                25.4847                31.9295

                     67                     68                     69
                      A                      A                      A
 Frequencies --   3119.3601              3127.1895              3147.9011
 Red. masses --      1.0886                 1.0963                 1.1100
 Frc consts  --      6.2408                 6.3166                 6.4806
 IR Inten    --     43.0103                19.6037                13.2039

                     70                     71                     72
                      A                      A                      A
 Frequencies --   3187.7762              3214.3778              3712.6024
 Red. masses --      1.0858                 1.1026                 1.0656
 Frc consts  --      6.5010                 6.7120                 8.6533
 IR Inten    --      9.1119                24.7326                 8.8242

 - Thermochemistry -
 -------------------
 Temperature   298.150 Kelvin.  Pressure   1.00000 Atm.
 Atom     1 has atomic number  6 and mass  12.00000

 Molecular mass:   186.07145 amu.
 Principal axes and moments of inertia in atomic units:
                           1         2         3
     Eigenvalues --  1029.171653645.717474080.08822
           X            0.99994   0.01025   0.00480
           Y           -0.01022   0.99993  -0.00584
           Z           -0.00486   0.00579   0.99997
 This molecule is an asymmetric top.
 Rotational symmetry number  1.
 Warning -- assumption of classical behavior for rotation
           may cause significant error
 Rotational temperatures (Kelvin)      0.08416     0.02376     0.02123
 Rotational constants (GHZ):           1.75359     0.49503     0.44233
 Zero-point vibrational energy     582617.6 (Joules/Mol)
                                  139.24895 (Kcal/Mol)
 Warning -- explicit consideration of  16 degrees of freedom as
           vibrations may cause significant error
 Vibrational temperatures:     39.72    89.34   138.70   165.68   201.95
          (Kelvin)            280.44   369.07   408.54   442.74   522.31
                              602.68   638.69   654.19   745.83   810.88
                              885.79  1014.23  1026.38  1046.86  1119.30
                             1162.06  1199.20  1242.81  1282.58  1330.19
                             1359.62  1375.36  1386.87  1393.62  1441.42
                             1473.69  1516.06  1537.55  1543.54  1591.49
                             1633.47  1647.15  1706.08  1712.38  1744.61
                             1803.07  1814.35  1843.57  1848.74  1887.63
                             1910.19  1918.54  1937.38  1981.82  2007.71
                             2034.94  2057.25  2093.78  2159.75  2164.44
                             2177.31  2215.12  2438.12  4363.23  4366.19
                             4375.32  4395.00  4443.17  4445.02  4446.18
                             4465.34  4488.06  4499.33  4529.13  4586.50
                             4624.77  5341.61

 Zero-point correction=                           0.221907 (Hartree/Particle)
 Thermal correction to Energy=                    0.233459
 Thermal correction to Enthalpy=                  0.234403
 Thermal correction to Gibbs Free Energy=         0.183156
 Sum of electronic and zero-point Energies=           -899.802099
 Sum of electronic and thermal Energies=              -899.790547
 Sum of electronic and thermal Enthalpies=            -899.789603
 Sum of electronic and thermal Free Energies=         -899.840850

                     E (Thermal)             CV                S
                      KCal/Mol        Cal/Mol-Kelvin    Cal/Mol-Kelvin
 Total                  146.498             44.330            107.859
 Electronic               0.000              0.000              0.000
 Translational            0.889              2.981             41.569
 Rotational               0.889              2.981             31.105
 Vibrational            144.720             38.368             35.185
 Vibration     1          0.593              1.984              5.994
 Vibration     2          0.597              1.972              4.390
 Vibration     3          0.603              1.952              3.526
 Vibration     4          0.608              1.937              3.180
 Vibration     5          0.615              1.913              2.799
 Vibration     6          0.636              1.847              2.181
 Vibration     7          0.666              1.752              1.685
 Vibration     8          0.682              1.703              1.510
 Vibration     9          0.698              1.659              1.375
 Vibration    10          0.737              1.548              1.109
 Vibration    11          0.782              1.429              0.896
 Vibration    12          0.803              1.374              0.814
 Vibration    13          0.813              1.351              0.782
 Vibration    14          0.873              1.209              0.614
 Vibration    15          0.919              1.110              0.517
 Vibration    16          0.975              0.999              0.424

 Optimization completed.
    -- Stationary point found.
 Normal termination of Gaussian 16 at Wed Dec  9 17:59:58 2020.

 ----------------------------------------------------------------------
 # B3LYP/6-311++G(d,p) empiricaldispersion=gd3bj scf=xqc pop=npa geom=c
 heck
 ----------------------------------------------------------------------

 --------------------------------------
 CID_21434838_JID_2632_Energie_neutraal
 --------------------------------------
 Structure from the checkpoint file:  "JID_2632.chk"
 Charge =  0 Multiplicity = 1

 SCF Done:  E(RB3LYP) =  -900.201714313     A.U. after   14 cycles
 Normal termination of Gaussian 16 at Wed Dec  9 18:03:22 2020.

 ----------------------------------------------------------------------
 # B3LYP/6-311++G(d,p) empiricaldispersion=gd3bj scf=xqc pop=npa geom=c
 heck
 ----------------------------------------------------------------------

 ------------------------------------
 CID_21434838_JID_2632_Energie_kation
 ------------------------------------
 Structure from the checkpoint file:  "JID_2632.chk"
 Charge =  1 Multiplicity = 2

 SCF Done:  E(UB3LYP) =  -899.899803088     A.U. after   25 cycles
 Normal termination of Gaussian 16 at Wed Dec  9 18:11:27 2020.
 Gaussian 16:  ES64L-G16RevA.03 25-Dec-2016

 ----------------------------------------------------------------------
 # B3LYP/6-311++G(d,p) empiricaldispersion=gd3bj scf=xqc pop=npa geom=c
 heck
 ----------------------------------------------------------------------

 -----------------------------------
 CID_21434838_JID_2632_Energie_anion
 -----------------------------------
 Structure from the checkpoint file:  "JID_2632.chk"
 Charge = -1 Multiplicity = 2

                         Standard orientation:
 ---------------------------------------------------------------------
 Center     Atomic      Atomic             Coordinates (Angstroms)
 Number     Number       Type             X           Y           Z
 ---------------------------------------------------------------------
      1          6           0        2.066322    1.420812    0.238479
      2          6           0        3.301369    0.574281   -0.081436
      3         16           0        2.655202   -1.143249   -0.176240
      4          6           0        0.890600   -0.498554   -0.337674
      5          8           0        0.994942    0.893467   -0.528534
      6          6           0        0.063007   -0.919337    0.877826
      7          6           0       -1.420109   -0.478623    0.882006
      8          6           0       -1.631578    1.003510    1.112017
      9          6           0       -2.085240    1.623697    0.019476
     10          6           0       -2.223779    0.666554   -1.141546
     11          6           0       -2.197475   -0.717003   -0.446252
     12          8           0       -3.518846   -1.183119   -0.182385
     13          1           0        2.184374    2.464818   -0.062800
     14          1           0        1.841214    1.383830    1.313440
     15          1           0        3.741167    0.862471   -1.039644
     16          1           0        4.059477    0.641834    0.702584
     17          1           0        0.463749   -0.902593   -1.258255
     18          1           0        0.105893   -2.014838    0.926665
     19          1           0        0.553586   -0.558229    1.789153
     20          1           0       -1.909332   -1.074736    1.664239
     21          1           0       -1.405024    1.483414    2.060557
     22          1           0       -2.283604    2.688441   -0.061704
     23          1           0       -1.381217    0.795947   -1.835102
     24          1           0       -3.146786    0.781903   -1.721192
     25          1           0       -1.747781   -1.497353   -1.065984
     26          1           0       -3.946413   -0.497725    0.357863
 ---------------------------------------------------------------------

 SCF Done:  E(UB3LYP) =  -900.187459873     A.U. after   33 cycles
 SCF Done:  E(UB3LYP) =  -900.187459873     a.u. after    1 cycles

 The electronic state is 2-A.
 Alpha  occ. eigenvalues --  -88.73938 -19.04009 -19.02658 -10.15593 -10.12669
 Alpha  occ. eigenvalues --  -10.12423 -10.10163 -10.08093 -10.07902 -10.07165
 Alpha  occ. eigenvalues --  -10.06818 -10.06511  -7.82587  -5.78967  -5.78645
 Alpha  occ. eigenvalues --   -5.77939  -0.96137  -0.93051  -0.74723  -0.69479
 Alpha  occ. eigenvalues --   -0.68535  -0.63180  -0.60642  -0.56641  -0.51157
 Alpha  occ. eigenvalues --   -0.50061  -0.47243  -0.43940  -0.41680  -0.41345
 Alpha  occ. eigenvalues --   -0.38947  -0.37252  -0.35403  -0.34545  -0.33681
 Alpha  occ. eigenvalues --   -0.32154  -0.30354  -0.29648  -0.29196  -0.27229
 Alpha  occ. eigenvalues --   -0.26558  -0.25725  -0.24905  -0.23811  -0.23063
 Alpha  occ. eigenvalues --   -0.21717  -0.17926  -0.17414  -0.14633  -0.12970
 Alpha  occ. eigenvalues --    0.04549
 Alpha virt. eigenvalues --    0.06654   0.07565   0.07777   0.08408   0.09326
 Alpha virt. eigenvalues --    0.09853   0.09937   0.10331   0.10555   0.11218
 Alpha virt. eigenvalues --    0.11851   0.11985   0.12544   0.13794   0.14160

  Beta  occ. eigenvalues --  -88.73936 -19.04004 -19.02641 -10.15588 -10.12664
  Beta  occ. eigenvalues --  -10.12380 -10.10131 -10.08086 -10.07887 -10.07155
  Beta  occ. eigenvalues --  -10.06806 -10.06488  -7.82585  -5.78966  -5.78640
  Beta  occ. eigenvalues --   -5.77937  -0.96126  -0.93019  -0.74695  -0.69446
  Beta  occ. eigenvalues --   -0.68496  -0.63144  -0.60603  -0.56595  -0.51096
  Beta  occ. eigenvalues --   -0.50015  -0.47186  -0.43893  -0.41644  -0.41303
  Beta  occ. eigenvalues --   -0.38902  -0.37200  -0.35362  -0.34499  -0.33647
  Beta  occ. eigenvalues --   -0.32126  -0.30315  -0.29604  -0.29168  -0.27197
  Beta  occ. eigenvalues --   -0.26532  -0.25696  -0.24873  -0.23774  -0.23041
  Beta  occ. eigenvalues --   -0.21699  -0.17903  -0.17392  -0.14600  -0.12953
  Beta virt. eigenvalues --    0.06893   0.07628   0.08032   0.08260   0.09131
  Beta virt. eigenvalues --    0.09903   0.10170   0.10508   0.10718   0.10818
  Beta virt. eigenvalues --    0.11377   0.12159   0.12332   0.13118   0.14012

 Mulliken charges and spin densities:
               1          2
     1  C    0.514134  -0.821544
     2  C    0.348759  -0.919963
     3  S    0.180322  -0.284620
     4  C   -0.683240   0.780466
     5  O    0.011047   0.021182
     6  C    0.788104  -1.668147
     7  C   -0.178970   0.784836
     8  C   -0.499135   0.166497
     9  C    1.005830  -1.230244
    10  C   -0.357201   0.063172
    11  C    0.500071  -1.032493
    12  O   -0.311650   0.059477
    13  H   -0.680434   0.851165
    14  H    0.079181   0.094266
    15  H    0.001303   0.201448
    16  H   -0.526692   0.726042
    17  H    0.064729   0.232811
    18  H    0.086162   0.046822
    19  H   -0.240348   0.405485
    20  H   -0.089973   0.340963
    21  H   -0.877188   1.062334
    22  H   -0.529936   0.700360
    23  H    0.005752   0.151503
    24  H    0.005377   0.196165
    25  H    0.343842  -0.141711
    26  H    0.040155   0.213725
 Sum of Mulliken charges =  -1.00000   1.00000

 Dipole moment (field-independent basis, Debye):
    X=             -0.9595    Y=             -4.8239    Z=             -3.2729  Tot=              5.9079
 Quadrupole moment (field-independent basis, Debye-Ang):
   XX=           -149.1280   YY=           -126.7923   ZZ=           -116.1548
   XY=             -6.5186   XZ=             -1.1952   YZ=             -4.1174

 Summary of Natural Population Analysis:

                                       Natural Population
                Natural  -----------------------------------------------
    Atom  No    Charge         Core      Valence    Rydberg      Total
 -----------------------------------------------------------------------
      C    1   -0.01710      0.99958     2.00280    0.01471     3.01710
      C    2   -0.25331      0.99961     2.24420    0.00950     3.25331
      S    3    0.05493      4.99965     2.93026    0.01516     7.94507
      C    4    0.02207      0.99956     1.95979    0.01858     2.97793
      O    5   -0.29456      0.99988     3.28295    0.01173     4.29456
      C    6   -0.20644      0.99956     2.19504    0.01184     3.20644
      C    7   -0.13915      0.99957     2.12596    0.01363     3.13915
      C    8   -0.09368      0.99950     2.08183    0.01235     3.09368
      C    9   -0.09006      0.99951     2.07946    0.01109     3.09006
      C   10   -0.22361      0.99961     2.21514    0.00886     3.22361
      C   11    0.07105      0.99956     1.91514    0.01425     2.92895
      O   12   -0.37251      0.99990     3.36628    0.00634     4.37251
      H   13    0.10101      0.00000     0.39621    0.00277     0.39899
      H   14    0.08624      0.00000     0.41092    0.00283     0.41376
      H   15    0.10034      0.00000     0.39790    0.00176     0.39966
      H   16    0.11060      0.00000     0.38699    0.00241     0.38940
      H   17    0.09178      0.00000     0.40637    0.00185     0.40822
      H   18    0.10365      0.00000     0.39518    0.00117     0.39635
      H   19    0.10727      0.00000     0.39101    0.00172     0.39273
      H   20    0.10875      0.00000     0.38980    0.00145     0.39125
      H   21    0.10435      0.00000     0.39329    0.00236     0.39565
      H   22    0.10145      0.00000     0.39703    0.00152     0.39855
      H   23    0.10869      0.00000     0.38965    0.00167     0.39131
      H   24    0.10357      0.00000     0.39525    0.00119     0.39643
      H   25    0.08656      0.00000     0.41225    0.00119     0.41344
      H   26    0.22810      0.00000     0.26863    0.00327     0.27190
 =======================================================================
   * Total *   -0.00000     15.99549    33.82931    0.17520    50.00000

 Normal termination of Gaussian 16 at Wed Dec  9 18:22:02 2020.
