 Gaussian 16, Revision A.03,

 -----------------------------------------------------------
 # opt freq B3LYP/6-31G(d) empiricaldispersion=gd3bj scf=xqc
 -----------------------------------------------------------

 -------------------------------
 CID_47095982_JID_10091_neutraal
 -------------------------------
 Symbolic Z-matrix:
 Charge =  0 Multiplicity = 1

 SCF Done:  E(RB3LYP) =  -1942.13110929     A.U. after   16 cycles
 SCF Done:  E(RB3LYP) =  -1942.13880932     A.U. after   13 cycles
 SCF Done:  E(RB3LYP) =  -1942.13928461     A.U. after   14 cycles
 SCF Done:  E(RB3LYP) =  -1942.13907398     A.U. after   14 cycles
 SCF Done:  E(RB3LYP) =  -1942.13788372     A.U. after   14 cycles
 SCF Done:  E(RB3LYP) =  -1942.13840550     A.U. after   13 cycles
 SCF Done:  E(RB3LYP) =  -1942.14029393     A.U. after   10 cycles
 SCF Done:  E(RB3LYP) =  -1942.14182497     A.U. after   13 cycles
 SCF Done:  E(RB3LYP) =  -1942.14210220     A.U. after   12 cycles
 SCF Done:  E(RB3LYP) =  -1942.14162419     A.U. after   14 cycles
 SCF Done:  E(RB3LYP) =  -1942.14316429     A.U. after   12 cycles
 SCF Done:  E(RB3LYP) =  -1942.14316406     A.U. after   11 cycles
 SCF Done:  E(RB3LYP) =  -1942.14316559     A.U. after   11 cycles
 SCF Done:  E(RB3LYP) =  -1942.14316566     A.U. after    7 cycles
 SCF Done:  E(RB3LYP) =  -1942.14316569     A.U. after    7 cycles
 Optimization completed.
    -- Stationary point found.
 Normal termination of Gaussian 16 at Mon Dec 14 17:53:07 2020.

 --------------------------------------------------------------------
 #N Geom=AllCheck Guess=TCheck SCRF=Check GenChk RB3LYP/6-31G(d) Freq
 --------------------------------------------------------------------

 Structure from the checkpoint file:  "JID_10091.chk"
 -------------------------------
 CID_47095982_JID_10091_neutraal
 -------------------------------
 Charge =  0 Multiplicity = 1

 SCF Done:  E(RB3LYP) =  -1942.14316569     A.U. after    1 cycles

  Exact polarizability: 261.708 -15.252 223.173  10.399   0.269 152.085
 Approx polarizability: 357.246  -9.041 359.406  29.157   9.608 246.524

                      1                      2                      3
                      A                      A                      A
 Frequencies --     16.4022                26.9173                32.5013
 Red. masses --      5.6198                 5.5020                 3.9516
 Frc consts  --      0.0009                 0.0023                 0.0025
 IR Inten    --      0.2403                 0.1986                 0.2874

                      4                      5                      6
                      A                      A                      A
 Frequencies --     56.9701                61.3110                74.3581
 Red. masses --      5.5751                 5.3838                 3.4886
 Frc consts  --      0.0107                 0.0119                 0.0114
 IR Inten    --      2.8019                 3.1632                 0.5419

                      7                      8                      9
                      A                      A                      A
 Frequencies --     80.5783                92.5082               106.1587
 Red. masses --      5.0450                 1.9600                 5.2779
 Frc consts  --      0.0193                 0.0099                 0.0350
 IR Inten    --      0.4668                 0.2798                 0.0904

                     10                     11                     12
                      A                      A                      A
 Frequencies --    122.4192               149.0373               163.8356
 Red. masses --      2.9986                 3.6846                 1.1661
 Frc consts  --      0.0265                 0.0482                 0.0184
 IR Inten    --      0.9291                 2.1706                 0.2422

                     13                     14                     15
                      A                      A                      A
 Frequencies --    179.6451               208.9940               222.5177
 Red. masses --      2.0117                 4.5850                 2.1817
 Frc consts  --      0.0383                 0.1180                 0.0636
 IR Inten    --      0.9382                 6.5016                 2.0600

                     16                     17                     18
                      A                      A                      A
 Frequencies --    246.4363               262.7258               283.4456
 Red. masses --      3.9952                 2.4979                 3.4799
 Frc consts  --      0.1430                 0.1016                 0.1647
 IR Inten    --      0.4629                 6.7160                 3.7928

                     19                     20                     21
                      A                      A                      A
 Frequencies --    303.7703               313.2398               320.9250
 Red. masses --      3.5797                 6.4436                 8.4352
 Frc consts  --      0.1946                 0.3725                 0.5119
 IR Inten    --      4.3313                 1.9176                 0.0681

                     22                     23                     24
                      A                      A                      A
 Frequencies --    338.4581               347.3109               373.7125
 Red. masses --      1.1392                 4.3267                 2.6279
 Frc consts  --      0.0769                 0.3075                 0.2162
 IR Inten    --      0.3196                 3.0398                 3.1114

                     25                     26                     27
                      A                      A                      A
 Frequencies --    378.6513               397.7831               436.3914
 Red. masses --      3.9417                 2.4247                 5.1437
 Frc consts  --      0.3330                 0.2260                 0.5771
 IR Inten    --      3.0418                 1.4455                 0.4554

                     28                     29                     30
                      A                      A                      A
 Frequencies --    442.6541               478.4375               505.5150
 Red. masses --      2.9541                 3.9089                 2.3600
 Frc consts  --      0.3410                 0.5272                 0.3553
 IR Inten    --      0.1683                 3.8921                 5.5592

                     31                     32                     33
                      A                      A                      A
 Frequencies --    544.8204               548.0842               570.9578
 Red. masses --      8.5400                11.3590                 3.2413
 Frc consts  --      1.4935                 2.0104                 0.6226
 IR Inten    --      0.1169                 0.5359                 4.2879

                     34                     35                     36
                      A                      A                      A
 Frequencies --    590.3191               598.0497               660.7660
 Red. masses --     13.0138                 3.2264                13.4929
 Frc consts  --      2.6720                 0.6799                 3.4710
 IR Inten    --      0.0095                 1.3871                 1.0014

                     37                     38                     39
                      A                      A                      A
 Frequencies --    678.0438               706.6717               714.9039
 Red. masses --      4.2875                 6.4360                 3.6313
 Frc consts  --      1.1614                 1.8936                 1.0935
 IR Inten    --     12.6020                 2.1468                 7.2098

                     40                     41                     42
                      A                      A                      A
 Frequencies --    738.9251               780.0297               791.1618
 Red. masses --     12.3202                 2.1308                 1.6331
 Frc consts  --      3.9634                 0.7639                 0.6023
 IR Inten    --     33.3895                 8.3049                 3.1599

                     43                     44                     45
                      A                      A                      A
 Frequencies --    831.1843               848.3121               884.6479
 Red. masses --      2.2952                 1.5843                 2.6495
 Frc consts  --      0.9342                 0.6717                 1.2217
 IR Inten    --      4.6270                 8.4528                 3.4212

                     46                     47                     48
                      A                      A                      A
 Frequencies --    912.0183               936.4105               962.6843
 Red. masses --      1.7288                 2.0242                 2.2356
 Frc consts  --      0.8473                 1.0458                 1.2207
 IR Inten    --      1.6515                 0.9167                 0.8646

                     49                     50                     51
                      A                      A                      A
 Frequencies --   1001.7680              1003.2838              1009.2372
 Red. masses --      1.1805                 2.1029                 1.4275
 Frc consts  --      0.6980                 1.2471                 0.8567
 IR Inten    --      4.2547                22.1202                13.9545

                     52                     53                     54
                      A                      A                      A
 Frequencies --   1022.9513              1032.4300              1052.1867
 Red. masses --      1.6408                 1.7425                 6.5727
 Frc consts  --      1.0116                 1.0943                 4.2873
 IR Inten    --     49.9818                 5.4077               135.9926

                     55                     56                     57
                      A                      A                      A
 Frequencies --   1058.5082              1074.1784              1081.2338
 Red. masses --      1.3799                 8.9087                 2.0355
 Frc consts  --      0.9110                 6.0564                 1.4021
 IR Inten    --      0.8828                28.2137                 8.8939

                     58                     59                     60
                      A                      A                      A
 Frequencies --   1091.8536              1102.0683              1104.7517
 Red. masses --      9.2494                 1.7020                 2.0613
 Frc consts  --      6.4967                 1.2179                 1.4822
 IR Inten    --     12.5372                38.7649                18.5233

                     61                     62                     63
                      A                      A                      A
 Frequencies --   1122.0050              1144.9672              1151.4430
 Red. masses --      2.7434                 1.8553                 2.9454
 Frc consts  --      2.0348                 1.4330                 2.3008
 IR Inten    --     16.9702                 4.4092                29.2469

                     64                     65                     66
                      A                      A                      A
 Frequencies --   1166.7185              1219.5082              1244.9557
 Red. masses --      1.7346                 1.7482                 1.8505
 Frc consts  --      1.3912                 1.5319                 1.6898
 IR Inten    --     12.3690                41.3558                33.8297

                     67                     68                     69
                      A                      A                      A
 Frequencies --   1263.7219              1281.2857              1310.3534
 Red. masses --      1.2976                 1.6523                 1.2298
 Frc consts  --      1.2210                 1.5982                 1.2441
 IR Inten    --     28.8106                91.0778                 1.1657

                     70                     71                     72
                      A                      A                      A
 Frequencies --   1316.3324              1330.9110              1334.7078
 Red. masses --      1.3406                 1.3159                 1.3036
 Frc consts  --      1.3686                 1.3733                 1.3683
 IR Inten    --     13.3715                20.9883                 9.1136

                     73                     74                     75
                      A                      A                      A
 Frequencies --   1366.1956              1386.3226              1388.1809
 Red. masses --      1.3152                 1.1876                 1.5116
 Frc consts  --      1.4463                 1.3448                 1.7162
 IR Inten    --     41.3193                 9.5711                27.7811

                     76                     77                     78
                      A                      A                      A
 Frequencies --   1395.8769              1404.4669              1408.7072
 Red. masses --      1.5097                 1.3589                 1.4789
 Frc consts  --      1.7331                 1.5792                 1.7292
 IR Inten    --      2.1673                 5.6744                 5.9451

                     79                     80                     81
                      A                      A                      A
 Frequencies --   1418.5276              1429.3013              1434.8664
 Red. masses --      1.4967                 1.4025                 1.3120
 Frc consts  --      1.7744                 1.6881                 1.5914
 IR Inten    --      4.5868                24.9735                13.6378

                     82                     83                     84
                      A                      A                      A
 Frequencies --   1448.3103              1454.0994              1470.7667
 Red. masses --      1.2658                 7.3749                 8.2266
 Frc consts  --      1.5644                 9.1874                10.4848
 IR Inten    --     15.0234               107.3128                43.2520

                     85                     86                     87
                      A                      A                      A
 Frequencies --   1485.6914              1504.4480              1504.8724
 Red. masses --      1.0515                 1.0844                 1.0952
 Frc consts  --      1.3675                 1.4461                 1.4614
 IR Inten    --      9.5452                25.1187                 6.2210

                     88                     89                     90
                      A                      A                      A
 Frequencies --   1512.6154              1514.7789              1521.4009
 Red. masses --      1.0851                 1.0829                 1.0614
 Frc consts  --      1.4628                 1.4640                 1.4475
 IR Inten    --      1.1702                15.3732                11.3144

                     91                     92                     93
                      A                      A                      A
 Frequencies --   1526.9014              1530.7567              1531.1105
 Red. masses --      1.0654                 1.0705                 1.0740
 Frc consts  --      1.4634                 1.4780                 1.4834
 IR Inten    --      6.4243                 7.8773                 0.2473

                     94                     95                     96
                      A                      A                      A
 Frequencies --   1533.6442              1550.8332              1769.3019
 Red. masses --      1.0511                 1.0562                11.4174
 Frc consts  --      1.4567                 1.4966                21.0581
 IR Inten    --      4.5956                15.0380               161.7394

                     97                     98                     99
                      A                      A                      A
 Frequencies --   2990.1078              3003.4059              3030.4294
 Red. masses --      1.0829                 1.0771                 1.0667
 Frc consts  --      5.7044                 5.7247                 5.7719
 IR Inten    --     21.8319                25.1178                27.4652

                    100                    101                    102
                      A                      A                      A
 Frequencies --   3040.1982              3045.3104              3046.1022
 Red. masses --      1.0616                 1.0661                 1.0821
 Frc consts  --      5.7812                 5.8253                 5.9158
 IR Inten    --     29.8369                 9.1154                 6.3647

                    103                    104                    105
                      A                      A                      A
 Frequencies --   3051.1502              3059.7609              3071.1862
 Red. masses --      1.0676                 1.0390                 1.0363
 Frc consts  --      5.8558                 5.7312                 5.7590
 IR Inten    --     34.2395                27.8344                19.2780

                    106                    107                    108
                      A                      A                      A
 Frequencies --   3080.0374              3086.4793              3086.6885
 Red. masses --      1.0943                 1.0305                 1.1007
 Frc consts  --      6.1162                 5.7839                 6.1788
 IR Inten    --     64.0902                 9.3925                35.8294

                    109                    110                    111
                      A                      A                      A
 Frequencies --   3094.0122              3117.5248              3127.1582
 Red. masses --      1.1040                 1.1013                 1.0993
 Frc consts  --      6.2270                 6.3065                 6.3336
 IR Inten    --     63.3433                28.0466                54.7799

                    112                    113                    114
                      A                      A                      A
 Frequencies --   3135.5445              3158.4732              3165.8401
 Red. masses --      1.1030                 1.0915                 1.1020
 Frc consts  --      6.3894                 6.4158                 6.5075
 IR Inten    --     18.8187                16.6629                 9.3455

                    115                    116                    117
                      A                      A                      A
 Frequencies --   3181.4480              3187.4553              3247.5409
 Red. masses --      1.1063                 1.1084                 1.0850
 Frc consts  --      6.5972                 6.6351                 6.7420
 IR Inten    --      3.3951                 2.2159                 4.5468

 - Thermochemistry -
 -------------------
 Temperature   298.150 Kelvin.  Pressure   1.00000 Atm.
 Atom     1 has atomic number  6 and mass  12.00000

 Molecular mass:   331.08468 amu.
 Principal axes and moments of inertia in atomic units:
                           1         2         3
     Eigenvalues --  4162.34621********************
           X            0.99998  -0.00640  -0.00186
           Y            0.00640   0.99998  -0.00085
           Z            0.00187   0.00084   1.00000
 This molecule is an asymmetric top.
 Rotational symmetry number  1.
 Warning -- assumption of classical behavior for rotation
           may cause significant error
 Rotational temperatures (Kelvin)      0.02081     0.00715     0.00601
 Rotational constants (GHZ):           0.43359     0.14899     0.12526
 Zero-point vibrational energy     887275.0 (Joules/Mol)
                                  212.06381 (Kcal/Mol)
 Warning -- explicit consideration of  35 degrees of freedom as
           vibrations may cause significant error
 Vibrational temperatures:     23.60    38.73    46.76    81.97    88.21
          (Kelvin)            106.98   115.93   133.10   152.74   176.13
                              214.43   235.72   258.47   300.70   320.15
                              354.57   378.00   407.82   437.06   450.68
                              461.74   486.97   499.70   537.69   544.79
                              572.32   627.87   636.88   688.36   727.32
                              783.88   788.57   821.48   849.34   860.46
                              950.69   975.55  1016.74  1028.59  1063.15
                             1122.29  1138.31  1195.89  1220.53  1272.81
                             1312.19  1347.29  1385.09  1441.32  1443.50
                             1452.07  1471.80  1485.44  1513.86  1522.96
                             1545.50  1555.65  1570.93  1585.63  1589.49
                             1614.31  1647.35  1656.67  1678.65  1754.60
                             1791.21  1818.21  1843.48  1885.31  1893.91
                             1914.88  1920.35  1965.65  1994.61  1997.28
                             2008.36  2020.71  2026.82  2040.94  2056.45
                             2064.45  2083.80  2092.12  2116.11  2137.58
                             2164.57  2165.18  2176.32  2179.43  2188.96
                             2196.87  2202.42  2202.93  2206.57  2231.30
                             2545.63  4302.10  4321.23  4360.11  4374.17
                             4381.52  4382.66  4389.92  4402.31  4418.75
                             4431.49  4440.76  4441.06  4451.59  4485.42
                             4499.28  4511.35  4544.34  4554.94  4577.39
                             4586.04  4672.49

 Zero-point correction=                           0.337945 (Hartree/Particle)
 Thermal correction to Energy=                    0.359694
 Thermal correction to Enthalpy=                  0.360638
 Thermal correction to Gibbs Free Energy=         0.284676
 Sum of electronic and zero-point Energies=          -1941.805220
 Sum of electronic and thermal Energies=             -1941.783472
 Sum of electronic and thermal Enthalpies=           -1941.782528
 Sum of electronic and thermal Free Energies=        -1941.858490

                     E (Thermal)             CV                S
                      KCal/Mol        Cal/Mol-Kelvin    Cal/Mol-Kelvin
 Total                  225.711             80.219            159.876
 Electronic               0.000              0.000              0.000
 Translational            0.889              2.981             43.287
 Rotational               0.889              2.981             34.940
 Vibrational            223.934             74.257             81.650
 Vibration     1          0.593              1.986              7.028
 Vibration     2          0.593              1.984              6.045
 Vibration     3          0.594              1.983              5.671
 Vibration     4          0.596              1.975              4.559
 Vibration     5          0.597              1.973              4.415
 Vibration     6          0.599              1.966              4.035
 Vibration     7          0.600              1.962              3.877
 Vibration     8          0.602              1.955              3.606
 Vibration     9          0.605              1.944              3.338
 Vibration    10          0.610              1.930              3.062
 Vibration    11          0.618              1.904              2.684
 Vibration    12          0.623              1.887              2.505
 Vibration    13          0.629              1.867              2.332
 Vibration    14          0.642              1.827              2.052
 Vibration    15          0.648              1.807              1.939
 Vibration    16          0.661              1.769              1.756
 Vibration    17          0.670              1.741              1.644
 Vibration    18          0.682              1.704              1.513
 Vibration    19          0.695              1.667              1.396
 Vibration    20          0.701              1.648              1.345
 Vibration    21          0.706              1.633              1.305
 Vibration    22          0.719              1.599              1.219
 Vibration    23          0.725              1.581              1.178
 Vibration    24          0.745              1.526              1.065
 Vibration    25          0.749              1.516              1.045
 Vibration    26          0.764              1.475              0.971
 Vibration    27          0.797              1.391              0.838
 Vibration    28          0.802              1.377              0.818
 Vibration    29          0.835              1.298              0.714
 Vibration    30          0.861              1.238              0.644
 Vibration    31          0.900              1.151              0.555
 Vibration    32          0.903              1.144              0.548
 Vibration    33          0.927              1.094              0.502
 Vibration    34          0.948              1.052              0.467
 Vibration    35          0.956              1.036              0.453

 Optimization completed.
    -- Stationary point found.
 Normal termination of Gaussian 16 at Mon Dec 14 18:18:44 2020.

 ----------------------------------------------------------------------
 # B3LYP/6-311++G(d,p) empiricaldispersion=gd3bj scf=xqc pop=npa geom=c
 heck
 ----------------------------------------------------------------------

 ---------------------------------------
 CID_47095982_JID_10091_Energie_neutraal
 ---------------------------------------
 Structure from the checkpoint file:  "JID_10091.chk"
 Charge =  0 Multiplicity = 1

 SCF Done:  E(RB3LYP) =  -1942.42527421     A.U. after   18 cycles
 Normal termination of Gaussian 16 at Mon Dec 14 18:33:00 2020.

 ----------------------------------------------------------------------
 # B3LYP/6-311++G(d,p) empiricaldispersion=gd3bj scf=xqc pop=npa geom=c
 heck
 ----------------------------------------------------------------------

 -------------------------------------
 CID_47095982_JID_10091_Energie_kation
 -------------------------------------
 Structure from the checkpoint file:  "JID_10091.chk"
 Charge =  1 Multiplicity = 2

 SCF Done:  E(UB3LYP) =  -1942.14129144     A.U. after   25 cycles
 Normal termination of Gaussian 16 at Mon Dec 14 19:02:28 2020.
 Gaussian 16:  ES64L-G16RevA.03 25-Dec-2016

 ----------------------------------------------------------------------
 # B3LYP/6-311++G(d,p) empiricaldispersion=gd3bj scf=xqc pop=npa geom=c
 heck
 ----------------------------------------------------------------------

 ------------------------------------
 CID_47095982_JID_10091_Energie_anion
 ------------------------------------
 Structure from the checkpoint file:  "JID_10091.chk"
 Charge = -1 Multiplicity = 2

                         Standard orientation:
 ---------------------------------------------------------------------
 Center     Atomic      Atomic             Coordinates (Angstroms)
 Number     Number       Type             X           Y           Z
 ---------------------------------------------------------------------
      1          6           0        4.680834   -1.320830   -0.679558
      2          6           0        4.039669   -0.318426   -1.644664
      3          6           0        3.188825    0.786279   -0.982819
      4          6           0        4.125055    1.802002   -0.298226
      5          6           0        3.402019    2.908814    0.468858
      6          6           0        2.426771    2.283607    1.465071
      7          6           0        1.484606    1.345693    0.724453
      8          7           0        2.217468    0.271190    0.018246
      9          6           0        1.481348   -0.854226   -0.339273
     10          8           0        1.406113   -1.279634   -1.479221
     11          6           0        0.970756   -1.769372    0.811627
     12          6           0        0.979211   -1.310610    2.269773
     13         16           0       -0.605829   -2.615720    0.354194
     14          6           0       -1.676586   -1.241423    0.190442
     15          7           0       -1.335860    0.005116    0.341044
     16          7           0       -2.372549    0.885484    0.131234
     17          6           0       -3.486980    0.287749   -0.175881
     18         16           0       -3.373050   -1.472544   -0.240551
     19         16           0       -5.007199    1.100323   -0.510959
     20          6           0       -4.452390    2.830570   -0.313500
     21          1           0        5.293438   -0.831902    0.085359
     22          1           0        5.328640   -2.010890   -1.230792
     23          1           0        3.927046   -1.923519   -0.163633
     24          1           0        4.831065    0.198109   -2.203358
     25          1           0        3.434627   -0.857909   -2.372878
     26          1           0        2.629185    1.305810   -1.777755
     27          1           0        4.771648    2.231782   -1.072298
     28          1           0        4.777897    1.260869    0.397908
     29          1           0        4.128068    3.557001    0.973886
     30          1           0        2.841287    3.542650   -0.232828
     31          1           0        2.977168    1.723323    2.232964
     32          1           0        1.835960    3.052033    1.978050
     33          1           0        0.746650    0.904402    1.382258
     34          1           0        0.910325    1.918562   -0.020971
     35          1           0        1.668632   -2.613693    0.730039
     36          1           0        0.140898   -0.650305    2.496388
     37          1           0        0.907103   -2.184152    2.923952
     38          1           0        1.917050   -0.791668    2.490676
     39          1           0       -4.085712    2.996280    0.700226
     40          1           0       -3.663007    3.056980   -1.031321
     41          1           0       -5.331857    3.448866   -0.506520
 ---------------------------------------------------------------------

 SCF Done:  E(UB3LYP) =  -1942.41893139     A.U. after   33 cycles
 SCF Done:  E(UB3LYP) =  -1942.41893493     a.u. after    2 cycles

 The electronic state is 2-A.
 Alpha  occ. eigenvalues --  -88.76559 -88.76525 -88.75428 -18.99282 -14.23128
 Alpha  occ. eigenvalues --  -14.21716 -14.21356 -10.17385 -10.12849 -10.12528
 Alpha  occ. eigenvalues --  -10.12358 -10.11079 -10.10898 -10.09641 -10.07645
 Alpha  occ. eigenvalues --  -10.07415 -10.07325 -10.07137 -10.06678 -10.06545
 Alpha  occ. eigenvalues --   -7.85183  -7.85105  -7.84033  -5.81518  -5.81493
 Alpha  occ. eigenvalues --   -5.81160  -5.81110  -5.80721  -5.80489  -5.80453
 Alpha  occ. eigenvalues --   -5.80031  -5.79408  -0.94412  -0.90507  -0.83347
 Alpha  occ. eigenvalues --   -0.74747  -0.72207  -0.70850  -0.69510  -0.68597
 Alpha  occ. eigenvalues --   -0.66880  -0.63477  -0.61406  -0.58464  -0.57058
 Alpha  occ. eigenvalues --   -0.54416  -0.54139  -0.50353  -0.48471  -0.47018
 Alpha  occ. eigenvalues --   -0.43544  -0.42669  -0.39717  -0.37976  -0.37036
 Alpha  occ. eigenvalues --   -0.36783  -0.36004  -0.35587  -0.35004  -0.34657
 Alpha  occ. eigenvalues --   -0.33681  -0.33272  -0.32420  -0.31785  -0.31704
 Alpha  occ. eigenvalues --   -0.31155  -0.30388  -0.29573  -0.28629  -0.28435
 Alpha  occ. eigenvalues --   -0.27568  -0.26747  -0.25381  -0.25348  -0.25149
 Alpha  occ. eigenvalues --   -0.24604  -0.23534  -0.22927  -0.22295  -0.21995
 Alpha  occ. eigenvalues --   -0.21687  -0.18500  -0.18449  -0.16271  -0.15121
 Alpha  occ. eigenvalues --   -0.14875  -0.14115  -0.10864   0.04402
 Alpha virt. eigenvalues --    0.05546   0.06494   0.06898   0.07407   0.07844
 Alpha virt. eigenvalues --    0.08778   0.09022   0.09095   0.09154   0.09915
 Alpha virt. eigenvalues --    0.10079   0.10584   0.10994   0.11401   0.11572

  Beta  occ. eigenvalues --  -88.76525 -88.76522 -88.75423 -18.99257 -14.23133
  Beta  occ. eigenvalues --  -14.21699 -14.21350 -10.17338 -10.12489 -10.12358
  Beta  occ. eigenvalues --  -10.12130 -10.11080 -10.10896 -10.09636 -10.07645
  Beta  occ. eigenvalues --  -10.07410 -10.07309 -10.07117 -10.06671 -10.06533
  Beta  occ. eigenvalues --   -7.85151  -7.85105  -7.84028  -5.81526  -5.81485
  Beta  occ. eigenvalues --   -5.81152  -5.81117  -5.80583  -5.80474  -5.80458
  Beta  occ. eigenvalues --   -5.80033  -5.79379  -0.94356  -0.90274  -0.83332
  Beta  occ. eigenvalues --   -0.74454  -0.72086  -0.70771  -0.69472  -0.68411
  Beta  occ. eigenvalues --   -0.66752  -0.63457  -0.61346  -0.58419  -0.56975
  Beta  occ. eigenvalues --   -0.54371  -0.54084  -0.50302  -0.48361  -0.46740
  Beta  occ. eigenvalues --   -0.43449  -0.42412  -0.39668  -0.37923  -0.36998
  Beta  occ. eigenvalues --   -0.36712  -0.35960  -0.35528  -0.34954  -0.34522
  Beta  occ. eigenvalues --   -0.33624  -0.33212  -0.32176  -0.31651  -0.31246
  Beta  occ. eigenvalues --   -0.30883  -0.30280  -0.29546  -0.28556  -0.28366
  Beta  occ. eigenvalues --   -0.27489  -0.26699  -0.25320  -0.25243  -0.25035
  Beta  occ. eigenvalues --   -0.24567  -0.23496  -0.22866  -0.22264  -0.21775
  Beta  occ. eigenvalues --   -0.20759  -0.18429  -0.17835  -0.16226  -0.14992
  Beta  occ. eigenvalues --   -0.14549  -0.14036  -0.10268
  Beta virt. eigenvalues --    0.06206   0.06449   0.07234   0.07507   0.08056
  Beta virt. eigenvalues --    0.08847   0.08867   0.09159   0.09258   0.09445
  Beta virt. eigenvalues --    0.10123   0.10182   0.10595   0.11005   0.11506

 Mulliken charges and spin densities:
               1          2
     1  C    0.103990  -0.566191
     2  C   -0.721418   0.448996
     3  C   -0.173293  -0.047771
     4  C    0.347967  -0.617772
     5  C    0.116282  -0.414019
     6  C   -0.348697   0.144614
     7  C   -0.153075  -0.426343
     8  N    0.440404   0.038641
     9  C   -0.983294  -0.177935
    10  O   -0.127681   0.016032
    11  C    0.767213   0.146820
    12  C   -0.593650  -0.075509
    13  S   -0.069405   0.052071
    14  C    0.215215   0.137344
    15  N   -0.079353  -0.017610
    16  N    0.311768   0.029842
    17  C    0.026557   0.138667
    18  S   -0.442473   0.138210
    19  S   -0.445391   0.035446
    20  C   -0.591103  -0.008880
    21  H   -0.140743   0.265557
    22  H   -0.044510   0.180825
    23  H    0.175162  -0.040285
    24  H   -0.052755   0.197008
    25  H    0.154551   0.047038
    26  H    0.148641   0.054091
    27  H   -0.337784   0.486793
    28  H    0.223840  -0.105997
    29  H   -0.552211   0.745764
    30  H    0.163444  -0.041904
    31  H    0.070310   0.046830
    32  H    0.130940   0.030044
    33  H    0.141458  -0.022154
    34  H    0.186643   0.032075
    35  H    0.197760   0.099556
    36  H    0.197983  -0.003054
    37  H    0.124824  -0.000861
    38  H    0.092224   0.041544
    39  H    0.191926   0.000210
    40  H    0.181347   0.012882
    41  H    0.146387  -0.000614
 Sum of Mulliken charges =  -1.00000   1.00000

 Dipole moment (field-independent basis, Debye):
    X=             -3.0595    Y=              0.0252    Z=              2.5959  Tot=              4.0124
 Quadrupole moment (field-independent basis, Debye-Ang):
   XX=           -234.0681   YY=           -177.8160   ZZ=           -165.9286
   XY=            -21.3886   XZ=              3.7957   YZ=             -5.6549

 Summary of Natural Population Analysis:

                                       Natural Population
                Natural  -----------------------------------------------
    Atom  No    Charge         Core      Valence    Rydberg      Total
 -----------------------------------------------------------------------
      C    1   -0.28529      0.99966     2.28019    0.00544     3.28529
      C    2   -0.19842      0.99961     2.19031    0.00850     3.19842
      C    3    0.00095      0.99958     1.98725    0.01221     2.99905
      C    4   -0.19293      0.99960     2.18357    0.00975     3.19293
      C    5   -0.18961      0.99963     2.18094    0.00904     3.18961
      C    6   -0.19361      0.99962     2.18594    0.00805     3.19361
      C    7   -0.08594      0.99959     2.07631    0.01004     3.08594
      N    8   -0.28489      0.99962     2.77451    0.01075     3.78489
      C    9    0.36814      0.99960     1.60548    0.02677     2.63186
      O   10   -0.30403      0.99987     3.29883    0.00533     4.30403
      C   11   -0.20133      0.99952     2.18642    0.01538     3.20133
      C   12   -0.29503      0.99963     2.28919    0.00621     3.29503
      S   13    0.15194      4.99945     2.82926    0.01934     7.84806
      C   14   -0.00070      0.99961     1.98282    0.01828     3.00070
      N   15   -0.19023      0.99959     2.67337    0.01727     3.69023
      N   16   -0.17586      0.99960     2.66116    0.01511     3.67586
      C   17   -0.01609      0.99962     1.99764    0.01882     3.01609
      S   18    0.17911      4.99938     2.80290    0.01861     7.82089
      S   19    0.12612      4.99948     2.85251    0.02189     7.87388
      C   20   -0.34382      0.99962     2.33843    0.00577     3.34382
      H   21    0.09508      0.00000     0.40395    0.00097     0.40492
      H   22    0.09743      0.00000     0.40186    0.00070     0.40257
      H   23    0.09643      0.00000     0.40249    0.00108     0.40357
      H   24    0.09560      0.00000     0.40337    0.00103     0.40440
      H   25    0.11385      0.00000     0.38510    0.00104     0.38615
      H   26    0.09273      0.00000     0.40572    0.00155     0.40727
      H   27    0.10205      0.00000     0.39657    0.00138     0.39795
      H   28    0.09613      0.00000     0.40235    0.00152     0.40387
      H   29    0.09958      0.00000     0.39920    0.00122     0.40042
      H   30    0.09327      0.00000     0.40553    0.00119     0.40673
      H   31    0.09422      0.00000     0.40451    0.00127     0.40578
      H   32    0.09894      0.00000     0.40027    0.00079     0.40106
      H   33    0.11572      0.00000     0.38279    0.00149     0.38428
      H   34    0.09168      0.00000     0.40656    0.00176     0.40832
      H   35    0.11604      0.00000     0.38237    0.00160     0.38396
      H   36    0.10911      0.00000     0.39000    0.00089     0.39089
      H   37    0.10119      0.00000     0.39805    0.00077     0.39881
      H   38    0.10375      0.00000     0.39508    0.00117     0.39625
      H   39    0.10884      0.00000     0.38991    0.00125     0.39116
      H   40    0.11006      0.00000     0.38871    0.00123     0.38994
      H   41    0.09984      0.00000     0.39939    0.00077     0.40016
 =======================================================================
   * Total *    0.00000     31.99190    55.72085    0.28725    88.00000

 Normal termination of Gaussian 16 at Mon Dec 14 20:19:13 2020.
