 Gaussian 16, Revision A.03,

 -----------------------------------------------------------
 # opt freq B3LYP/6-31G(d) empiricaldispersion=gd3bj scf=xqc
 -----------------------------------------------------------

 ------------------------------
 CID_61001107_JID_5961_neutraal
 ------------------------------
 Symbolic Z-matrix:
 Charge =  0 Multiplicity = 1

 SCF Done:  E(RB3LYP) =  -1032.84156202     A.U. after   15 cycles
 SCF Done:  E(RB3LYP) =  -1032.84650751     A.U. after   13 cycles
 SCF Done:  E(RB3LYP) =  -1032.84268827     A.U. after   13 cycles
 SCF Done:  E(RB3LYP) =  -1032.84501950     A.U. after   13 cycles
 SCF Done:  E(RB3LYP) =  -1032.84711268     A.U. after    9 cycles
 SCF Done:  E(RB3LYP) =  -1032.84813582     A.U. after   13 cycles
 SCF Done:  E(RB3LYP) =  -1032.84818038     A.U. after   13 cycles
 SCF Done:  E(RB3LYP) =  -1032.84835330     A.U. after   12 cycles
 SCF Done:  E(RB3LYP) =  -1032.84835696     A.U. after   11 cycles
 SCF Done:  E(RB3LYP) =  -1032.84837654     A.U. after   10 cycles
 SCF Done:  E(RB3LYP) =  -1032.84837783     A.U. after    7 cycles
 SCF Done:  E(RB3LYP) =  -1032.84837800     A.U. after    7 cycles
 SCF Done:  E(RB3LYP) =  -1032.84837810     A.U. after    7 cycles
 SCF Done:  E(RB3LYP) =  -1032.84837819     A.U. after    7 cycles
 SCF Done:  E(RB3LYP) =  -1032.84837819     A.U. after    6 cycles
 Optimization completed.
    -- Stationary point found.
 Normal termination of Gaussian 16 at Thu Dec 10 17:54:30 2020.

 --------------------------------------------------------------------
 #N Geom=AllCheck Guess=TCheck SCRF=Check GenChk RB3LYP/6-31G(d) Freq
 --------------------------------------------------------------------

 Structure from the checkpoint file:  "JID_5961.chk"
 ------------------------------
 CID_61001107_JID_5961_neutraal
 ------------------------------
 Charge =  0 Multiplicity = 1

 SCF Done:  E(RB3LYP) =  -1032.84837819     A.U. after    1 cycles

  Exact polarizability: 139.362 -17.516 132.281   1.340   2.738 132.132
 Approx polarizability: 181.434 -36.193 202.854   2.871   3.735 241.363

                      1                      2                      3
                      A                      A                      A
 Frequencies --     28.1013                44.8630                61.7881
 Red. masses --      4.6131                 5.2729                 4.1412
 Frc consts  --      0.0021                 0.0063                 0.0093
 IR Inten    --      0.2470                 0.0255                 0.1363

                      4                      5                      6
                      A                      A                      A
 Frequencies --     69.3963                86.1857               110.0438
 Red. masses --      3.4545                 4.1794                 2.9704
 Frc consts  --      0.0098                 0.0183                 0.0212
 IR Inten    --      1.6241                 1.1120                 0.5071

                      7                      8                      9
                      A                      A                      A
 Frequencies --    121.2855               140.6504               146.9652
 Red. masses --      2.2496                 1.6822                 2.4292
 Frc consts  --      0.0195                 0.0196                 0.0309
 IR Inten    --      0.0825                 0.8800                 0.1161

                     10                     11                     12
                      A                      A                      A
 Frequencies --    185.1569               218.5988               240.9114
 Red. masses --      2.3231                 3.9155                 2.9445
 Frc consts  --      0.0469                 0.1102                 0.1007
 IR Inten    --      2.0472                 2.0756                 0.2341

                     13                     14                     15
                      A                      A                      A
 Frequencies --    257.0138               267.1842               312.5036
 Red. masses --      3.9418                 1.6465                 2.0790
 Frc consts  --      0.1534                 0.0693                 0.1196
 IR Inten    --      3.9822                 2.9012                 1.6592

                     16                     17                     18
                      A                      A                      A
 Frequencies --    335.3100               347.8864               442.9274
 Red. masses --      2.7412                 3.2577                 3.6780
 Frc consts  --      0.1816                 0.2323                 0.4251
 IR Inten    --      8.6949                16.8278                 1.1275

                     19                     20                     21
                      A                      A                      A
 Frequencies --    457.8325               479.1818               513.4012
 Red. masses --      4.4633                 3.1732                 4.3411
 Frc consts  --      0.5512                 0.4293                 0.6742
 IR Inten    --      7.7836                 1.8439                 4.7110

                     22                     23                     24
                      A                      A                      A
 Frequencies --    569.3440               612.9306               677.4081
 Red. masses --      3.4925                 4.4853                 2.6220
 Frc consts  --      0.6670                 0.9928                 0.7089
 IR Inten    --      1.0054                 3.0658                12.7521

                     25                     26                     27
                      A                      A                      A
 Frequencies --    700.5234               731.0525               749.5862
 Red. masses --      1.2683                 3.1739                 6.7675
 Frc consts  --      0.3667                 0.9994                 2.2404
 IR Inten    --     54.5981                10.4289                 1.3424

                     28                     29                     30
                      A                      A                      A
 Frequencies --    757.0988               777.9663               819.0157
 Red. masses --      3.1371                 1.4804                 1.9836
 Frc consts  --      1.0595                 0.5279                 0.7839
 IR Inten    --     21.7546                 9.3638               118.5376

                     31                     32                     33
                      A                      A                      A
 Frequencies --    838.4217               865.0914               868.1610
 Red. masses --      1.4957                 2.2861                 3.4844
 Frc consts  --      0.6195                 1.0080                 1.5473
 IR Inten    --     14.5458                 6.6730                 8.6811

                     34                     35                     36
                      A                      A                      A
 Frequencies --    889.0881               905.3936               933.8950
 Red. masses --      2.7266                 1.3211                 1.9213
 Frc consts  --      1.2699                 0.6381                 0.9873
 IR Inten    --      1.9513                 0.2984                 3.7211

                     37                     38                     39
                      A                      A                      A
 Frequencies --    939.7906              1007.8396              1029.3471
 Red. masses --      1.8957                 2.2645                 2.6701
 Frc consts  --      0.9864                 1.3552                 1.6668
 IR Inten    --      5.8258                13.6199                23.1400

                     40                     41                     42
                      A                      A                      A
 Frequencies --   1047.6009              1075.8528              1095.2937
 Red. masses --      2.4719                 1.9388                 1.9446
 Frc consts  --      1.5984                 1.3222                 1.3745
 IR Inten    --      6.4800                 2.6354                 5.7253

                     43                     44                     45
                      A                      A                      A
 Frequencies --   1113.9268              1133.2065              1141.7649
 Red. masses --      1.3158                 2.3675                 1.7826
 Frc consts  --      0.9619                 1.7913                 1.3692
 IR Inten    --      6.4979                22.2913                 7.3928

                     46                     47                     48
                      A                      A                      A
 Frequencies --   1155.4748              1179.3888              1187.8690
 Red. masses --      2.6028                 2.8199                 1.2876
 Frc consts  --      2.0474                 2.3110                 1.0705
 IR Inten    --     35.5602                 8.0333                 0.7223

                     49                     50                     51
                      A                      A                      A
 Frequencies --   1210.7566              1234.3169              1246.3400
 Red. masses --      1.8091                 2.0066                 1.3694
 Frc consts  --      1.5625                 1.8012                 1.2533
 IR Inten    --     55.7987               106.7310                 0.1724

                     52                     53                     54
                      A                      A                      A
 Frequencies --   1269.0194              1296.1058              1325.3796
 Red. masses --      1.5874                 1.2817                 1.2969
 Frc consts  --      1.5062                 1.2685                 1.3423
 IR Inten    --     81.2541                 4.9949                 7.7391

                     55                     56                     57
                      A                      A                      A
 Frequencies --   1363.4362              1374.8466              1386.4144
 Red. masses --      1.2491                 1.5528                 1.4997
 Frc consts  --      1.3681                 1.7293                 1.6984
 IR Inten    --      5.0073                23.6520                19.7083

                     58                     59                     60
                      A                      A                      A
 Frequencies --   1398.4266              1407.8094              1423.1863
 Red. masses --      1.4225                 1.6296                 1.4316
 Frc consts  --      1.6390                 1.9029                 1.7084
 IR Inten    --      2.4592                 7.3898                 4.1702

                     61                     62                     63
                      A                      A                      A
 Frequencies --   1443.9445              1488.8987              1489.9847
 Red. masses --      1.2611                 2.6541                 1.5470
 Frc consts  --      1.5492                 3.4666                 2.0235
 IR Inten    --      7.8287                13.4818                 3.4154

                     64                     65                     66
                      A                      A                      A
 Frequencies --   1502.1078              1510.2771              1512.7970
 Red. masses --      1.1329                 1.0882                 1.0487
 Frc consts  --      1.5061                 1.4625                 1.4140
 IR Inten    --      1.9826                 6.1726                 4.0363

                     67                     68                     69
                      A                      A                      A
 Frequencies --   1521.3833              1523.5565              1530.6107
 Red. masses --      1.0477                 1.0579                 1.2019
 Frc consts  --      1.4288                 1.4468                 1.6591
 IR Inten    --      4.2319                 0.2097                16.0353

                     70                     71                     72
                      A                      A                      A
 Frequencies --   1533.6821              1547.0141              1597.3634
 Red. masses --      1.0754                 1.0655                 4.8821
 Frc consts  --      1.4904                 1.5024                 7.3395
 IR Inten    --      1.9111                 7.7567                 0.3551

                     73                     74                     75
                      A                      A                      A
 Frequencies --   1810.3920              3038.8536              3046.9981
 Red. masses --     10.6305                 1.0616                 1.0383
 Frc consts  --     20.5281                 5.7761                 5.6796
 IR Inten    --    133.3367                22.0913                27.5792

                     76                     77                     78
                      A                      A                      A
 Frequencies --   3051.1814              3053.0189              3071.3130
 Red. masses --      1.0639                 1.0604                 1.0976
 Frc consts  --      5.8357                 5.8235                 6.0999
 IR Inten    --     12.1112                39.6257                35.1719

                     79                     80                     81
                      A                      A                      A
 Frequencies --   3080.8870              3093.0892              3094.5571
 Red. masses --      1.0295                 1.1005                 1.1029
 Frc consts  --      5.7577                 6.2036                 6.2225
 IR Inten    --     27.6663                15.5038                 7.7072

                     82                     83                     84
                      A                      A                      A
 Frequencies --   3109.7433              3112.5609              3129.2401
 Red. masses --      1.0997                 1.0920                 1.1007
 Frc consts  --      6.2656                 6.2332                 6.3501
 IR Inten    --     35.6397                35.7247                39.5434

                     85                     86                     87
                      A                      A                      A
 Frequencies --   3161.7957              3187.2393              3213.6210
 Red. masses --      1.1067                 1.1078                 1.0884
 Frc consts  --      6.5183                 6.6306                 6.6227
 IR Inten    --     15.7043                12.6914                 6.4402

                     88                     89                     90
                      A                      A                      A
 Frequencies --   3227.5997              3270.5163              3488.6172
 Red. masses --      1.0956                 1.0967                 1.0735
 Frc consts  --      6.7247                 6.9114                 7.6979
 IR Inten    --      5.0981                 1.1895                 2.9272

 - Thermochemistry -
 -------------------
 Temperature   298.150 Kelvin.  Pressure   1.00000 Atm.
 Atom     1 has atomic number  6 and mass  12.00000

 Molecular mass:   227.09800 amu.
 Principal axes and moments of inertia in atomic units:
                           1         2         3
     Eigenvalues --  2148.596054629.545195081.62995
           X            0.99964  -0.00882   0.02528
           Y            0.00820   0.99966   0.02483
           Z           -0.02549  -0.02462   0.99937
 This molecule is an asymmetric top.
 Rotational symmetry number  1.
 Warning -- assumption of classical behavior for rotation
           may cause significant error
 Rotational temperatures (Kelvin)      0.04031     0.01871     0.01704
 Rotational constants (GHZ):           0.83996     0.38983     0.35515
 Zero-point vibrational energy     712067.6 (Joules/Mol)
                                  170.18823 (Kcal/Mol)
 Warning -- explicit consideration of  23 degrees of freedom as
           vibrations may cause significant error
 Vibrational temperatures:     40.43    64.55    88.90    99.85   124.00
          (Kelvin)            158.33   174.50   202.36   211.45   266.40
                              314.51   346.62   369.79   384.42   449.62
                              482.44   500.53   637.27   658.72   689.44
                              738.67   819.16   881.87   974.64  1007.90
                             1051.82  1078.49  1089.30  1119.32  1178.38
                             1206.30  1244.67  1249.09  1279.20  1302.66
                             1343.67  1352.15  1450.06  1481.00  1507.26
                             1547.91  1575.88  1602.69  1630.43  1642.74
                             1662.47  1696.88  1709.08  1742.01  1775.91
                             1793.21  1825.84  1864.81  1906.93  1961.68
                             1978.10  1994.74  2012.02  2025.52  2047.65
                             2077.51  2142.19  2143.76  2161.20  2172.95
                             2176.58  2188.93  2192.06  2202.21  2206.63
                             2225.81  2298.25  2604.75  4372.23  4383.95
                             4389.97  4392.61  4418.93  4432.71  4450.27
                             4452.38  4474.23  4478.28  4502.28  4549.12
                             4585.73  4623.68  4643.80  4705.54  5019.34

 Zero-point correction=                           0.271212 (Hartree/Particle)
 Thermal correction to Energy=                    0.287400
 Thermal correction to Enthalpy=                  0.288344
 Thermal correction to Gibbs Free Energy=         0.226317
 Sum of electronic and zero-point Energies=          -1032.577166
 Sum of electronic and thermal Energies=             -1032.560978
 Sum of electronic and thermal Enthalpies=           -1032.560034
 Sum of electronic and thermal Free Energies=        -1032.622062

                     E (Thermal)             CV                S
                      KCal/Mol        Cal/Mol-Kelvin    Cal/Mol-Kelvin
 Total                  180.346             59.065            130.549
 Electronic               0.000              0.000              0.000
 Translational            0.889              2.981             42.163
 Rotational               0.889              2.981             32.291
 Vibrational            178.569             53.103             56.094
 Vibration     1          0.593              1.984              5.959
 Vibration     2          0.595              1.979              5.032
 Vibration     3          0.597              1.973              4.399
 Vibration     4          0.598              1.969              4.170
 Vibration     5          0.601              1.959              3.745
 Vibration     6          0.606              1.941              3.268
 Vibration     7          0.609              1.931              3.080
 Vibration     8          0.615              1.913              2.795
 Vibration     9          0.617              1.906              2.711
 Vibration    10          0.631              1.860              2.276
 Vibration    11          0.646              1.813              1.971
 Vibration    12          0.658              1.778              1.796
 Vibration    13          0.667              1.751              1.682
 Vibration    14          0.672              1.733              1.614
 Vibration    15          0.701              1.650              1.349
 Vibration    16          0.716              1.605              1.234
 Vibration    17          0.726              1.580              1.176
 Vibration    18          0.803              1.376              0.817
 Vibration    19          0.816              1.344              0.772
 Vibration    20          0.836              1.296              0.712
 Vibration    21          0.868              1.220              0.625
 Vibration    22          0.925              1.098              0.506
 Vibration    23          0.972              1.004              0.428

 Optimization completed.
    -- Stationary point found.
 Normal termination of Gaussian 16 at Thu Dec 10 18:06:38 2020.

 ----------------------------------------------------------------------
 # B3LYP/6-311++G(d,p) empiricaldispersion=gd3bj scf=xqc pop=npa geom=c
 heck
 ----------------------------------------------------------------------

 --------------------------------------
 CID_61001107_JID_5961_Energie_neutraal
 --------------------------------------
 Structure from the checkpoint file:  "JID_5961.chk"
 Charge =  0 Multiplicity = 1

 SCF Done:  E(RB3LYP) =  -1033.05827167     A.U. after   16 cycles
 Normal termination of Gaussian 16 at Thu Dec 10 18:12:46 2020.

 ----------------------------------------------------------------------
 # B3LYP/6-311++G(d,p) empiricaldispersion=gd3bj scf=xqc pop=npa geom=c
 heck
 ----------------------------------------------------------------------

 ------------------------------------
 CID_61001107_JID_5961_Energie_kation
 ------------------------------------
 Structure from the checkpoint file:  "JID_5961.chk"
 Charge =  1 Multiplicity = 2

 SCF Done:  E(UB3LYP) =  -1032.76132006     A.U. after   27 cycles
 Normal termination of Gaussian 16 at Thu Dec 10 18:27:16 2020.
 Gaussian 16:  ES64L-G16RevA.03 25-Dec-2016

 ----------------------------------------------------------------------
 # B3LYP/6-311++G(d,p) empiricaldispersion=gd3bj scf=xqc pop=npa geom=c
 heck
 ----------------------------------------------------------------------

 -----------------------------------
 CID_61001107_JID_5961_Energie_anion
 -----------------------------------
 Structure from the checkpoint file:  "JID_5961.chk"
 Charge = -1 Multiplicity = 2

                         Standard orientation:
 ---------------------------------------------------------------------
 Center     Atomic      Atomic             Coordinates (Angstroms)
 Number     Number       Type             X           Y           Z
 ---------------------------------------------------------------------
      1          6           0        3.513938    0.418077    1.679215
      2          6           0        3.635572    0.181245    0.170530
      3          6           0        2.769698   -0.972955   -0.352948
      4          6           0        1.256225   -0.816995   -0.110546
      5          6           0        0.787128    0.492515   -0.743498
      6          8           0        0.661183    0.646839   -1.941770
      7          8           0        0.572383    1.461856    0.164816
      8          6           0        0.121745    2.718087   -0.370770
      9          7           0        0.552975   -1.964902   -0.682981
     10          6           0       -0.770956   -2.229180   -0.107034
     11          6           0       -1.731586   -1.062156   -0.041317
     12          6           0       -2.309769   -0.367408   -1.073117
     13          6           0       -3.107475    0.734151   -0.640296
     14          6           0       -3.128390    0.870442    0.722259
     15         16           0       -2.170609   -0.350936    1.491391
     16          1           0        2.512602    0.768761    1.948392
     17          1           0        4.230345    1.175375    2.016336
     18          1           0        3.713996   -0.503530    2.239946
     19          1           0        3.383997    1.106011   -0.365939
     20          1           0        4.680645   -0.037748   -0.082318
     21          1           0        2.923272   -1.085975   -1.433491
     22          1           0        3.071368   -1.918045    0.113172
     23          1           0        1.051976   -0.784773    0.962783
     24          1           0        0.856845    3.120385   -1.072433
     25          1           0       -0.833981    2.581546   -0.880461
     26          1           0        0.007229    3.376717    0.490009
     27          1           0        0.467104   -1.802014   -1.685726
     28          1           0       -1.218483   -3.036031   -0.698341
     29          1           0       -0.621629   -2.630866    0.902169
     30          1           0       -2.146394   -0.619442   -2.115302
     31          1           0       -3.646731    1.391022   -1.314301
     32          1           0       -3.658547    1.603394    1.314859
 ---------------------------------------------------------------------

 SCF Done:  E(UB3LYP) =  -1033.04272324     A.U. after   33 cycles
 SCF Done:  E(UB3LYP) =  -1033.04272324     a.u. after    1 cycles

 The electronic state is 2-A.
 Alpha  occ. eigenvalues --  -88.77368 -19.06973 -19.01262 -14.21391 -10.19768
 Alpha  occ. eigenvalues --  -10.12004 -10.11755 -10.11542 -10.09960 -10.09335
 Alpha  occ. eigenvalues --  -10.07621 -10.07536 -10.07507 -10.07024 -10.05798
 Alpha  occ. eigenvalues --   -7.85991  -5.82267  -5.81906  -5.81612  -1.00939
 Alpha  occ. eigenvalues --   -0.92238  -0.82794  -0.77885  -0.70670  -0.65957
 Alpha  occ. eigenvalues --   -0.64092  -0.63463  -0.61063  -0.57128  -0.54345
 Alpha  occ. eigenvalues --   -0.49295  -0.46656  -0.45792  -0.44315  -0.43365
 Alpha  occ. eigenvalues --   -0.41054  -0.39104  -0.38702  -0.36741  -0.36416
 Alpha  occ. eigenvalues --   -0.35206  -0.33333  -0.32745  -0.31815  -0.30284
 Alpha  occ. eigenvalues --   -0.30115  -0.29685  -0.29158  -0.27822  -0.27299
 Alpha  occ. eigenvalues --   -0.26452  -0.25604  -0.24468  -0.24122  -0.23948
 Alpha  occ. eigenvalues --   -0.23206  -0.21165  -0.18745  -0.15498  -0.15267
 Alpha  occ. eigenvalues --   -0.13306   0.04593
 Alpha virt. eigenvalues --    0.06234   0.06413   0.07644   0.07974   0.08209
 Alpha virt. eigenvalues --    0.08741   0.09145   0.09641   0.10004   0.10675
 Alpha virt. eigenvalues --    0.11060   0.11184   0.11832   0.12244   0.12544

  Beta  occ. eigenvalues --  -88.77357 -19.06957 -19.01242 -14.21377 -10.19745
  Beta  occ. eigenvalues --  -10.12008 -10.11720 -10.11543 -10.09898 -10.09233
  Beta  occ. eigenvalues --  -10.07616 -10.07522 -10.07500 -10.07003 -10.05771
  Beta  occ. eigenvalues --   -7.85980  -5.82261  -5.81902  -5.81576  -1.00902
  Beta  occ. eigenvalues --   -0.92203  -0.82763  -0.77803  -0.70641  -0.65896
  Beta  occ. eigenvalues --   -0.64020  -0.63385  -0.61000  -0.57078  -0.54299
  Beta  occ. eigenvalues --   -0.49224  -0.46553  -0.45720  -0.44250  -0.43318
  Beta  occ. eigenvalues --   -0.40990  -0.39046  -0.38666  -0.36692  -0.36384
  Beta  occ. eigenvalues --   -0.35171  -0.33291  -0.32707  -0.31763  -0.30223
  Beta  occ. eigenvalues --   -0.30074  -0.29624  -0.29114  -0.27732  -0.27181
  Beta  occ. eigenvalues --   -0.26404  -0.25555  -0.24391  -0.24088  -0.23910
  Beta  occ. eigenvalues --   -0.23174  -0.21085  -0.18719  -0.15334  -0.15163
  Beta  occ. eigenvalues --   -0.12997
  Beta virt. eigenvalues --    0.06632   0.06939   0.07469   0.08019   0.08298
  Beta virt. eigenvalues --    0.08892   0.09214   0.09442   0.09820   0.10227
  Beta virt. eigenvalues --    0.10706   0.11386   0.11775   0.12123   0.12463

 Mulliken charges and spin densities:
               1          2
     1  C    0.802957  -1.437796
     2  C   -0.462702   0.419150
     3  C   -0.140966  -0.152240
     4  C   -0.300203  -0.516381
     5  C   -0.541907   0.180853
     6  O   -0.158008   0.022131
     7  O    0.085265   0.053754
     8  C    0.601542  -0.852224
     9  N    0.209769   0.021126
    10  C   -0.337888  -0.166252
    11  C    0.914684  -0.346686
    12  C   -1.373958   0.791226
    13  C    1.085157  -1.248784
    14  C   -0.302945  -0.126699
    15  S    0.450546  -0.236199
    16  H   -0.095352   0.269077
    17  H   -0.427765   0.569141
    18  H   -0.018094   0.140596
    19  H    0.084967   0.072394
    20  H   -0.519303   0.700295
    21  H    0.109197   0.020079
    22  H    0.044578   0.146272
    23  H    0.355676  -0.107377
    24  H   -0.150124   0.321043
    25  H    0.064372   0.120533
    26  H   -0.417663   0.575209
    27  H    0.277597   0.004042
    28  H    0.196498  -0.006093
    29  H    0.112646   0.032533
    30  H    0.135666   0.030331
    31  H   -0.283751   0.449164
    32  H   -1.000489   1.257780
 Sum of Mulliken charges =  -1.00000   1.00000

 Dipole moment (field-independent basis, Debye):
    X=             -1.3788    Y=             -6.7173    Z=             -2.5385  Tot=              7.3121
 Quadrupole moment (field-independent basis, Debye-Ang):
   XX=           -184.5170   YY=           -143.1626   ZZ=           -132.6078
   XY=              9.6415   XZ=             -0.7411   YZ=             -4.5525

 Summary of Natural Population Analysis:

                                       Natural Population
                Natural  -----------------------------------------------
    Atom  No    Charge         Core      Valence    Rydberg      Total
 -----------------------------------------------------------------------
      C    1   -0.28933      0.99967     2.28413    0.00553     3.28933
      C    2   -0.19396      0.99964     2.18584    0.00849     3.19396
      C    3   -0.18446      0.99961     2.17396    0.01089     3.18446
      C    4   -0.05690      0.99953     2.04392    0.01344     3.05690
      C    5    0.41093      0.99966     1.56029    0.02912     2.58907
      O    6   -0.31629      0.99987     3.31090    0.00552     4.31629
      O    7   -0.27437      0.99985     3.26442    0.01009     4.27437
      C    8   -0.10526      0.99958     2.09628    0.00940     3.10526
      N    9   -0.33104      0.99975     2.82028    0.01101     3.83104
      C   10   -0.09991      0.99957     2.08878    0.01156     3.09991
      C   11   -0.11275      0.99949     2.10023    0.01303     3.11275
      C   12   -0.12453      0.99945     2.11442    0.01066     3.12453
      C   13   -0.13252      0.99953     2.12106    0.01193     3.13252
      C   14   -0.18037      0.99954     2.16786    0.01297     3.18037
      S   15    0.21263      4.99938     2.76748    0.02051     7.78737
      H   16    0.10189      0.00000     0.39661    0.00150     0.39811
      H   17    0.10095      0.00000     0.39784    0.00121     0.39905
      H   18    0.09327      0.00000     0.40566    0.00107     0.40673
      H   19    0.09599      0.00000     0.40272    0.00129     0.40401
      H   20    0.09771      0.00000     0.40101    0.00127     0.40229
      H   21    0.10055      0.00000     0.39824    0.00122     0.39945
      H   22    0.10035      0.00000     0.39820    0.00145     0.39965
      H   23    0.10591      0.00000     0.39205    0.00204     0.39409
      H   24    0.08967      0.00000     0.40905    0.00128     0.41033
      H   25    0.09604      0.00000     0.40239    0.00158     0.40396
      H   26    0.09476      0.00000     0.40354    0.00170     0.40524
      H   27    0.17871      0.00000     0.31907    0.00222     0.32129
      H   28    0.10014      0.00000     0.39874    0.00113     0.39986
      H   29    0.09540      0.00000     0.40353    0.00107     0.40460
      H   30    0.10674      0.00000     0.39232    0.00094     0.39326
      H   31    0.10755      0.00000     0.39131    0.00113     0.39245
      H   32    0.11253      0.00000     0.38451    0.00295     0.38747
 =======================================================================
   * Total *    0.00000     18.99413    41.79666    0.20921    61.00000

 Normal termination of Gaussian 16 at Thu Dec 10 18:45:25 2020.
