 Gaussian 16, Revision A.03,

 -----------------------------------------------------------
 # opt freq B3LYP/6-31G(d) empiricaldispersion=gd3bj scf=xqc
 -----------------------------------------------------------

 ------------------------------
 CID_87174201_JID_4126_neutraal
 ------------------------------
 Symbolic Z-matrix:
 Charge =  0 Multiplicity = 1

 SCF Done:  E(RB3LYP) =  -575.189559778     A.U. after   14 cycles
 SCF Done:  E(RB3LYP) =  -575.199714563     A.U. after   12 cycles
 SCF Done:  E(RB3LYP) =  -575.201102896     A.U. after   12 cycles
 SCF Done:  E(RB3LYP) =  -575.201424228     A.U. after   11 cycles
 SCF Done:  E(RB3LYP) =  -575.201501499     A.U. after   11 cycles
 SCF Done:  E(RB3LYP) =  -575.201556680     A.U. after   10 cycles
 SCF Done:  E(RB3LYP) =  -575.201571103     A.U. after   10 cycles
 SCF Done:  E(RB3LYP) =  -575.201572532     A.U. after    8 cycles
 SCF Done:  E(RB3LYP) =  -575.201572845     A.U. after    8 cycles
 SCF Done:  E(RB3LYP) =  -575.201572900     A.U. after    7 cycles
 Optimization completed.
    -- Stationary point found.
 Normal termination of Gaussian 16 at Thu Dec 10 09:16:26 2020.

 --------------------------------------------------------------------
 #N Geom=AllCheck Guess=TCheck SCRF=Check GenChk RB3LYP/6-31G(d) Freq
 --------------------------------------------------------------------

 Structure from the checkpoint file:  "JID_4126.chk"
 ------------------------------
 CID_87174201_JID_4126_neutraal
 ------------------------------
 Charge =  0 Multiplicity = 1

 SCF Done:  E(RB3LYP) =  -575.201572900     A.U. after    1 cycles

  Exact polarizability: 165.465  15.933 129.193  14.654 -12.766  88.901
 Approx polarizability: 228.498  32.233 227.628  25.874 -31.345 141.193

                      1                      2                      3
                      A                      A                      A
 Frequencies --     38.2207                54.6012               107.0948
 Red. masses --      4.4573                 3.8702                 3.3188
 Frc consts  --      0.0038                 0.0068                 0.0224
 IR Inten    --      0.7334                 0.3731                 0.5392

                      4                      5                      6
                      A                      A                      A
 Frequencies --    143.9087               169.9941               210.2319
 Red. masses --      4.6101                 4.5073                 3.0821
 Frc consts  --      0.0563                 0.0767                 0.0803
 IR Inten    --      1.0019                 0.0705                 1.2832

                      7                      8                      9
                      A                      A                      A
 Frequencies --    231.4710               311.1721               412.9430
 Red. masses --      2.5416                 3.8144                 3.2117
 Frc consts  --      0.0802                 0.2176                 0.3227
 IR Inten    --     11.3061                 4.8287                 3.4556

                     10                     11                     12
                      A                      A                      A
 Frequencies --    416.3958               419.2647               455.5113
 Red. masses --      3.0812                 3.7394                 4.2293
 Frc consts  --      0.3148                 0.3873                 0.5170
 IR Inten    --      1.1058                 0.0888                 7.0048

                     13                     14                     15
                      A                      A                      A
 Frequencies --    526.2257               612.7148               635.8026
 Red. masses --      3.7072                 3.7212                 6.3533
 Frc consts  --      0.6048                 0.8231                 1.5132
 IR Inten    --      6.8033                 2.4728                 0.1468

                     16                     17                     18
                      A                      A                      A
 Frequencies --    654.4505               691.4076               696.4939
 Red. masses --      2.8511                 3.3906                 4.3421
 Frc consts  --      0.7195                 0.9550                 1.2410
 IR Inten    --      6.6662                 7.5466                 5.1031

                     19                     20                     21
                      A                      A                      A
 Frequencies --    712.2574               749.7637               783.4793
 Red. masses --      1.8086                 2.0509                 2.8237
 Frc consts  --      0.5406                 0.6793                 1.0212
 IR Inten    --     43.3077                 5.2987                 3.0825

                     22                     23                     24
                      A                      A                      A
 Frequencies --    814.5443               851.0589               865.9017
 Red. masses --      2.1422                 2.2736                 1.2917
 Frc consts  --      0.8374                 0.9702                 0.5706
 IR Inten    --      8.2080                10.1007                 9.0330

                     25                     26                     27
                      A                      A                      A
 Frequencies --    868.4755               893.7594               922.6864
 Red. masses --      2.0191                 2.6627                 1.2700
 Frc consts  --      0.8973                 1.2532                 0.6370
 IR Inten    --    124.8155                 9.8472                14.3641

                     28                     29                     30
                      A                      A                      A
 Frequencies --    926.7554               936.7656               958.5108
 Red. masses --      2.1459                 1.3263                 1.3895
 Frc consts  --      1.0859                 0.6857                 0.7522
 IR Inten    --      1.5120                15.7723                29.8052

                     31                     32                     33
                      A                      A                      A
 Frequencies --    981.9176              1006.4865              1014.5465
 Red. masses --      1.3345                 1.2833                 3.4467
 Frc consts  --      0.7581                 0.7660                 2.0903
 IR Inten    --      0.7379                 1.2643                20.4750

                     34                     35                     36
                      A                      A                      A
 Frequencies --   1022.0378              1028.8741              1032.5320
 Red. masses --      5.4950                 3.0811                 1.6270
 Frc consts  --      3.3818                 1.9217                 1.0220
 IR Inten    --      2.1323                 6.0520                 9.1046

                     37                     38                     39
                      A                      A                      A
 Frequencies --   1060.3674              1064.3561              1107.6451
 Red. masses --      2.2951                 2.1192                 2.2404
 Frc consts  --      1.5204                 1.4145                 1.6195
 IR Inten    --     17.8073                 8.5741                 2.1538

                     40                     41                     42
                      A                      A                      A
 Frequencies --   1115.9415              1120.8607              1133.7136
 Red. masses --      1.5196                 1.2877                 1.8996
 Frc consts  --      1.1150                 0.9532                 1.4386
 IR Inten    --      3.1891                 1.9180                11.3124

                     43                     44                     45
                      A                      A                      A
 Frequencies --   1187.0938              1194.7911              1206.0540
 Red. masses --      1.5935                 1.1528                 1.2768
 Frc consts  --      1.3230                 0.9696                 1.0942
 IR Inten    --     32.2401                 0.9722                30.4107

                     46                     47                     48
                      A                      A                      A
 Frequencies --   1222.1373              1231.0499              1317.3997
 Red. masses --      1.3455                 1.2636                 1.2674
 Frc consts  --      1.1841                 1.1282                 1.2960
 IR Inten    --     13.3011                 2.5641                 0.3181

                     49                     50                     51
                      A                      A                      A
 Frequencies --   1331.8525              1341.0956              1357.2643
 Red. masses --      1.3832                 1.7315                 1.4959
 Frc consts  --      1.4456                 1.8349                 1.6236
 IR Inten    --      6.6631                13.7387                12.8222

                     52                     53                     54
                      A                      A                      A
 Frequencies --   1359.4873              1370.1521              1370.9752
 Red. masses --      1.4288                 2.9298                 1.3905
 Frc consts  --      1.5558                 3.2406                 1.5398
 IR Inten    --      2.7112                 0.9309                 5.1441

                     55                     56                     57
                      A                      A                      A
 Frequencies --   1402.8583              1438.4324              1494.3028
 Red. masses --      1.8606                 2.7139                 1.1983
 Frc consts  --      2.1574                 3.3085                 1.5765
 IR Inten    --     23.2785                45.2600                 8.9096

                     58                     59                     60
                      A                      A                      A
 Frequencies --   1498.8576              1527.3073              1536.7712
 Red. masses --      2.0288                 1.0796                 1.0947
 Frc consts  --      2.6854                 1.4837                 1.5232
 IR Inten    --     22.8660                 1.9207                 3.2791

                     61                     62                     63
                      A                      A                      A
 Frequencies --   1545.7473              1637.1196              1663.7563
 Red. masses --      2.2618                 5.4805                 5.5942
 Frc consts  --      3.1841                 8.6543                 9.1237
 IR Inten    --      3.2213                11.8899                 7.3558

                     64                     65                     66
                      A                      A                      A
 Frequencies --   1691.0000              3072.9060              3083.3855
 Red. masses --     10.0537                 1.0625                 1.0597
 Frc consts  --     16.9381                 5.9110                 5.9362
 IR Inten    --     54.5772                33.8982                28.7462

                     67                     68                     69
                      A                      A                      A
 Frequencies --   3116.9400              3121.0417              3124.1512
 Red. masses --      1.0869                 1.1034                 1.1071
 Frc consts  --      6.2216                 6.3325                 6.3667
 IR Inten    --      6.0782                22.3804                21.4733

                     70                     71                     72
                      A                      A                      A
 Frequencies --   3169.6364              3181.5250              3183.6901
 Red. masses --      1.0897                 1.0930                 1.0854
 Frc consts  --      6.4503                 6.5184                 6.4817
 IR Inten    --     15.8297                30.0358                 0.0573

                     73                     74                     75
                      A                      A                      A
 Frequencies --   3194.4485              3207.1291              3226.2661
 Red. masses --      1.0899                 1.0951                 1.0919
 Frc consts  --      6.5525                 6.6362                 6.6962
 IR Inten    --     18.9154                33.9496                10.0218

                     76                     77                     78
                      A                      A                      A
 Frequencies --   3232.5348              3433.0345              3461.3684
 Red. masses --      1.0925                 1.0744                 1.0745
 Frc consts  --      6.7260                 7.4602                 7.5847
 IR Inten    --      3.7871                 2.4559                 3.1529

 - Thermochemistry -
 -------------------
 Temperature   298.150 Kelvin.  Pressure   1.00000 Atm.
 Atom     1 has atomic number  6 and mass  12.00000

 Molecular mass:   186.11570 amu.
 Principal axes and moments of inertia in atomic units:
                           1         2         3
     Eigenvalues --  1240.695933988.870804366.59653
           X            0.99998   0.00347   0.00476
           Y           -0.00330   0.99937  -0.03544
           Z           -0.00488   0.03542   0.99936
 This molecule is an asymmetric top.
 Rotational symmetry number  1.
 Warning -- assumption of classical behavior for rotation
           may cause significant error
 Rotational temperatures (Kelvin)      0.06981     0.02171     0.01984
 Rotational constants (GHZ):           1.45462     0.45244     0.41331
 Zero-point vibrational energy     630998.5 (Joules/Mol)
                                  150.81225 (Kcal/Mol)
 Warning -- explicit consideration of  14 degrees of freedom as
           vibrations may cause significant error
 Vibrational temperatures:     54.99    78.56   154.09   207.05   244.58
          (Kelvin)            302.48   333.04   447.71   594.13   599.10
                              603.23   655.38   757.12   881.56   914.78
                              941.61   994.78  1002.10  1024.78  1078.74
                             1127.25  1171.95  1224.48  1245.84  1249.54
                             1285.92  1327.54  1333.39  1347.80  1379.08
                             1412.76  1448.11  1459.71  1470.48  1480.32
                             1485.58  1525.63  1531.37  1593.65  1605.59
                             1612.67  1631.16  1707.96  1719.04  1735.24
                             1758.38  1771.21  1895.44  1916.24  1929.54
                             1952.80  1956.00  1971.34  1972.53  2018.40
                             2069.58  2149.97  2156.52  2197.45  2211.07
                             2223.99  2355.45  2393.77  2432.97  4421.23
                             4436.30  4484.58  4490.48  4494.96  4560.40
                             4577.50  4580.62  4596.10  4614.34  4641.88
                             4650.90  4939.37  4980.14

 Zero-point correction=                           0.240335 (Hartree/Particle)
 Thermal correction to Energy=                    0.251644
 Thermal correction to Enthalpy=                  0.252588
 Thermal correction to Gibbs Free Energy=         0.202163
 Sum of electronic and zero-point Energies=           -574.961238
 Sum of electronic and thermal Energies=              -574.949929
 Sum of electronic and thermal Enthalpies=            -574.948985
 Sum of electronic and thermal Free Energies=         -574.999410

                     E (Thermal)             CV                S
                      KCal/Mol        Cal/Mol-Kelvin    Cal/Mol-Kelvin
 Total                  157.909             45.568            106.128
 Electronic               0.000              0.000              0.000
 Translational            0.889              2.981             41.570
 Rotational               0.889              2.981             31.447
 Vibrational            156.131             39.607             33.111
 Vibration     1          0.594              1.982              5.349
 Vibration     2          0.596              1.976              4.643
 Vibration     3          0.606              1.944              3.321
 Vibration     4          0.616              1.909              2.751
 Vibration     5          0.625              1.879              2.436
 Vibration     6          0.642              1.825              2.042
 Vibration     7          0.653              1.793              1.868
 Vibration     8          0.700              1.652              1.356
 Vibration     9          0.777              1.442              0.916
 Vibration    10          0.780              1.435              0.904
 Vibration    11          0.782              1.428              0.894
 Vibration    12          0.814              1.349              0.779
 Vibration    13          0.881              1.192              0.596
 Vibration    14          0.972              1.005              0.428

 Optimization completed.
    -- Stationary point found.
 Normal termination of Gaussian 16 at Thu Dec 10 09:24:42 2020.

 ----------------------------------------------------------------------
 # B3LYP/6-311++G(d,p) empiricaldispersion=gd3bj scf=xqc pop=npa geom=c
 heck
 ----------------------------------------------------------------------

 --------------------------------------
 CID_87174201_JID_4126_Energie_neutraal
 --------------------------------------
 Structure from the checkpoint file:  "JID_4126.chk"
 Charge =  0 Multiplicity = 1

 SCF Done:  E(RB3LYP) =  -575.357022364     A.U. after   14 cycles
 Normal termination of Gaussian 16 at Thu Dec 10 09:27:35 2020.

 ----------------------------------------------------------------------
 # B3LYP/6-311++G(d,p) empiricaldispersion=gd3bj scf=xqc pop=npa geom=c
 heck
 ----------------------------------------------------------------------

 ------------------------------------
 CID_87174201_JID_4126_Energie_kation
 ------------------------------------
 Structure from the checkpoint file:  "JID_4126.chk"
 Charge =  1 Multiplicity = 2

 SCF Done:  E(UB3LYP) =  -575.052531774     A.U. after   29 cycles
 Normal termination of Gaussian 16 at Thu Dec 10 09:36:10 2020.
 Gaussian 16:  ES64L-G16RevA.03 25-Dec-2016

 ----------------------------------------------------------------------
 # B3LYP/6-311++G(d,p) empiricaldispersion=gd3bj scf=xqc pop=npa geom=c
 heck
 ----------------------------------------------------------------------

 -----------------------------------
 CID_87174201_JID_4126_Energie_anion
 -----------------------------------
 Structure from the checkpoint file:  "JID_4126.chk"
 Charge = -1 Multiplicity = 2

                         Standard orientation:
 ---------------------------------------------------------------------
 Center     Atomic      Atomic             Coordinates (Angstroms)
 Number     Number       Type             X           Y           Z
 ---------------------------------------------------------------------
      1          6           0        3.023140    0.514144   -0.623687
      2          6           0        2.617112    0.141078    0.817218
      3          6           0        1.742440   -1.089420    0.686276
      4          6           0        1.159423    0.195872    1.228084
      5          6           0        0.127699    1.031260    0.513464
      6          7           0        0.320488    2.258604    0.194707
      7          6           0       -1.200643    0.421948    0.228326
      8          6           0       -2.144068    1.139950   -0.525169
      9          6           0       -3.394652    0.596259   -0.794928
     10          6           0       -3.729557   -0.672721   -0.312432
     11          6           0       -2.802517   -1.392482    0.440071
     12          6           0       -1.545149   -0.850468    0.706043
     13          6           0        1.639367   -1.362071   -0.825418
     14          7           0        2.777308   -0.674212   -1.470264
     15          1           0        4.074267    0.810254   -0.682825
     16          1           0        2.423880    1.343264   -1.011014
     17          1           0        3.366198    0.210775    1.601052
     18          1           0        1.850488   -1.932343    1.363938
     19          1           0        0.993385    0.190602    2.306741
     20          1           0        1.269532    2.536623    0.463190
     21          1           0       -1.869388    2.124105   -0.887733
     22          1           0       -4.112730    1.160752   -1.383264
     23          1           0       -4.707276   -1.096577   -0.524311
     24          1           0       -3.055379   -2.378399    0.819987
     25          1           0       -0.829087   -1.419943    1.287496
     26          1           0        0.704415   -0.963963   -1.234656
     27          1           0        1.663440   -2.431617   -1.051633
     28          1           0        3.588106   -1.284390   -1.365145
 ---------------------------------------------------------------------

 SCF Done:  E(UB3LYP) =  -575.360036370     A.U. after   27 cycles

 The electronic state is 2-A.
 Alpha  occ. eigenvalues --  -14.18370 -14.13166 -10.07769 -10.07466 -10.06051
 Alpha  occ. eigenvalues --  -10.05996 -10.05843 -10.05788 -10.04504 -10.04428
 Alpha  occ. eigenvalues --  -10.03870 -10.03780 -10.03457 -10.03137  -0.81195
 Alpha  occ. eigenvalues --   -0.76280  -0.72054  -0.71412  -0.62122  -0.61386
 Alpha  occ. eigenvalues --   -0.60207  -0.53541  -0.50399  -0.47888  -0.46009
 Alpha  occ. eigenvalues --   -0.44470  -0.41661  -0.40878  -0.37492  -0.35590
 Alpha  occ. eigenvalues --   -0.34261  -0.32614  -0.31355  -0.30692  -0.29440
 Alpha  occ. eigenvalues --   -0.28810  -0.28225  -0.26268  -0.24702  -0.24286
 Alpha  occ. eigenvalues --   -0.23672  -0.21995  -0.21187  -0.19327  -0.17180
 Alpha  occ. eigenvalues --   -0.16439  -0.12828  -0.12277  -0.11543  -0.11223
 Alpha  occ. eigenvalues --    0.04329
 Alpha virt. eigenvalues --    0.06841   0.08357   0.08844   0.08989   0.10189
 Alpha virt. eigenvalues --    0.10791   0.11322   0.11436   0.11821   0.12309
 Alpha virt. eigenvalues --    0.13015   0.13740   0.14853   0.15223   0.15551

  Beta  occ. eigenvalues --  -14.18356 -14.12767 -10.07767 -10.07459 -10.05976
  Beta  occ. eigenvalues --  -10.05885 -10.05826 -10.05798 -10.04531 -10.04468
  Beta  occ. eigenvalues --  -10.03707 -10.03669 -10.03347 -10.03038  -0.81146
  Beta  occ. eigenvalues --   -0.75759  -0.71919  -0.71129  -0.61793  -0.61183
  Beta  occ. eigenvalues --   -0.60159  -0.53321  -0.50041  -0.47744  -0.45846
  Beta  occ. eigenvalues --   -0.44415  -0.41506  -0.40776  -0.37317  -0.35465
  Beta  occ. eigenvalues --   -0.34155  -0.32446  -0.31276  -0.30611  -0.29345
  Beta  occ. eigenvalues --   -0.28657  -0.28035  -0.26223  -0.24548  -0.23861
  Beta  occ. eigenvalues --   -0.23511  -0.21847  -0.21105  -0.18335  -0.16630
  Beta  occ. eigenvalues --   -0.16336  -0.12398  -0.12091  -0.11047  -0.09935
  Beta virt. eigenvalues --    0.07109   0.08324   0.08985   0.09174   0.09643
  Beta virt. eigenvalues --    0.10209   0.10861   0.11480   0.11598   0.12102
  Beta virt. eigenvalues --    0.12404   0.13050   0.13724   0.14881   0.15546

 Mulliken charges and spin densities:
               1          2
     1  C   -0.244109  -0.333810
     2  C    0.466814  -0.716347
     3  C    0.288205  -0.012251
     4  C   -0.462484   0.009083
     5  C   -0.287828   0.062442
     6  N   -0.386030   0.247579
     7  C    1.018844   0.021165
     8  C   -0.251172   0.214945
     9  C   -0.419634  -0.029178
    10  C   -0.383844   0.166656
    11  C   -0.350744   0.072512
    12  C   -0.243597   0.015712
    13  C   -0.498718  -0.325982
    14  N    0.051640  -0.073451
    15  H    0.043862   0.083088
    16  H    0.194768  -0.030912
    17  H   -0.336925   0.549026
    18  H   -0.363397   0.592838
    19  H   -0.004011   0.234134
    20  H    0.192914  -0.005378
    21  H    0.191375  -0.002558
    22  H    0.124894   0.000822
    23  H    0.097442  -0.011121
    24  H    0.111937   0.024057
    25  H    0.118217   0.003058
    26  H    0.216846   0.004886
    27  H    0.045514   0.081654
    28  H    0.069220   0.157333
 Sum of Mulliken charges =  -1.00000   1.00000

 Dipole moment (field-independent basis, Debye):
    X=             -0.6868    Y=             -1.5756    Z=             -0.9251  Tot=              1.9519
 Quadrupole moment (field-independent basis, Debye-Ang):
   XX=           -122.9474   YY=           -107.8907   ZZ=           -110.1427
   XY=              5.7463   XZ=             -0.8889   YZ=              0.0791

 Summary of Natural Population Analysis:

                                       Natural Population
                Natural  -----------------------------------------------
    Atom  No    Charge         Core      Valence    Rydberg      Total
 -----------------------------------------------------------------------
      C    1   -0.10010      0.99962     2.08888    0.01160     3.10010
      C    2   -0.11857      0.99957     2.10762    0.01137     3.11857
      C    3   -0.11650      0.99957     2.10541    0.01152     3.11650
      C    4   -0.13408      0.99953     2.12189    0.01266     3.13408
      C    5    0.14630      0.99957     1.83787    0.01625     2.85370
      N    6   -0.26527      0.99971     2.75796    0.00760     3.76527
      C    7   -0.02790      0.99947     2.01687    0.01156     3.02790
      C    8   -0.06402      0.99953     2.05626    0.00823     3.06402
      C    9   -0.11977      0.99957     2.11139    0.00880     3.11977
      C   10   -0.07397      0.99957     2.06526    0.00913     3.07397
      C   11   -0.11711      0.99957     2.10909    0.00845     3.11711
      C   12   -0.08504      0.99953     2.07547    0.01004     3.08504
      C   13   -0.09833      0.99962     2.08698    0.01173     3.09833
      N   14   -0.33441      0.99977     2.82284    0.01180     3.83441
      H   15    0.09220      0.00000     0.40693    0.00087     0.40780
      H   16    0.10030      0.00000     0.39820    0.00149     0.39970
      H   17    0.10418      0.00000     0.39419    0.00162     0.39582
      H   18    0.10368      0.00000     0.39452    0.00180     0.39632
      H   19    0.11433      0.00000     0.38409    0.00158     0.38567
      H   20    0.15153      0.00000     0.34656    0.00191     0.34847
      H   21    0.10966      0.00000     0.38934    0.00100     0.39034
      H   22    0.09134      0.00000     0.40769    0.00097     0.40866
      H   23    0.08821      0.00000     0.41081    0.00098     0.41179
      H   24    0.09253      0.00000     0.40656    0.00092     0.40747
      H   25    0.09940      0.00000     0.39923    0.00137     0.40060
      H   26    0.10202      0.00000     0.39675    0.00123     0.39798
      H   27    0.09455      0.00000     0.40460    0.00085     0.40545
      H   28    0.16483      0.00000     0.33274    0.00243     0.33517
 =======================================================================
   * Total *    0.00000     13.99423    35.83600    0.16976    50.00000

 Normal termination of Gaussian 16 at Thu Dec 10 09:44:28 2020.
