 Gaussian 16, Revision A.03,

 -----------------------------------------------------------
 # opt freq B3LYP/6-31G(d) empiricaldispersion=gd3bj scf=xqc
 -----------------------------------------------------------

 -------------------------------
 CID_112754180_JID_7817_neutraal
 -------------------------------
 Symbolic Z-matrix:
 Charge =  0 Multiplicity = 1

 SCF Done:  E(RB3LYP) =  -780.968903687     A.U. after   15 cycles
 SCF Done:  E(RB3LYP) =  -780.976979365     A.U. after   12 cycles
 SCF Done:  E(RB3LYP) =  -780.977757683     A.U. after   12 cycles
 SCF Done:  E(RB3LYP) =  -780.978159565     A.U. after   12 cycles
 SCF Done:  E(RB3LYP) =  -780.978495712     A.U. after   12 cycles
 SCF Done:  E(RB3LYP) =  -780.978760788     A.U. after   12 cycles
 SCF Done:  E(RB3LYP) =  -780.979048669     A.U. after   11 cycles
 SCF Done:  E(RB3LYP) =  -780.979114535     A.U. after   11 cycles
 SCF Done:  E(RB3LYP) =  -780.979141988     A.U. after   10 cycles
 SCF Done:  E(RB3LYP) =  -780.979154183     A.U. after   10 cycles
 SCF Done:  E(RB3LYP) =  -780.979157940     A.U. after   10 cycles
 SCF Done:  E(RB3LYP) =  -780.979159022     A.U. after    8 cycles
 SCF Done:  E(RB3LYP) =  -780.979159834     A.U. after    8 cycles
 SCF Done:  E(RB3LYP) =  -780.979160618     A.U. after    9 cycles
 SCF Done:  E(RB3LYP) =  -780.979160858     A.U. after    8 cycles
 SCF Done:  E(RB3LYP) =  -780.979160975     A.U. after    8 cycles
 Optimization completed.
    -- Stationary point found.
 Normal termination of Gaussian 16 at Fri Dec 11 13:11:14 2020.

 --------------------------------------------------------------------
 #N Geom=AllCheck Guess=TCheck SCRF=Check GenChk RB3LYP/6-31G(d) Freq
 --------------------------------------------------------------------

 Structure from the checkpoint file:  "JID_7817.chk"
 -------------------------------
 CID_112754180_JID_7817_neutraal
 -------------------------------
 Charge =  0 Multiplicity = 1

 SCF Done:  E(RB3LYP) =  -780.979160975     A.U. after    1 cycles

  Exact polarizability: 231.713 -12.948 132.201 -13.859  -9.686 103.086
 Approx polarizability: 282.515 -24.886 231.310 -25.939 -30.387 158.381

                      1                      2                      3
                      A                      A                      A
 Frequencies --     21.8841                29.0516                50.8701
 Red. masses --      4.2249                 4.7720                 3.1946
 Frc consts  --      0.0012                 0.0024                 0.0049
 IR Inten    --      0.2700                 0.7996                 1.1571

                      4                      5                      6
                      A                      A                      A
 Frequencies --     55.8755                76.1660                97.5002
 Red. masses --      3.8110                 3.7743                 4.8588
 Frc consts  --      0.0070                 0.0129                 0.0272
 IR Inten    --      0.3945                 0.9472                 2.4210

                      7                      8                      9
                      A                      A                      A
 Frequencies --    103.6273               137.6281               160.9513
 Red. masses --      4.2178                 2.4246                 3.4809
 Frc consts  --      0.0267                 0.0271                 0.0531
 IR Inten    --      0.4421                 0.0348                 2.3177

                     10                     11                     12
                      A                      A                      A
 Frequencies --    223.7714               239.2707               269.5451
 Red. masses --      2.6433                 1.8477                 2.4046
 Frc consts  --      0.0780                 0.0623                 0.1029
 IR Inten    --     10.1729                25.8795                13.5934

                     13                     14                     15
                      A                      A                      A
 Frequencies --    321.7188               343.2915               370.6522
 Red. masses --      3.1344                 4.6187                 3.0769
 Frc consts  --      0.1911                 0.3207                 0.2491
 IR Inten    --     15.7519                 1.2590                 0.2975

                     16                     17                     18
                      A                      A                      A
 Frequencies --    398.4388               427.1144               437.7269
 Red. masses --      4.9022                 2.8087                 3.7114
 Frc consts  --      0.4585                 0.3019                 0.4190
 IR Inten    --      2.3735                 3.2245                 3.2544

                     19                     20                     21
                      A                      A                      A
 Frequencies --    503.1426               625.5606               639.0888
 Red. masses --      5.1002                 2.7930                 3.6051
 Frc consts  --      0.7607                 0.6440                 0.8675
 IR Inten    --      0.3766                 2.7168                 1.9327

                     22                     23                     24
                      A                      A                      A
 Frequencies --    652.5981               689.5070               729.1166
 Red. masses --      5.6106                 3.8133                 3.8140
 Frc consts  --      1.4078                 1.0681                 1.1946
 IR Inten    --      2.1347                 4.2950                15.6379

                     25                     26                     27
                      A                      A                      A
 Frequencies --    738.6919               772.3075               782.1628
 Red. masses --      5.3847                 2.2188                 1.6919
 Frc consts  --      1.7312                 0.7797                 0.6099
 IR Inten    --      8.1202                 9.3853                 4.2660

                     28                     29                     30
                      A                      A                      A
 Frequencies --    812.6387               817.2135               858.9696
 Red. masses --      1.3047                 1.8141                 1.3305
 Frc consts  --      0.5076                 0.7138                 0.5784
 IR Inten    --     50.2724                13.7278                80.1085

                     31                     32                     33
                      A                      A                      A
 Frequencies --    881.5492               890.5399               905.9185
 Red. masses --      1.3768                 1.9174                 4.1196
 Frc consts  --      0.6304                 0.8959                 1.9920
 IR Inten    --      5.5862                 3.4924                 6.8294

                     34                     35                     36
                      A                      A                      A
 Frequencies --    914.3363               937.0107               942.5713
 Red. masses --      2.6488                 7.0828                 2.3262
 Frc consts  --      1.3047                 3.6639                 1.2177
 IR Inten    --      2.5584                13.7839                 1.2445

                     37                     38                     39
                      A                      A                      A
 Frequencies --    977.5470               981.1681               981.3776
 Red. masses --      1.4481                 1.9934                 2.1752
 Frc consts  --      0.8153                 1.1307                 1.2343
 IR Inten    --      1.2471                36.3867                 9.5475

                     40                     41                     42
                      A                      A                      A
 Frequencies --    987.2124              1024.8739              1042.4341
 Red. masses --      5.3209                 6.4120                 5.2868
 Frc consts  --      3.0553                 3.9681                 3.3849
 IR Inten    --      9.8640                 0.7218                 5.6876

                     43                     44                     45
                      A                      A                      A
 Frequencies --   1051.9106              1067.3894              1071.1485
 Red. masses --      1.3372                 2.7492                 2.2113
 Frc consts  --      0.8718                 1.8455                 1.4948
 IR Inten    --     21.0277                 6.2354                 0.2016

                     46                     47                     48
                      A                      A                      A
 Frequencies --   1115.5589              1135.7857              1164.3873
 Red. masses --      2.4821                 1.8039                 2.0400
 Frc consts  --      1.8199                 1.3711                 1.6296
 IR Inten    --      0.9592                16.6093                10.8927

                     49                     50                     51
                      A                      A                      A
 Frequencies --   1192.0005              1212.2934              1223.3670
 Red. masses --      1.5917                 1.3643                 1.4893
 Frc consts  --      1.3325                 1.1813                 1.3132
 IR Inten    --      2.1869                 0.6988                 2.3871

                     52                     53                     54
                      A                      A                      A
 Frequencies --   1255.7155              1265.9145              1270.3806
 Red. masses --      2.0640                 4.2047                 1.3194
 Frc consts  --      1.9175                 3.9700                 1.2546
 IR Inten    --     27.0468                21.3411                 0.1736

                     55                     56                     57
                      A                      A                      A
 Frequencies --   1276.4208              1279.7063              1291.2006
 Red. masses --      1.2775                 1.2813                 1.3848
 Frc consts  --      1.2263                 1.2363                 1.3602
 IR Inten    --      0.8452                 0.8366                 1.0356

                     58                     59                     60
                      A                      A                      A
 Frequencies --   1311.3870              1320.0268              1339.2594
 Red. masses --      1.4509                 1.9719                 1.9653
 Frc consts  --      1.4701                 2.0245                 2.0769
 IR Inten    --      2.8655                29.1139                42.2044

                     61                     62                     63
                      A                      A                      A
 Frequencies --   1348.6501              1401.7720              1408.4593
 Red. masses --      1.7626                 1.4901                 5.5221
 Frc consts  --      1.8889                 1.7252                 6.4543
 IR Inten    --     18.0362                 3.5955               175.2347

                     64                     65                     66
                      A                      A                      A
 Frequencies --   1424.8090              1438.9947              1500.2679
 Red. masses --      2.9852                 1.4785                 1.1397
 Frc consts  --      3.5706                 1.8038                 1.5114
 IR Inten    --      5.8896                75.9017                 5.6191

                     67                     68                     69
                      A                      A                      A
 Frequencies --   1509.7099              1516.0327              1522.9653
 Red. masses --      1.0935                 1.0843                 1.1029
 Frc consts  --      1.4684                 1.4683                 1.5072
 IR Inten    --      0.3260                 4.1807                 0.0597

                     70                     71                     72
                      A                      A                      A
 Frequencies --   1535.8177              1542.0781              1585.6532
 Red. masses --      6.5730                 1.1390                 8.1758
 Frc consts  --      9.1346                 1.5958                12.1115
 IR Inten    --      2.8377                 0.8614                26.9386

                     73                     74                     75
                      A                      A                      A
 Frequencies --   1622.1658              1673.1573              1693.8411
 Red. masses --      6.8778                 8.3991                 1.1067
 Frc consts  --     10.6633                13.8534                 1.8707
 IR Inten    --    110.3011               158.1506                24.5542

                     76                     77                     78
                      A                      A                      A
 Frequencies --   2977.2427              3054.0275              3059.5302
 Red. masses --      1.0720                 1.0614                 1.0600
 Frc consts  --      5.5984                 5.8329                 5.8460
 IR Inten    --     74.2606                 8.7478                60.0587

                     79                     80                     81
                      A                      A                      A
 Frequencies --   3066.0192              3072.5019              3073.2436
 Red. masses --      1.0647                 1.0660                 1.0767
 Frc consts  --      5.8968                 5.9290                 5.9913
 IR Inten    --     20.8066                35.2383                12.3688

                     82                     83                     84
                      A                      A                      A
 Frequencies --   3074.6975              3105.8856              3111.9286
 Red. masses --      1.0894                 1.1027                 1.1039
 Frc consts  --      6.0681                 6.2674                 6.2988
 IR Inten    --     18.4633                14.0049                17.4703

                     85                     86                     87
                      A                      A                      A
 Frequencies --   3116.9992              3131.3655              3270.0978
 Red. masses --      1.1070                 1.1073                 1.0949
 Frc consts  --      6.3367                 6.3969                 6.8983
 IR Inten    --     21.8068                74.7852                 4.8347

                     88                     89                     90
                      A                      A                      A
 Frequencies --   3291.5881              3469.4728              3560.1554
 Red. masses --      1.0998                 1.0494                 1.0933
 Frc consts  --      7.0207                 7.4426                 8.1647
 IR Inten    --      0.0771                 3.4833                 0.7875

 - Thermochemistry -
 -------------------
 Temperature   298.150 Kelvin.  Pressure   1.00000 Atm.
 Atom     1 has atomic number  6 and mass  12.00000

 Molecular mass:   233.11643 amu.
 Principal axes and moments of inertia in atomic units:
                           1         2         3
     Eigenvalues --  1213.28547********************
           X            1.00000   0.00272   0.00060
           Y           -0.00272   1.00000   0.00024
           Z           -0.00060  -0.00024   1.00000
 This molecule is an asymmetric top.
 Rotational symmetry number  1.
 Warning -- assumption of classical behavior for rotation
           may cause significant error
 Rotational temperatures (Kelvin)      0.07139     0.00825     0.00795
 Rotational constants (GHZ):           1.48748     0.17198     0.16555
 Zero-point vibrational energy     692970.4 (Joules/Mol)
                                  165.62390 (Kcal/Mol)
 Warning -- explicit consideration of  19 degrees of freedom as
           vibrations may cause significant error
 Vibrational temperatures:     31.49    41.80    73.19    80.39   109.59
          (Kelvin)            140.28   149.10   198.02   231.57   321.96
                              344.26   387.82   462.88   493.92   533.29
                              573.26   614.52   629.79   723.91   900.04
                              919.51   938.94   992.05  1049.04  1062.81
                             1111.18  1125.36  1169.21  1175.79  1235.87
                             1268.35  1281.29  1303.41  1315.53  1348.15
                             1356.15  1406.47  1411.68  1411.98  1420.38
                             1474.56  1499.83  1513.46  1535.74  1541.14
                             1605.04  1634.14  1675.29  1715.02  1744.22
                             1760.15  1806.69  1821.37  1827.79  1836.48
                             1841.21  1857.75  1886.79  1899.22  1926.90
                             1940.41  2016.84  2026.46  2049.98  2070.39
                             2158.55  2172.14  2181.23  2191.21  2209.70
                             2218.71  2281.40  2333.93  2407.30  2437.06
                             4283.59  4394.06  4401.98  4411.32  4420.64
                             4421.71  4423.80  4468.68  4477.37  4484.67
                             4505.34  4704.94  4735.86  4991.80  5122.27

 Zero-point correction=                           0.263938 (Hartree/Particle)
 Thermal correction to Energy=                    0.279448
 Thermal correction to Enthalpy=                  0.280393
 Thermal correction to Gibbs Free Energy=         0.218114
 Sum of electronic and zero-point Energies=           -780.715222
 Sum of electronic and thermal Energies=              -780.699713
 Sum of electronic and thermal Enthalpies=            -780.698768
 Sum of electronic and thermal Free Energies=         -780.761047

                     E (Thermal)             CV                S
                      KCal/Mol        Cal/Mol-Kelvin    Cal/Mol-Kelvin
 Total                  175.357             57.527            131.077
 Electronic               0.000              0.000              0.000
 Translational            0.889              2.981             42.241
 Rotational               0.889              2.981             33.295
 Vibrational            173.579             51.566             55.541
 Vibration     1          0.593              1.985              6.455
 Vibration     2          0.593              1.984              5.893
 Vibration     3          0.595              1.977              4.783
 Vibration     4          0.596              1.975              4.598
 Vibration     5          0.599              1.965              3.987
 Vibration     6          0.603              1.951              3.504
 Vibration     7          0.605              1.946              3.385
 Vibration     8          0.614              1.916              2.837
 Vibration     9          0.622              1.890              2.539
 Vibration    10          0.649              1.805              1.928
 Vibration    11          0.657              1.780              1.808
 Vibration    12          0.674              1.729              1.599
 Vibration    13          0.707              1.632              1.301
 Vibration    14          0.722              1.589              1.197
 Vibration    15          0.743              1.532              1.077
 Vibration    16          0.765              1.473              0.968
 Vibration    17          0.789              1.411              0.868
 Vibration    18          0.798              1.388              0.834
 Vibration    19          0.858              1.243              0.650

                           ! Non-Optimized Parameters !
 Normal termination of Gaussian 16 at Fri Dec 11 13:19:37 2020.

 ----------------------------------------------------------------------
 # B3LYP/6-311++G(d,p) empiricaldispersion=gd3bj scf=xqc pop=npa geom=c
 heck
 ----------------------------------------------------------------------

 ---------------------------------------
 CID_112754180_JID_7817_Energie_neutraal
 ---------------------------------------
 Structure from the checkpoint file:  "JID_7817.chk"
 Charge =  0 Multiplicity = 1

 SCF Done:  E(RB3LYP) =  -781.194149359     A.U. after   15 cycles
 Normal termination of Gaussian 16 at Fri Dec 11 13:23:11 2020.

 ----------------------------------------------------------------------
 # B3LYP/6-311++G(d,p) empiricaldispersion=gd3bj scf=xqc pop=npa geom=c
 heck
 ----------------------------------------------------------------------

 -------------------------------------
 CID_112754180_JID_7817_Energie_kation
 -------------------------------------
 Structure from the checkpoint file:  "JID_7817.chk"
 Charge =  1 Multiplicity = 2

 SCF Done:  E(UB3LYP) =  -780.892149757     A.U. after   26 cycles
 Normal termination of Gaussian 16 at Fri Dec 11 13:31:26 2020.
 Gaussian 16:  ES64L-G16RevA.03 25-Dec-2016

 ----------------------------------------------------------------------
 # B3LYP/6-311++G(d,p) empiricaldispersion=gd3bj scf=xqc pop=npa geom=c
 heck
 ----------------------------------------------------------------------

 ------------------------------------
 CID_112754180_JID_7817_Energie_anion
 ------------------------------------
 Structure from the checkpoint file:  "JID_7817.chk"
 Charge = -1 Multiplicity = 2

                         Standard orientation:
 ---------------------------------------------------------------------
 Center     Atomic      Atomic             Coordinates (Angstroms)
 Number     Number       Type             X           Y           Z
 ---------------------------------------------------------------------
      1          6           0        5.367723    0.729985    1.189901
      2          6           0        5.308097    0.480919   -0.340666
      3          6           0        3.763181    0.386122   -0.222089
      4          6           0        3.934441    0.146171    1.302096
      5          6           0        3.032499   -0.675412   -1.045569
      6          6           0        1.594767   -0.771580   -0.653502
      7          7           0        1.100190   -1.830569   -0.056424
      8          8           0       -0.250654   -1.477185    0.171435
      9          6           0       -0.399500   -0.233697   -0.319393
     10          7           0        0.697320    0.257765   -0.839295
     11          6           0       -1.678234    0.415901   -0.236153
     12          6           0       -2.085150    1.661116   -0.640976
     13          6           0       -3.462713    1.754920   -0.290306
     14          6           0       -3.802592    0.566914    0.302874
     15          8           0       -2.718386   -0.257907    0.340206
     16          6           0       -5.083312    0.043944    0.858529
     17          7           0       -5.609865   -1.049633    0.032364
     18          1           0        5.389665    1.799155    1.424935
     19          1           0        6.163469    0.233377    1.753011
     20          1           0        5.722165    1.245920   -1.005036
     21          1           0        5.745072   -0.488233   -0.608452
     22          1           0        3.301933    1.363538   -0.401857
     23          1           0        3.946165   -0.924821    1.534303
     24          1           0        3.227629    0.639164    1.976015
     25          1           0        3.095640   -0.429014   -2.112968
     26          1           0        3.500407   -1.654571   -0.898400
     27          1           0       -1.463362    2.399687   -1.124920
     28          1           0       -4.123094    2.595145   -0.452700
     29          1           0       -4.900000   -0.359577    1.861697
     30          1           0       -5.760818    0.907027    0.977370
     31          1           0       -6.442693   -1.436609    0.472505
     32          1           0       -5.898624   -0.684213   -0.873621
 ---------------------------------------------------------------------

 SCF Done:  E(UB3LYP) =  -781.203230543     A.U. after   27 cycles

 The electronic state is 2-A.
 Alpha  occ. eigenvalues --  -19.05460 -19.04063 -14.21317 -14.17927 -14.16352
 Alpha  occ. eigenvalues --  -10.11454 -10.10027 -10.08754 -10.08666 -10.08637
 Alpha  occ. eigenvalues --  -10.08517 -10.08472 -10.08365 -10.07598 -10.07519
 Alpha  occ. eigenvalues --  -10.04238 -10.03270  -1.00877  -0.97376  -0.79227
 Alpha  occ. eigenvalues --   -0.77031  -0.76233  -0.73083  -0.66944  -0.64620
 Alpha  occ. eigenvalues --   -0.63284  -0.57440  -0.55878  -0.54347  -0.49436
 Alpha  occ. eigenvalues --   -0.47120  -0.46211  -0.45080  -0.42311  -0.40645
 Alpha  occ. eigenvalues --   -0.39495  -0.38137  -0.37713  -0.35294  -0.34631
 Alpha  occ. eigenvalues --   -0.33381  -0.31908  -0.31102  -0.30348  -0.29554
 Alpha  occ. eigenvalues --   -0.29172  -0.28516  -0.28030  -0.26446  -0.25575
 Alpha  occ. eigenvalues --   -0.25155  -0.23551  -0.23324  -0.22004  -0.21819
 Alpha  occ. eigenvalues --   -0.19793  -0.18609  -0.16748  -0.15562  -0.15432
 Alpha  occ. eigenvalues --   -0.13245  -0.09171   0.04103
 Alpha virt. eigenvalues --    0.06313   0.07099   0.08055   0.08136   0.09010
 Alpha virt. eigenvalues --    0.09543   0.10034   0.11041   0.11152   0.11414
 Alpha virt. eigenvalues --    0.12033   0.12584   0.12714   0.13415   0.14336

  Beta  occ. eigenvalues --  -19.05176 -19.03818 -14.21091 -14.17849 -14.16232
  Beta  occ. eigenvalues --  -10.11175 -10.10063 -10.08754 -10.08662 -10.08471
  Beta  occ. eigenvalues --  -10.08440 -10.08419 -10.08366 -10.07597 -10.07518
  Beta  occ. eigenvalues --  -10.04321 -10.03079  -1.00433  -0.96976  -0.78937
  Beta  occ. eigenvalues --   -0.76857  -0.76201  -0.72665  -0.66684  -0.64513
  Beta  occ. eigenvalues --   -0.62933  -0.57437  -0.55561  -0.54313  -0.49162
  Beta  occ. eigenvalues --   -0.46884  -0.46156  -0.44947  -0.42064  -0.40517
  Beta  occ. eigenvalues --   -0.39429  -0.38034  -0.37565  -0.34688  -0.34379
  Beta  occ. eigenvalues --   -0.32839  -0.31743  -0.30458  -0.30344  -0.29345
  Beta  occ. eigenvalues --   -0.29024  -0.28208  -0.27920  -0.26323  -0.25416
  Beta  occ. eigenvalues --   -0.25095  -0.23383  -0.23247  -0.21919  -0.21802
  Beta  occ. eigenvalues --   -0.19468  -0.17369  -0.15473  -0.15345  -0.14591
  Beta  occ. eigenvalues --   -0.13116  -0.07891
  Beta virt. eigenvalues --    0.06302   0.07262   0.08042   0.08121   0.09008
  Beta virt. eigenvalues --    0.09467   0.09996   0.10192   0.11078   0.11174
  Beta virt. eigenvalues --    0.11442   0.12022   0.12606   0.12876   0.13472

 Mulliken charges and spin densities:
               1          2
     1  C   -0.229992  -0.000672
     2  C   -0.546311   0.005874
     3  C    0.678650   0.010508
     4  C   -0.571757  -0.003378
     5  C   -0.807113   0.007700
     6  C    0.878218  -0.014049
     7  N   -0.412536   0.108470
     8  O    0.151620   0.063757
     9  C   -0.629661   0.149604
    10  N   -0.027996   0.054638
    11  C   -0.105843  -0.011933
    12  C   -0.497318   0.145896
    13  C   -0.273200   0.058525
    14  C    0.077074   0.313607
    15  O   -0.019202   0.059950
    16  C    0.178202  -0.735199
    17  N   -0.243294  -0.078313
    18  H    0.120855   0.000435
    19  H    0.122675  -0.000072
    20  H    0.116202  -0.000028
    21  H    0.117860  -0.000079
    22  H    0.207437   0.000806
    23  H    0.161279   0.000052
    24  H    0.149863   0.001043
    25  H    0.160380  -0.001577
    26  H    0.147766   0.001353
    27  H    0.139799  -0.007987
    28  H    0.054407   0.075216
    29  H   -0.063660   0.217904
    30  H   -0.017059   0.141556
    31  H   -0.107494   0.328229
    32  H    0.090151   0.108159
 Sum of Mulliken charges =  -1.00000   1.00000

 Dipole moment (field-independent basis, Debye):
    X=              8.5986    Y=              3.6935    Z=             -0.2337  Tot=              9.3613
 Quadrupole moment (field-independent basis, Debye-Ang):
   XX=           -169.8305   YY=           -123.3982   ZZ=           -111.8910
   XY=             -8.8094   XZ=              2.9528   YZ=              1.8228

 Summary of Natural Population Analysis:

                                       Natural Population
                Natural  -----------------------------------------------
    Atom  No    Charge         Core      Valence    Rydberg      Total
 -----------------------------------------------------------------------
      C    1   -0.19182      0.99966     2.18563    0.00652     3.19182
      C    2   -0.18803      0.99964     2.18145    0.00694     3.18803
      C    3   -0.10276      0.99961     2.09423    0.00893     3.10276
      C    4   -0.18815      0.99964     2.18084    0.00767     3.18815
      C    5   -0.20618      0.99957     2.19741    0.00921     3.20618
      C    6    0.15387      0.99965     1.82565    0.02083     2.84613
      N    7   -0.08030      0.99966     2.56852    0.01212     3.58030
      O    8   -0.14654      0.99986     3.13408    0.01260     4.14654
      C    9    0.30772      0.99946     1.67541    0.01742     2.69228
      N   10   -0.27099      0.99968     2.76178    0.00953     3.77099
      C   11    0.09599      0.99948     1.88178    0.02275     2.90401
      C   12   -0.04402      0.99954     2.03752    0.00696     3.04402
      C   13   -0.21195      0.99961     2.19247    0.01988     3.21195
      C   14    0.24920      0.99948     1.73490    0.01642     2.75080
      O   15   -0.21635      0.99985     3.20056    0.01593     4.21635
      C   16   -0.12892      0.99964     2.11016    0.01912     3.12892
      N   17   -0.41275      0.99977     2.90089    0.01209     3.91275
      H   18    0.09252      0.00000     0.40623    0.00125     0.40748
      H   19    0.09091      0.00000     0.40794    0.00114     0.40909
      H   20    0.09293      0.00000     0.40610    0.00097     0.40707
      H   21    0.09192      0.00000     0.40694    0.00114     0.40808
      H   22    0.10393      0.00000     0.39470    0.00138     0.39607
      H   23    0.09770      0.00000     0.40110    0.00120     0.40230
      H   24    0.10024      0.00000     0.39883    0.00093     0.39976
      H   25    0.10411      0.00000     0.39468    0.00121     0.39589
      H   26    0.10261      0.00000     0.39618    0.00121     0.39739
      H   27    0.09900      0.00000     0.39941    0.00159     0.40100
      H   28    0.10008      0.00000     0.39819    0.00174     0.39992
      H   29    0.09873      0.00000     0.39964    0.00163     0.40127
      H   30    0.08223      0.00000     0.41613    0.00164     0.41777
      H   31    0.17102      0.00000     0.32502    0.00396     0.32898
      H   32    0.17055      0.00000     0.32740    0.00205     0.32945
 =======================================================================
   * Total *    0.01651     16.99377    44.74176    0.24795    61.98349

 Normal termination of Gaussian 16 at Fri Dec 11 13:40:10 2020.
