 Gaussian 16, Revision A.03,

 -----------------------------------------------------------
 # opt freq B3LYP/6-31G(d) empiricaldispersion=gd3bj scf=xqc
 -----------------------------------------------------------

 -------------------------------
 CID_130434367_JID_6953_neutraal
 -------------------------------
 Symbolic Z-matrix:
 Charge =  0 Multiplicity = 1

 SCF Done:  E(RB3LYP) =  -1101.83701582     A.U. after   15 cycles
 SCF Done:  E(RB3LYP) =  -1101.84323797     A.U. after   12 cycles
 SCF Done:  E(RB3LYP) =  -1101.84383836     A.U. after   11 cycles
 SCF Done:  E(RB3LYP) =  -1101.84397267     A.U. after   11 cycles
 SCF Done:  E(RB3LYP) =  -1101.84401690     A.U. after   11 cycles
 SCF Done:  E(RB3LYP) =  -1101.84405049     A.U. after   10 cycles
 SCF Done:  E(RB3LYP) =  -1101.84410032     A.U. after   11 cycles
 SCF Done:  E(RB3LYP) =  -1101.84417481     A.U. after   11 cycles
 SCF Done:  E(RB3LYP) =  -1101.84418248     A.U. after   11 cycles
 SCF Done:  E(RB3LYP) =  -1101.84421406     A.U. after   10 cycles
 SCF Done:  E(RB3LYP) =  -1101.84506476     A.U. after   11 cycles
 SCF Done:  E(RB3LYP) =  -1101.84507003     A.U. after   10 cycles
 SCF Done:  E(RB3LYP) =  -1101.84506822     A.U. after   10 cycles
 SCF Done:  E(RB3LYP) =  -1101.84507025     A.U. after   10 cycles
 Optimization completed.
    -- Stationary point found.
 Normal termination of Gaussian 16 at Fri Dec 11 01:22:07 2020.

 --------------------------------------------------------------------
 #N Geom=AllCheck Guess=TCheck SCRF=Check GenChk RB3LYP/6-31G(d) Freq
 --------------------------------------------------------------------

 Structure from the checkpoint file:  "JID_6953.chk"
 -------------------------------
 CID_130434367_JID_6953_neutraal
 -------------------------------
 Charge =  0 Multiplicity = 1

 SCF Done:  E(RB3LYP) =  -1101.84507025     A.U. after    1 cycles

  Exact polarizability: 201.102  17.064 155.500   1.032   3.432  84.823
 Approx polarizability: 260.259  35.592 272.271  -1.091   6.687 136.907

                      1                      2                      3
                      A                      A                      A
 Frequencies --     38.9308                52.0738               101.3157
 Red. masses --      4.9390                 5.5735                 5.1818
 Frc consts  --      0.0044                 0.0089                 0.0313
 IR Inten    --      1.1089                 1.4310                 1.2251

                      4                      5                      6
                      A                      A                      A
 Frequencies --    141.1425               151.2165               172.0112
 Red. masses --      7.1574                 3.2673                 6.5837
 Frc consts  --      0.0840                 0.0440                 0.1148
 IR Inten    --      1.9866                 0.0188                 1.1634

                      7                      8                      9
                      A                      A                      A
 Frequencies --    206.8343               232.4310               280.6101
 Red. masses --      4.2325                 3.0987                 5.1646
 Frc consts  --      0.1067                 0.0986                 0.2396
 IR Inten    --      1.9552                 1.6387                22.1810

                     10                     11                     12
                      A                      A                      A
 Frequencies --    305.6649               346.7420               362.2787
 Red. masses --      2.6426                 3.8528                 4.7158
 Frc consts  --      0.1455                 0.2729                 0.3647
 IR Inten    --      1.2233                 2.1658                 4.9556

                     13                     14                     15
                      A                      A                      A
 Frequencies --    389.6851               440.1528               461.2083
 Red. masses --      2.6607                 3.4379                 4.0131
 Frc consts  --      0.2381                 0.3924                 0.5029
 IR Inten    --      4.1897                 6.6442                 1.3392

                     16                     17                     18
                      A                      A                      A
 Frequencies --    504.9881               541.8315               558.0192
 Red. masses --      5.7639                 5.1292                 3.7908
 Frc consts  --      0.8660                 0.8872                 0.6955
 IR Inten    --      2.1294                12.1062                 5.1545

                     19                     20                     21
                      A                      A                      A
 Frequencies --    585.7912               607.2512               619.4837
 Red. masses --      3.9781                 4.8520                 1.1731
 Frc consts  --      0.8043                 1.0542                 0.2652
 IR Inten    --      3.3684                15.4468                46.6084

                     22                     23                     24
                      A                      A                      A
 Frequencies --    646.1406               673.0529               706.1903
 Red. masses --     10.9917                 3.9851                 2.6759
 Frc consts  --      2.7038                 1.0636                 0.7863
 IR Inten    --      2.9659                14.9815                 9.1233

                     25                     26                     27
                      A                      A                      A
 Frequencies --    729.9030               766.1909               774.8489
 Red. masses --      1.5068                 3.3872                 2.9263
 Frc consts  --      0.4730                 1.1716                 1.0351
 IR Inten    --     55.9380                52.0839                 7.0733

                     28                     29                     30
                      A                      A                      A
 Frequencies --    809.0675               856.8467               910.4108
 Red. masses --      4.2228                 2.4085                 3.0381
 Frc consts  --      1.6286                 1.0419                 1.4836
 IR Inten    --     12.3803                14.5131                 5.6481

                     31                     32                     33
                      A                      A                      A
 Frequencies --    919.3497               955.0508               975.2482
 Red. masses --      2.1282                 2.6129                 4.7140
 Frc consts  --      1.0598                 1.4042                 2.6416
 IR Inten    --      5.9296                 5.5116                 3.5198

                     34                     35                     36
                      A                      A                      A
 Frequencies --    991.3847              1006.3146              1028.0367
 Red. masses --      2.1097                 2.3869                 2.6025
 Frc consts  --      1.2217                 1.4242                 1.6205
 IR Inten    --     10.0304                 0.5236                 3.3855

                     37                     38                     39
                      A                      A                      A
 Frequencies --   1068.4953              1104.5839              1124.9473
 Red. masses --      2.1290                 3.5987                 3.1484
 Frc consts  --      1.4321                 2.5870                 2.3475
 IR Inten    --     15.4597                 8.9294                78.7410

                     40                     41                     42
                      A                      A                      A
 Frequencies --   1137.6073              1143.4142              1179.2868
 Red. masses --      4.7093                 2.3671                 2.4169
 Frc consts  --      3.5908                 1.8234                 1.9804
 IR Inten    --    101.0592                47.4955                25.8846

                     43                     44                     45
                      A                      A                      A
 Frequencies --   1198.4694              1228.2663              1240.6145
 Red. masses --      2.1634                 2.8772                 1.9280
 Frc consts  --      1.8308                 2.5574                 1.7484
 IR Inten    --     32.0620               216.5047                34.0518

                     46                     47                     48
                      A                      A                      A
 Frequencies --   1258.4872              1268.5667              1279.4083
 Red. masses --      1.1881                 1.5005                 1.5932
 Frc consts  --      1.1087                 1.4227                 1.5365
 IR Inten    --      2.6481                 4.3547                 3.1253

                     49                     50                     51
                      A                      A                      A
 Frequencies --   1305.6581              1310.1669              1330.6269
 Red. masses --      1.5277                 1.3417                 1.3320
 Frc consts  --      1.5345                 1.3569                 1.3896
 IR Inten    --      5.3723                13.3645                11.9793

                     52                     53                     54
                      A                      A                      A
 Frequencies --   1357.1721              1375.2415              1384.5811
 Red. masses --      1.5162                 1.7463                 1.2546
 Frc consts  --      1.6454                 1.9459                 1.4171
 IR Inten    --      7.4442                 2.3939                 1.0364

                     55                     56                     57
                      A                      A                      A
 Frequencies --   1407.2231              1411.4121              1412.4848
 Red. masses --      1.3904                 1.7228                 1.3630
 Frc consts  --      1.6222                 2.0221                 1.6022
 IR Inten    --     21.8616                31.2399                 4.7294

                     58                     59                     60
                      A                      A                      A
 Frequencies --   1421.6237              1438.3716              1493.0938
 Red. masses --      1.8365                 1.4024                 3.4846
 Frc consts  --      2.1868                 1.7095                 4.5769
 IR Inten    --    106.6682                 2.8377                20.5064

                     61                     62                     63
                      A                      A                      A
 Frequencies --   1514.1771              1518.4678              1530.2377
 Red. masses --      1.1038                 1.0948                 1.0959
 Frc consts  --      1.4911                 1.4873                 1.5119
 IR Inten    --      7.3298                 3.1996                 3.1601

                     64                     65                     66
                      A                      A                      A
 Frequencies --   1538.0090              1547.2410              1592.1752
 Red. masses --      1.0805                 1.0906                 2.5933
 Frc consts  --      1.5058                 1.5382                 3.8734
 IR Inten    --      1.6179                 5.3603               729.9595

                     67                     68                     69
                      A                      A                      A
 Frequencies --   1707.9322              1800.4460              2945.9968
 Red. masses --      7.7657                 9.9356                 1.0717
 Frc consts  --     13.3467                18.9759                 5.4803
 IR Inten    --     56.6378               497.8695                35.9913

                     70                     71                     72
                      A                      A                      A
 Frequencies --   2999.0690              3003.9204              3019.6922
 Red. masses --      1.0714                 1.0763                 1.0777
 Frc consts  --      5.6777                 5.7223                 5.7901
 IR Inten    --     82.8613                21.1302                71.9853

                     73                     74                     75
                      A                      A                      A
 Frequencies --   3029.2662              3055.5660              3059.8435
 Red. masses --      1.0731                 1.0649                 1.0861
 Frc consts  --      5.8019                 5.8578                 5.9915
 IR Inten    --     32.3225                49.5229                37.3055

                     76                     77                     78
                      A                      A                      A
 Frequencies --   3086.9606              3106.0189              3112.7095
 Red. masses --      1.0966                 1.0999                 1.0969
 Frc consts  --      6.1567                 6.2520                 6.2617
 IR Inten    --      8.7753                57.4030                18.8460

                     79                     80                     81
                      A                      A                      A
 Frequencies --   3126.6311              3599.8079              3617.9785
 Red. masses --      1.0919                 1.0776                 1.0785
 Frc consts  --      6.2889                 8.2276                 8.3176
 IR Inten    --      7.6309                69.7593                58.8926

 - Thermochemistry -
 -------------------
 Temperature   298.150 Kelvin.  Pressure   1.00000 Atm.
 Atom     1 has atomic number  6 and mass  12.00000

 Molecular mass:   239.07285 amu.
 Principal axes and moments of inertia in atomic units:
                           1         2         3
     Eigenvalues --  1684.120936644.437957968.98605
           X            0.99996  -0.00838   0.00310
           Y            0.00837   0.99996   0.00391
           Z           -0.00313  -0.00388   0.99999
 This molecule is an asymmetric top.
 Rotational symmetry number  1.
 Warning -- assumption of classical behavior for rotation
           may cause significant error
 Rotational temperatures (Kelvin)      0.05143     0.01304     0.01087
 Rotational constants (GHZ):           1.07162     0.27162     0.22647
 Zero-point vibrational energy     623491.6 (Joules/Mol)
                                  149.01806 (Kcal/Mol)
 Warning -- explicit consideration of  21 degrees of freedom as
           vibrations may cause significant error
 Vibrational temperatures:     56.01    74.92   145.77   203.07   217.57
          (Kelvin)            247.49   297.59   334.42   403.74   439.78
                              498.88   521.24   560.67   633.28   663.58
                              726.57   779.57   802.87   842.82   873.70
                              891.30   929.65   968.37  1016.05  1050.17
                             1102.38  1114.83  1164.07  1232.81  1309.88
                             1322.74  1374.11  1403.16  1426.38  1447.86
                             1479.12  1537.33  1589.25  1618.55  1636.76
                             1645.12  1696.73  1724.33  1767.20  1784.97
                             1810.68  1825.18  1840.78  1878.55  1885.04
                             1914.48  1952.67  1978.67  1992.10  2024.68
                             2030.71  2032.25  2045.40  2069.50  2148.23
                             2178.56  2184.74  2201.67  2212.85  2226.13
                             2290.78  2457.33  2590.44  4238.63  4314.99
                             4321.97  4344.66  4358.44  4396.28  4402.43
                             4441.45  4468.87  4478.49  4498.52  5179.32
                             5205.46

 Zero-point correction=                           0.237475 (Hartree/Particle)
 Thermal correction to Energy=                    0.250611
 Thermal correction to Enthalpy=                  0.251555
 Thermal correction to Gibbs Free Energy=         0.196906
 Sum of electronic and zero-point Energies=          -1101.607595
 Sum of electronic and thermal Energies=             -1101.594459
 Sum of electronic and thermal Enthalpies=           -1101.593515
 Sum of electronic and thermal Free Energies=        -1101.648164

                     E (Thermal)             CV                S
                      KCal/Mol        Cal/Mol-Kelvin    Cal/Mol-Kelvin
 Total                  157.261             51.810            115.020
 Electronic               0.000              0.000              0.000
 Translational            0.889              2.981             42.316
 Rotational               0.889              2.981             32.855
 Vibrational            155.484             45.848             39.848
 Vibration     1          0.594              1.981              5.313
 Vibration     2          0.596              1.977              4.737
 Vibration     3          0.604              1.948              3.429
 Vibration     4          0.615              1.912              2.788
 Vibration     5          0.619              1.901              2.657
 Vibration     6          0.626              1.877              2.413
 Vibration     7          0.641              1.830              2.071
 Vibration     8          0.653              1.791              1.860
 Vibration     9          0.680              1.709              1.530
 Vibration    10          0.696              1.663              1.386
 Vibration    11          0.725              1.582              1.181
 Vibration    12          0.736              1.550              1.112
 Vibration    13          0.758              1.492              1.001
 Vibration    14          0.800              1.383              0.826
 Vibration    15          0.819              1.336              0.763
 Vibration    16          0.860              1.239              0.646
 Vibration    17          0.897              1.158              0.561
 Vibration    18          0.914              1.122              0.528
 Vibration    19          0.943              1.062              0.475
 Vibration    20          0.966              1.016              0.437
 Vibration    21          0.979              0.991              0.417

 Optimization completed.
    -- Stationary point found.
 Normal termination of Gaussian 16 at Fri Dec 11 01:31:45 2020.

 ----------------------------------------------------------------------
 # B3LYP/6-311++G(d,p) empiricaldispersion=gd3bj scf=xqc pop=npa geom=c
 heck
 ----------------------------------------------------------------------

 ---------------------------------------
 CID_130434367_JID_6953_Energie_neutraal
 ---------------------------------------
 Structure from the checkpoint file:  "JID_6953.chk"
 Charge =  0 Multiplicity = 1

 SCF Done:  E(RB3LYP) =  -1102.06786951     A.U. after   16 cycles
 Normal termination of Gaussian 16 at Fri Dec 11 01:35:48 2020.

 ----------------------------------------------------------------------
 # B3LYP/6-311++G(d,p) empiricaldispersion=gd3bj scf=xqc pop=npa geom=c
 heck
 ----------------------------------------------------------------------

 -------------------------------------
 CID_130434367_JID_6953_Energie_kation
 -------------------------------------
 Structure from the checkpoint file:  "JID_6953.chk"
 Charge =  1 Multiplicity = 2

 SCF Done:  E(UB3LYP) =  -1101.76984048     A.U. after   33 cycles
 SCF Done:  E(UB3LYP) =  -1101.77832580     a.u. after   17 cycles
 Normal termination of Gaussian 16 at Fri Dec 11 03:18:56 2020.
 Gaussian 16:  ES64L-G16RevA.03 25-Dec-2016

 ----------------------------------------------------------------------
 # B3LYP/6-311++G(d,p) empiricaldispersion=gd3bj scf=xqc pop=npa geom=c
 heck
 ----------------------------------------------------------------------

 ------------------------------------
 CID_130434367_JID_6953_Energie_anion
 ------------------------------------
 Structure from the checkpoint file:  "JID_6953.chk"
 Charge = -1 Multiplicity = 2

                         Standard orientation:
 ---------------------------------------------------------------------
 Center     Atomic      Atomic             Coordinates (Angstroms)
 Number     Number       Type             X           Y           Z
 ---------------------------------------------------------------------
      1          6           0        2.976236   -1.485024    0.739186
      2          6           0        3.876780   -1.181569   -0.477940
      3          8           0        3.695883    0.161921   -0.922964
      4          6           0        3.399848    1.030490    0.159431
      5          6           0        1.975846    0.736172    0.681253
      6          7           0        1.729403   -0.731795    0.708430
      7          6           0        0.766945   -1.259248   -0.258505
      8          6           0       -0.504273   -0.467622   -0.167071
      9          6           0       -0.415590    0.881324   -0.115898
     10          6           0        0.948903    1.491122   -0.189133
     11          6           0       -1.625422    1.678132   -0.008866
     12          8           0       -1.693187    2.895229    0.055773
     13          7           0       -2.808218    0.898784    0.013783
     14          6           0       -2.926532   -0.463457   -0.040723
     15         16           0       -4.378591   -1.280464    0.000620
     16          7           0       -1.717828   -1.112987   -0.129958
     17          1           0        3.497399   -1.229868    1.669291
     18          1           0        2.753225   -2.556422    0.791485
     19          1           0        4.933723   -1.363417   -0.224225
     20          1           0        3.622362   -1.815153   -1.333578
     21          1           0        4.150799    0.933015    0.958021
     22          1           0        3.461550    2.050740   -0.230005
     23          1           0        1.889146    1.102634    1.714312
     24          1           0        1.121462   -1.229680   -1.305977
     25          1           0        0.584248   -2.312631   -0.011749
     26          1           0        0.903072    2.539582    0.116185
     27          1           0        1.303896    1.474593   -1.229798
     28          1           0       -3.675126    1.420123    0.084251
     29          1           0       -1.769820   -2.123233   -0.146792
 ---------------------------------------------------------------------

 SCF Done:  E(UB3LYP) =  -1102.07292833     A.U. after   33 cycles
 SCF Done:  E(UB3LYP) =  -1102.07292833     a.u. after    1 cycles

 The electronic state is 2-A.
 Alpha  occ. eigenvalues --  -88.67390 -19.03482 -18.96859 -14.26059 -14.23356
 Alpha  occ. eigenvalues --  -14.20974 -10.16115 -10.15127 -10.12470 -10.12260
 Alpha  occ. eigenvalues --  -10.10595 -10.10560 -10.10480 -10.09314 -10.06580
 Alpha  occ. eigenvalues --  -10.04261  -7.76173  -5.72587  -5.71974  -5.71744
 Alpha  occ. eigenvalues --   -0.95100  -0.92652  -0.88691  -0.83161  -0.80084
 Alpha  occ. eigenvalues --   -0.71335  -0.68620  -0.64609  -0.62650  -0.57814
 Alpha  occ. eigenvalues --   -0.57229  -0.53706  -0.52043  -0.51376  -0.45438
 Alpha  occ. eigenvalues --   -0.44048  -0.43408  -0.41012  -0.40346  -0.39711
 Alpha  occ. eigenvalues --   -0.37049  -0.35975  -0.33873  -0.33290  -0.33224
 Alpha  occ. eigenvalues --   -0.32377  -0.31381  -0.30442  -0.29346  -0.27658
 Alpha  occ. eigenvalues --   -0.27111  -0.26581  -0.26268  -0.25069  -0.23945
 Alpha  occ. eigenvalues --   -0.23302  -0.20705  -0.17365  -0.14912  -0.13886
 Alpha  occ. eigenvalues --   -0.11358  -0.10435  -0.09866   0.03995
 Alpha virt. eigenvalues --    0.05663   0.07224   0.08056   0.08347   0.09087
 Alpha virt. eigenvalues --    0.09809   0.10329   0.10685   0.11079   0.11790
 Alpha virt. eigenvalues --    0.12451   0.12803   0.13467   0.14142   0.14500

  Beta  occ. eigenvalues --  -88.67379 -19.03484 -18.96788 -14.26160 -14.23133
  Beta  occ. eigenvalues --  -14.20954 -10.15822 -10.15059 -10.12463 -10.12232
  Beta  occ. eigenvalues --  -10.10584 -10.10584 -10.10464 -10.08915 -10.06594
  Beta  occ. eigenvalues --  -10.04103  -7.76163  -5.72592  -5.71925  -5.71738
  Beta  occ. eigenvalues --   -0.95095  -0.92430  -0.88462  -0.83076  -0.79792
  Beta  occ. eigenvalues --   -0.71055  -0.68391  -0.64459  -0.62452  -0.57627
  Beta  occ. eigenvalues --   -0.57065  -0.53571  -0.51878  -0.51131  -0.45329
  Beta  occ. eigenvalues --   -0.43902  -0.43248  -0.40902  -0.40290  -0.39628
  Beta  occ. eigenvalues --   -0.36922  -0.35621  -0.33474  -0.33173  -0.32947
  Beta  occ. eigenvalues --   -0.32081  -0.31264  -0.30323  -0.29239  -0.27326
  Beta  occ. eigenvalues --   -0.26918  -0.26378  -0.25957  -0.24927  -0.23866
  Beta  occ. eigenvalues --   -0.23228  -0.19590  -0.17338  -0.14775  -0.12876
  Beta  occ. eigenvalues --   -0.11295  -0.10395  -0.09181
  Beta virt. eigenvalues --    0.06246   0.07503   0.08270   0.08482   0.09285
  Beta virt. eigenvalues --    0.09988   0.10139   0.10608   0.10690   0.11051
  Beta virt. eigenvalues --    0.11859   0.12381   0.12808   0.13529   0.14126

 Mulliken charges and spin densities:
               1          2
     1  C   -0.339314   0.196534
     2  C    0.666564  -0.943368
     3  O   -0.156727   0.030882
     4  C   -0.419054  -0.232296
     5  C    0.155518   0.180893
     6  N    0.203987  -0.000250
     7  C   -0.598414  -0.209051
     8  C    0.300163   0.045644
     9  C    0.936135   0.152217
    10  C   -1.445000  -0.095673
    11  C    0.222766  -0.000413
    12  O   -0.413738   0.025943
    13  N   -0.339841   0.090843
    14  C    0.446285   0.150195
    15  S   -0.892790   0.053475
    16  N   -0.155517  -0.043516
    17  H    0.054256   0.127220
    18  H   -0.241229   0.357986
    19  H   -0.371753   0.523833
    20  H   -0.084370   0.259251
    21  H    0.019988   0.104747
    22  H    0.177907  -0.001759
    23  H    0.174023   0.022772
    24  H    0.065027   0.135366
    25  H    0.092606   0.051397
    26  H    0.183524   0.001149
    27  H    0.195799   0.003909
    28  H    0.324335  -0.005766
    29  H    0.238866   0.017837
 Sum of Mulliken charges =  -1.00000   1.00000

 Dipole moment (field-independent basis, Debye):
    X=              4.2038    Y=              0.1939    Z=              0.5723  Tot=              4.2470
 Quadrupole moment (field-independent basis, Debye-Ang):
   XX=           -187.9816   YY=           -135.1107   ZZ=           -118.0053
   XY=              5.0710   XZ=              4.7531   YZ=              0.9177

 Summary of Natural Population Analysis:

                                       Natural Population
                Natural  -----------------------------------------------
    Atom  No    Charge         Core      Valence    Rydberg      Total
 -----------------------------------------------------------------------
      C    1   -0.10111      0.99962     2.08964    0.01185     3.10111
      C    2   -0.01875      0.99959     2.00588    0.01328     3.01875
      O    3   -0.30156      0.99989     3.29238    0.00929     4.30156
      C    4   -0.01963      0.99956     2.00597    0.01410     3.01963
      C    5   -0.00507      0.99959     1.99260    0.01288     3.00507
      N    6   -0.27518      0.99972     2.76342    0.01204     3.77518
      C    7   -0.10219      0.99958     2.09004    0.01257     3.10219
      C    8    0.18598      0.99943     1.80220    0.01239     2.81402
      C    9   -0.06901      0.99939     2.06084    0.00878     3.06901
      C   10   -0.20081      0.99960     2.19353    0.00769     3.20081
      C   11    0.34291      0.99959     1.63648    0.02102     2.65709
      O   12   -0.32473      0.99988     3.31872    0.00614     4.32473
      N   13   -0.28095      0.99962     2.76973    0.01160     3.78095
      C   14    0.18891      0.99968     1.79274    0.01866     2.81109
      S   15   -0.16123      4.99960     3.14681    0.01483     8.16123
      N   16   -0.29483      0.99961     2.78607    0.00916     3.79483
      H   17    0.09212      0.00000     0.40663    0.00126     0.40788
      H   18    0.10128      0.00000     0.39749    0.00123     0.39872
      H   19    0.07935      0.00000     0.41845    0.00220     0.42065
      H   20    0.08943      0.00000     0.40923    0.00135     0.41057
      H   21    0.07805      0.00000     0.42050    0.00145     0.42195
      H   22    0.09276      0.00000     0.40617    0.00106     0.40724
      H   23    0.09038      0.00000     0.40849    0.00114     0.40962
      H   24    0.09747      0.00000     0.40110    0.00143     0.40253
      H   25    0.09564      0.00000     0.40286    0.00150     0.40436
      H   26    0.11410      0.00000     0.38477    0.00113     0.38590
      H   27    0.10257      0.00000     0.39605    0.00138     0.39743
      H   28    0.20187      0.00000     0.29665    0.00148     0.29813
      H   29    0.20225      0.00000     0.29517    0.00258     0.29775
 =======================================================================
   * Total *   -0.00000     19.99395    42.79058    0.21547    63.00000

 Normal termination of Gaussian 16 at Fri Dec 11 03:30:05 2020.
