 Gaussian 16, Revision A.03,

 -----------------------------------------------------------
 # opt freq B3LYP/6-31G(d) empiricaldispersion=gd3bj scf=xqc
 -----------------------------------------------------------

 -----------------------------
 CID_58069330_JID_512_neutraal
 -----------------------------
 Symbolic Z-matrix:
 Charge =  0 Multiplicity = 1

 SCF Done:  E(RB3LYP) =  -534.367695475     A.U. after   15 cycles
 SCF Done:  E(RB3LYP) =  -534.371367538     A.U. after   14 cycles
 SCF Done:  E(RB3LYP) =  -534.372066998     A.U. after   13 cycles
 SCF Done:  E(RB3LYP) =  -534.372705262     A.U. after   14 cycles
 SCF Done:  E(RB3LYP) =  -534.373150394     A.U. after   12 cycles
 SCF Done:  E(RB3LYP) =  -534.373269882     A.U. after   12 cycles
 SCF Done:  E(RB3LYP) =  -534.373304053     A.U. after   12 cycles
 SCF Done:  E(RB3LYP) =  -534.373311842     A.U. after   10 cycles
 SCF Done:  E(RB3LYP) =  -534.373314735     A.U. after    9 cycles
 SCF Done:  E(RB3LYP) =  -534.373315341     A.U. after    8 cycles
 SCF Done:  E(RB3LYP) =  -534.373317114     A.U. after    9 cycles
 SCF Done:  E(RB3LYP) =  -534.373319417     A.U. after    9 cycles
 SCF Done:  E(RB3LYP) =  -534.373320109     A.U. after    8 cycles
 SCF Done:  E(RB3LYP) =  -534.373320156     A.U. after    7 cycles
 Optimization completed.
    -- Stationary point found.
 Normal termination of Gaussian 16 at Tue Dec  8 12:22:52 2020.

 --------------------------------------------------------------------
 #N Geom=AllCheck Guess=TCheck SCRF=Check GenChk RB3LYP/6-31G(d) Freq
 --------------------------------------------------------------------

 Structure from the checkpoint file:  "JID_512.chk"
 -----------------------------
 CID_58069330_JID_512_neutraal
 -----------------------------
 Charge =  0 Multiplicity = 1

 SCF Done:  E(RB3LYP) =  -534.373320156     A.U. after    1 cycles

  Exact polarizability:  74.428  -1.419  91.951  -2.043  -1.341  52.266
 Approx polarizability:  99.021   1.631 149.686  -8.440  -1.752  77.084

                      1                      2                      3
                      A                      A                      A
 Frequencies --     40.2473                52.9756                77.0361
 Red. masses --      9.1831                 6.4994                 5.6645
 Frc consts  --      0.0088                 0.0107                 0.0198
 IR Inten    --      2.4157                 0.4253                 1.7728

                      4                      5                      6
                      A                      A                      A
 Frequencies --     98.0816               135.4923               221.1825
 Red. masses --      1.0866                 4.2668                 5.4343
 Frc consts  --      0.0062                 0.0462                 0.1566
 IR Inten    --      0.6979                 2.4349                 3.1727

                      7                      8                      9
                      A                      A                      A
 Frequencies --    257.0049               285.4411               343.6988
 Red. masses --      3.6536                 2.7894                 3.0722
 Frc consts  --      0.1422                 0.1339                 0.2138
 IR Inten    --      1.7044                 5.9760                 8.8234

                     10                     11                     12
                      A                      A                      A
 Frequencies --    374.0545               435.2474               467.7813
 Red. masses --      3.3976                 2.7405                 4.1903
 Frc consts  --      0.2801                 0.3059                 0.5402
 IR Inten    --      7.2361                 7.9948                19.2283

                     13                     14                     15
                      A                      A                      A
 Frequencies --    529.6268               623.0681               671.4665
 Red. masses --      4.1314                 1.8380                 2.1019
 Frc consts  --      0.6828                 0.4204                 0.5583
 IR Inten    --     19.7602                55.7664                62.5072

                     16                     17                     18
                      A                      A                      A
 Frequencies --    754.5753               767.9213               811.0782
 Red. masses --      3.4780                 4.5654                 6.2951
 Frc consts  --      1.1668                 1.5862                 2.4399
 IR Inten    --     37.6256                 7.9311                29.4763

                     19                     20                     21
                      A                      A                      A
 Frequencies --    883.0851               924.0569               957.4046
 Red. masses --      1.4404                 3.4768                 1.8665
 Frc consts  --      0.6618                 1.7491                 1.0080
 IR Inten    --     36.9653                27.0046                15.3518

                     22                     23                     24
                      A                      A                      A
 Frequencies --   1037.5149              1058.9635              1086.0740
 Red. masses --      1.6489                 1.7066                 1.6176
 Frc consts  --      1.0458                 1.1276                 1.1242
 IR Inten    --      0.6215                58.9564                 0.9183

                     25                     26                     27
                      A                      A                      A
 Frequencies --   1124.7499              1178.2128              1200.2996
 Red. masses --      3.5268                 2.9835                 3.9482
 Frc consts  --      2.6287                 2.4402                 3.3514
 IR Inten    --      4.4007               326.2784               254.3826

                     28                     29                     30
                      A                      A                      A
 Frequencies --   1237.4398              1312.9529              1355.7553
 Red. masses --      2.6439                 1.1715                 1.6861
 Frc consts  --      2.3853                 1.1899                 1.8260
 IR Inten    --     47.2704                27.7830                21.2942

                     31                     32                     33
                      A                      A                      A
 Frequencies --   1412.5302              1421.9405              1426.2446
 Red. masses --      1.2506                 1.2421                 1.2615
 Frc consts  --      1.4702                 1.4797                 1.5119
 IR Inten    --      1.2944                20.4714                14.3430

                     34                     35                     36
                      A                      A                      A
 Frequencies --   1445.3164              1498.4233              1517.4558
 Red. masses --      1.5684                 1.0904                 1.1106
 Frc consts  --      1.9303                 1.4425                 1.5067
 IR Inten    --     15.0060                20.3114                18.6347

                     37                     38                     39
                      A                      A                      A
 Frequencies --   1521.2285              1715.5506              1814.7091
 Red. masses --      1.0501                 6.1101                 9.1315
 Frc consts  --      1.4317                10.5950                17.7177
 IR Inten    --     15.3632                55.7335               242.1181

                     40                     41                     42
                      A                      A                      A
 Frequencies --   1821.0251              3039.5718              3067.2393
 Red. masses --      9.0013                 1.0444                 1.0912
 Frc consts  --     17.5868                 5.6854                 6.0485
 IR Inten    --    218.9028                12.5581                74.8092

                     43                     44                     45
                      A                      A                      A
 Frequencies --   3082.5759              3121.4388              3169.1320
 Red. masses --      1.0970                 1.0605                 1.0888
 Frc consts  --      6.1415                 6.0877                 6.4431
 IR Inten    --     14.8569                16.0106                 5.3625

                     46                     47                     48
                      A                      A                      A
 Frequencies --   3186.9745              3207.7593              3697.5407
 Red. masses --      1.1074                 1.0953                 1.0641
 Frc consts  --      6.6272                 6.6403                 8.5717
 IR Inten    --      5.0365                 1.8832                68.7403

 - Thermochemistry -
 -------------------
 Temperature   298.150 Kelvin.  Pressure   1.00000 Atm.
 Atom     1 has atomic number  6 and mass  12.00000

 Molecular mass:   144.04226 amu.
 Principal axes and moments of inertia in atomic units:
                           1         2         3
     Eigenvalues --  1010.506661751.689642464.18120
           X            0.99870  -0.05107  -0.00048
           Y            0.05106   0.99869  -0.00168
           Z            0.00057   0.00165   1.00000
 This molecule is an asymmetric top.
 Rotational symmetry number  1.
 Warning -- assumption of classical behavior for rotation
           may cause significant error
 Rotational temperatures (Kelvin)      0.08571     0.04945     0.03515
 Rotational constants (GHZ):           1.78598     1.03029     0.73239
 Zero-point vibrational energy     367667.1 (Joules/Mol)
                                   87.87455 (Kcal/Mol)
 Warning -- explicit consideration of  13 degrees of freedom as
           vibrations may cause significant error
 Vibrational temperatures:     57.91    76.22   110.84   141.12   194.94
          (Kelvin)            318.23   369.77   410.69   494.51   538.18
                              626.22   673.03   762.01   896.46   966.09
                             1085.67  1104.87  1166.96  1270.56  1329.51
                             1377.49  1492.75  1523.61  1562.62  1618.26
                             1695.19  1726.96  1780.40  1889.05  1950.63
                             2032.32  2045.86  2052.05  2079.49  2155.90
                             2183.28  2188.71  2468.29  2610.96  2620.05
                             4373.27  4413.07  4435.14  4491.05  4559.67
                             4585.35  4615.25  5319.94

 Zero-point correction=                           0.140037 (Hartree/Particle)
 Thermal correction to Energy=                    0.150520
 Thermal correction to Enthalpy=                  0.151464
 Thermal correction to Gibbs Free Energy=         0.102584
 Sum of electronic and zero-point Energies=           -534.233283
 Sum of electronic and thermal Energies=              -534.222801
 Sum of electronic and thermal Enthalpies=            -534.221856
 Sum of electronic and thermal Free Energies=         -534.270736

                     E (Thermal)             CV                S
                      KCal/Mol        Cal/Mol-Kelvin    Cal/Mol-Kelvin
 Total                   94.452             36.139            102.877
 Electronic               0.000              0.000              0.000
 Translational            0.889              2.981             40.806
 Rotational               0.889              2.981             29.857
 Vibrational             92.675             30.178             32.214
 Vibration     1          0.594              1.981              5.247
 Vibration     2          0.596              1.976              4.703
 Vibration     3          0.599              1.964              3.965
 Vibration     4          0.604              1.951              3.492
 Vibration     5          0.613              1.918              2.867
 Vibration     6          0.648              1.809              1.949
 Vibration     7          0.667              1.751              1.682
 Vibration     8          0.683              1.701              1.501
 Vibration     9          0.722              1.588              1.195
 Vibration    10          0.745              1.525              1.063
 Vibration    11          0.796              1.393              0.842
 Vibration    12          0.825              1.322              0.744
 Vibration    13          0.885              1.184              0.588

 Optimization completed.
    -- Stationary point found.
 Normal termination of Gaussian 16 at Tue Dec  8 12:26:49 2020.

 ----------------------------------------------------------------------
 # B3LYP/6-311++G(d,p) empiricaldispersion=gd3bj scf=xqc pop=npa geom=c
 heck
 ----------------------------------------------------------------------

 -------------------------------------
 CID_58069330_JID_512_Energie_neutraal
 -------------------------------------
 Structure from the checkpoint file:  "JID_512.chk"
 Charge =  0 Multiplicity = 1

 SCF Done:  E(RB3LYP) =  -534.543416729     A.U. after   15 cycles
 Normal termination of Gaussian 16 at Tue Dec  8 12:29:39 2020.

 ----------------------------------------------------------------------
 # B3LYP/6-311++G(d,p) empiricaldispersion=gd3bj scf=xqc pop=npa geom=c
 heck
 ----------------------------------------------------------------------

 -----------------------------------
 CID_58069330_JID_512_Energie_kation
 -----------------------------------
 Structure from the checkpoint file:  "JID_512.chk"
 Charge =  1 Multiplicity = 2

 SCF Done:  E(UB3LYP) =  -534.189177548     A.U. after   25 cycles
 Normal termination of Gaussian 16 at Tue Dec  8 12:40:03 2020.
 Gaussian 16:  ES64L-G16RevA.03 25-Dec-2016

 ----------------------------------------------------------------------
 # B3LYP/6-311++G(d,p) empiricaldispersion=gd3bj scf=xqc pop=npa geom=c
 heck
 ----------------------------------------------------------------------

 ----------------------------------
 CID_58069330_JID_512_Energie_anion
 ----------------------------------
 Structure from the checkpoint file:  "JID_512.chk"
 Charge = -1 Multiplicity = 2

                         Standard orientation:
 ---------------------------------------------------------------------
 Center     Atomic      Atomic             Coordinates (Angstroms)
 Number     Number       Type             X           Y           Z
 ---------------------------------------------------------------------
      1          6           0       -1.604713    2.331283    0.047457
      2          6           0       -0.492945    1.461729   -0.440352
      3          6           0       -0.394044    0.117264   -0.437735
      4          6           0        0.845618   -0.540285   -0.988618
      5          8           0        1.697872   -1.037071    0.084587
      6          6           0        2.517819   -0.133640    0.640614
      7          8           0        2.633913    1.025902    0.321865
      8          6           0       -1.450770   -0.764693    0.122033
      9          8           0       -2.441876   -0.425542    0.740412
     10          8           0       -1.198950   -2.077190   -0.134596
     11          1           0       -2.481154    1.762903    0.350607
     12          1           0       -1.873383    3.058052   -0.730001
     13          1           0       -1.251107    2.918409    0.906699
     14          1           0        0.365765    1.994975   -0.845808
     15          1           0        0.611418   -1.429587   -1.570846
     16          1           0        1.419595    0.164479   -1.591779
     17          1           0        3.089638   -0.620589    1.445122
     18          1           0       -1.934240   -2.567378    0.277467
 ---------------------------------------------------------------------

 SCF Done:  E(UB3LYP) =  -534.539818768     A.U. after   33 cycles
 SCF Done:  E(UB3LYP) =  -534.539818768     a.u. after    1 cycles

 The electronic state is 2-A.
 Alpha  occ. eigenvalues --  -19.03849 -18.99948 -18.99374 -18.92423 -10.17688
 Alpha  occ. eigenvalues --  -10.10737 -10.08089 -10.00732  -9.99908  -9.99051
 Alpha  occ. eigenvalues --   -0.97791  -0.93594  -0.89826  -0.83978  -0.65283
 Alpha  occ. eigenvalues --   -0.59471  -0.53829  -0.48025  -0.45399  -0.39976
 Alpha  occ. eigenvalues --   -0.38125  -0.35199  -0.34620  -0.32092  -0.29626
 Alpha  occ. eigenvalues --   -0.28478  -0.28243  -0.27083  -0.25875  -0.24565
 Alpha  occ. eigenvalues --   -0.22848  -0.21372  -0.20132  -0.17484  -0.16430
 Alpha  occ. eigenvalues --   -0.16204  -0.10614  -0.10199   0.06580
 Alpha virt. eigenvalues --    0.09230   0.10205   0.10461   0.10798   0.11440
 Alpha virt. eigenvalues --    0.12801   0.13587   0.14531   0.15825   0.16648
 Alpha virt. eigenvalues --    0.17002   0.17783   0.18859   0.19682   0.20709

  Beta  occ. eigenvalues --  -19.03835 -18.99853 -18.99351 -18.92155 -10.17684
  Beta  occ. eigenvalues --  -10.10416 -10.08080 -10.00781  -9.99877  -9.98382
  Beta  occ. eigenvalues --   -0.97766  -0.93256  -0.89791  -0.83552  -0.64751
  Beta  occ. eigenvalues --   -0.59029  -0.53521  -0.47472  -0.45219  -0.39913
  Beta  occ. eigenvalues --   -0.37527  -0.35137  -0.34442  -0.31775  -0.29396
  Beta  occ. eigenvalues --   -0.28120  -0.27719  -0.26416  -0.25176  -0.24323
  Beta  occ. eigenvalues --   -0.22627  -0.21224  -0.19863  -0.17381  -0.16353
  Beta  occ. eigenvalues --   -0.15025  -0.10188  -0.08167
  Beta virt. eigenvalues --    0.09154   0.10161   0.10454   0.10943   0.11536
  Beta virt. eigenvalues --    0.13001   0.13460   0.14269   0.14544   0.15786
  Beta virt. eigenvalues --    0.16605   0.16997   0.17788   0.18779   0.19610

 Mulliken charges and spin densities:
               1          2
     1  C   -0.469286  -0.345987
     2  C   -0.473567   0.369408
     3  C    0.133820   0.777918
     4  C    0.618357  -1.199422
     5  O   -0.024248   0.034620
     6  C    0.085434  -0.013672
     7  O   -0.304344   0.002628
     8  C   -0.378541   0.478535
     9  O   -0.429086   0.091735
    10  O   -0.232676   0.031455
    11  H    0.180842  -0.006335
    12  H    0.097131   0.005830
    13  H    0.035475   0.094269
    14  H    0.055486   0.063349
    15  H   -0.094811   0.297949
    16  H   -0.043710   0.224311
    17  H    0.043689   0.050233
    18  H    0.200036   0.043175
 Sum of Mulliken charges =  -1.00000   1.00000

 Dipole moment (field-independent basis, Debye):
    X=              1.9235    Y=             -1.4914    Z=              0.8008  Tot=              2.5623
 Quadrupole moment (field-independent basis, Debye-Ang):
   XX=            -86.0409   YY=            -76.9670   ZZ=            -70.3350
   XY=             -0.6700   XZ=              5.6056   YZ=             -2.5125

 Summary of Natural Population Analysis:

                                       Natural Population
                Natural  -----------------------------------------------
    Atom  No    Charge         Core      Valence    Rydberg      Total
 -----------------------------------------------------------------------
      C    1   -0.31517      0.99965     2.31020    0.00532     3.31517
      C    2    0.10008      0.99952     1.89143    0.00897     2.89992
      C    3   -0.12891      0.99941     2.11748    0.01203     3.12891
      C    4   -0.02703      0.99952     2.01195    0.01556     3.02703
      O    5   -0.27388      0.99988     3.26377    0.01023     4.27388
      C    6    0.33383      0.99977     1.64157    0.02483     2.66617
      O    7   -0.30150      0.99988     3.29505    0.00658     4.30150
      C    8    0.43395      0.99965     1.54107    0.02533     2.56605
      O    9   -0.32054      0.99987     3.31456    0.00611     4.32054
      O   10   -0.35638      0.99988     3.34949    0.00700     4.35638
      H   11    0.11666      0.00000     0.38211    0.00123     0.38334
      H   12    0.09455      0.00000     0.40434    0.00111     0.40545
      H   13    0.10141      0.00000     0.39700    0.00160     0.39859
      H   14    0.07807      0.00000     0.42070    0.00123     0.42193
      H   15    0.09830      0.00000     0.39962    0.00208     0.40170
      H   16    0.09264      0.00000     0.40563    0.00173     0.40736
      H   17    0.04648      0.00000     0.45158    0.00194     0.45352
      H   18    0.22745      0.00000     0.26803    0.00452     0.27255
 =======================================================================
   * Total *   -0.00000      9.99703    27.86559    0.13738    38.00000

 Normal termination of Gaussian 16 at Tue Dec  8 12:50:24 2020.
