 Gaussian 16, Revision A.03,

 -----------------------------------------------------------
 # opt freq B3LYP/6-31G(d) empiricaldispersion=gd3bj scf=xqc
 -----------------------------------------------------------

 ------------------------------
 CID_84600094_JID_8758_neutraal
 ------------------------------
 Symbolic Z-matrix:
 Charge =  0 Multiplicity = 1

 SCF Done:  E(RB3LYP) =  -817.990931527     A.U. after   15 cycles
 SCF Done:  E(RB3LYP) =  -817.994687457     A.U. after   12 cycles
 SCF Done:  E(RB3LYP) =  -817.995451584     A.U. after   13 cycles
 SCF Done:  E(RB3LYP) =  -817.994892549     A.U. after   13 cycles
 SCF Done:  E(RB3LYP) =  -817.996132704     A.U. after   12 cycles
 SCF Done:  E(RB3LYP) =  -817.996267201     A.U. after   12 cycles
 SCF Done:  E(RB3LYP) =  -817.996321230     A.U. after   12 cycles
 SCF Done:  E(RB3LYP) =  -817.996344865     A.U. after   11 cycles
 SCF Done:  E(RB3LYP) =  -817.996362459     A.U. after   11 cycles
 SCF Done:  E(RB3LYP) =  -817.996370081     A.U. after   11 cycles
 SCF Done:  E(RB3LYP) =  -817.996677949     A.U. after    7 cycles
 SCF Done:  E(RB3LYP) =  -817.996678162     A.U. after    7 cycles
 SCF Done:  E(RB3LYP) =  -817.996678905     A.U. after    9 cycles
 SCF Done:  E(RB3LYP) =  -817.996679215     A.U. after    9 cycles
 SCF Done:  E(RB3LYP) =  -817.996679344     A.U. after    9 cycles
 SCF Done:  E(RB3LYP) =  -817.996679354     A.U. after    7 cycles
 Optimization completed.
    -- Stationary point found.
 Normal termination of Gaussian 16 at Fri Dec 11 22:37:33 2020.

 --------------------------------------------------------------------
 #N Geom=AllCheck Guess=TCheck SCRF=Check GenChk RB3LYP/6-31G(d) Freq
 --------------------------------------------------------------------

 Structure from the checkpoint file:  "JID_8758.chk"
 ------------------------------
 CID_84600094_JID_8758_neutraal
 ------------------------------
 Charge =  0 Multiplicity = 1

 SCF Done:  E(RB3LYP) =  -817.996679353     A.U. after    1 cycles

  Exact polarizability: 202.994  26.122 144.662  -0.694   9.843 113.147
 Approx polarizability: 273.914  42.005 236.875   1.222  25.010 199.070

                      1                      2                      3
                      A                      A                      A
 Frequencies --     11.3645                20.9971                27.6635
 Red. masses --      5.0959                 4.3546                 2.3888
 Frc consts  --      0.0004                 0.0011                 0.0011
 IR Inten    --      0.1807                 0.0672                 0.1760

                      4                      5                      6
                      A                      A                      A
 Frequencies --     31.0472                52.1615                56.5777
 Red. masses --      1.3086                 4.3325                 1.1622
 Frc consts  --      0.0007                 0.0069                 0.0022
 IR Inten    --      1.0346                 3.6937                 0.8544

                      7                      8                      9
                      A                      A                      A
 Frequencies --    133.6450               150.9757               159.1805
 Red. masses --      5.5101                 4.9136                 4.3805
 Frc consts  --      0.0580                 0.0660                 0.0654
 IR Inten    --      1.4431                 0.5270                 0.5686

                     10                     11                     12
                      A                      A                      A
 Frequencies --    190.5724               208.4204               226.3740
 Red. masses --      3.7031                 4.7981                 4.2226
 Frc consts  --      0.0792                 0.1228                 0.1275
 IR Inten    --      4.9991                 1.8378                 2.9421

                     13                     14                     15
                      A                      A                      A
 Frequencies --    270.5942               306.5020               343.2425
 Red. masses --      2.9877                 3.9065                 3.7760
 Frc consts  --      0.1289                 0.2162                 0.2621
 IR Inten    --      2.0840                 0.3668                21.2789

                     16                     17                     18
                      A                      A                      A
 Frequencies --    404.9812               416.8687               450.9713
 Red. masses --      4.3763                 3.6334                 3.9786
 Frc consts  --      0.4229                 0.3720                 0.4767
 IR Inten    --      2.0084                 2.4584                 3.8427

                     19                     20                     21
                      A                      A                      A
 Frequencies --    482.4153               527.3125               549.1194
 Red. masses --      4.7130                 5.6056                 3.9264
 Frc consts  --      0.6462                 0.9184                 0.6976
 IR Inten    --      2.9248                11.4077                 2.5537

                     22                     23                     24
                      A                      A                      A
 Frequencies --    554.2835               576.6027               588.0612
 Red. masses --      4.9714                 2.9588                 4.6758
 Frc consts  --      0.8999                 0.5796                 0.9527
 IR Inten    --      5.7836                 1.0794                 2.9244

                     25                     26                     27
                      A                      A                      A
 Frequencies --    633.4551               666.1495               711.6638
 Red. masses --      7.2833                 4.7205                 5.3681
 Frc consts  --      1.7219                 1.2342                 1.6018
 IR Inten    --      7.8405                 5.3520                20.4885

                     28                     29                     30
                      A                      A                      A
 Frequencies --    723.7931               761.3269               771.6165
 Red. masses --      5.2266                 1.6665                 3.7977
 Frc consts  --      1.6132                 0.5691                 1.3322
 IR Inten    --     27.1534                23.7165                 2.5740

                     31                     32                     33
                      A                      A                      A
 Frequencies --    831.1476               839.0011               905.1489
 Red. masses --      3.3603                 3.9548                 1.2537
 Frc consts  --      1.3677                 1.6402                 0.6052
 IR Inten    --      4.8223                 3.0377                 7.3709

                     34                     35                     36
                      A                      A                      A
 Frequencies --    930.3512               946.6115               975.4141
 Red. masses --      1.3075                 3.2134                 3.4519
 Frc consts  --      0.6668                 1.6965                 1.9350
 IR Inten    --      0.9044                15.9548                 4.2848

                     37                     38                     39
                      A                      A                      A
 Frequencies --    986.5411              1015.7486              1016.4535
 Red. masses --      1.4295                 8.1395                 7.1314
 Frc consts  --      0.8197                 4.9479                 4.3411
 IR Inten    --      0.2977                 0.0984                12.3458

                     40                     41                     42
                      A                      A                      A
 Frequencies --   1018.3525              1026.0362              1050.6838
 Red. masses --      1.3226                 2.7861                 2.1776
 Frc consts  --      0.8081                 1.7281                 1.4164
 IR Inten    --      0.1609                 4.4092                 6.5183

                     43                     44                     45
                      A                      A                      A
 Frequencies --   1060.1986              1065.9872              1072.1429
 Red. masses --      2.4359                 1.9054                 1.6694
 Frc consts  --      1.6132                 1.2757                 1.1306
 IR Inten    --      0.2436                 1.8271                11.6099

                     46                     47                     48
                      A                      A                      A
 Frequencies --   1076.7494              1081.7538              1124.5305
 Red. masses --      2.2264                 1.6336                 1.5109
 Frc consts  --      1.5208                 1.1263                 1.1257
 IR Inten    --     12.6298                 0.3855                 8.6872

                     49                     50                     51
                      A                      A                      A
 Frequencies --   1165.5558              1184.2248              1205.5037
 Red. masses --      4.3594                 1.1239                 1.5132
 Frc consts  --      3.4894                 0.9287                 1.2957
 IR Inten    --    280.4283                 1.6876                 8.7843

                     52                     53                     54
                      A                      A                      A
 Frequencies --   1268.3621              1296.4617              1308.5707
 Red. masses --      6.3130                 1.3256                 3.1377
 Frc consts  --      5.9837                 1.3127                 3.1656
 IR Inten    --      0.3560                23.0062               247.0380

                     55                     56                     57
                      A                      A                      A
 Frequencies --   1334.6675              1343.5478              1376.8408
 Red. masses --      1.6272                 3.4835                 2.2556
 Frc consts  --      1.7078                 3.7049                 2.5193
 IR Inten    --     48.7391               127.5415                72.6065

                     58                     59                     60
                      A                      A                      A
 Frequencies --   1398.0862              1410.5845              1434.9891
 Red. masses --      3.2548                 1.7141                 1.4314
 Frc consts  --      3.7484                 2.0095                 1.7367
 IR Inten    --     36.7129                 7.2888                18.6413

                     61                     62                     63
                      A                      A                      A
 Frequencies --   1451.5518              1463.1219              1481.9221
 Red. masses --      2.0605                 2.7001                 2.1493
 Frc consts  --      2.5579                 3.4056                 2.7810
 IR Inten    --     25.0628                19.1727                16.0985

                     64                     65                     66
                      A                      A                      A
 Frequencies --   1493.0453              1504.7121              1508.6381
 Red. masses --      1.1297                 1.0456                 1.0593
 Frc consts  --      1.4837                 1.3948                 1.4205
 IR Inten    --     31.5839                 6.8379                 6.4607

                     67                     68                     69
                      A                      A                      A
 Frequencies --   1511.9638              1518.4142              1519.5082
 Red. masses --      1.1096                 2.2712                 1.2620
 Frc consts  --      1.4945                 3.0852                 1.7168
 IR Inten    --     23.8454                 3.9610                34.2545

                     70                     71                     72
                      A                      A                      A
 Frequencies --   1615.5364              1633.5581              1640.4467
 Red. masses --      7.5419                 6.0077                 6.0308
 Frc consts  --     11.5976                 9.4456                 9.5620
 IR Inten    --    155.5181                11.3992               210.3778

                     73                     74                     75
                      A                      A                      A
 Frequencies --   1643.9793              1805.8396              3059.4720
 Red. masses --      5.4168                12.0249                 1.0360
 Frc consts  --      8.6255                23.1041                 5.7136
 IR Inten    --      7.7591               168.3641                10.9077

                     76                     77                     78
                      A                      A                      A
 Frequencies --   3062.5539              3099.1705              3119.2724
 Red. masses --      1.0384                 1.0587                 1.0994
 Frc consts  --      5.7382                 5.9910                 6.3027
 IR Inten    --     10.0668                18.0974                10.3270

                     79                     80                     81
                      A                      A                      A
 Frequencies --   3120.2233              3144.9732              3155.4448
 Red. masses --      1.1004                 1.1036                 1.1067
 Frc consts  --      6.3119                 6.4310                 6.4923
 IR Inten    --     10.4487                15.7378                 1.6704

                     82                     83                     84
                      A                      A                      A
 Frequencies --   3170.0210              3178.5122              3202.2450
 Red. masses --      1.1022                 1.0894                 1.0891
 Frc consts  --      6.5256                 6.4844                 6.5802
 IR Inten    --      9.8397                19.0420                10.0441

                     85                     86                     87
                      A                      A                      A
 Frequencies --   3218.7692              3231.4460              3241.4108
 Red. masses --      1.0961                 1.0923                 1.0937
 Frc consts  --      6.6908                 6.7203                 6.7706
 IR Inten    --     18.6540                 1.0361                 1.4148

 - Thermochemistry -
 -------------------
 Temperature   298.150 Kelvin.  Pressure   1.00000 Atm.
 Atom     1 has atomic number  6 and mass  12.00000

 Molecular mass:   243.10078 amu.
 Principal axes and moments of inertia in atomic units:
                           1         2         3
     Eigenvalues --  1902.875228865.238999822.72577
           X            0.99999   0.00401   0.00018
           Y           -0.00401   0.99999  -0.00337
           Z           -0.00019   0.00337   0.99999
 This molecule is an asymmetric top.
 Rotational symmetry number  1.
 Warning -- assumption of classical behavior for rotation
           may cause significant error
 Rotational temperatures (Kelvin)      0.04552     0.00977     0.00882
 Rotational constants (GHZ):           0.94843     0.20358     0.18373
 Zero-point vibrational energy     643315.4 (Joules/Mol)
                                  153.75607 (Kcal/Mol)
 Warning -- explicit consideration of  24 degrees of freedom as
           vibrations may cause significant error
 Vibrational temperatures:     16.35    30.21    39.80    44.67    75.05
          (Kelvin)             81.40   192.29   217.22   229.03   274.19
                              299.87   325.70   389.32   440.99   493.85
                              582.68   599.78   648.85   694.09   758.69
                              790.06   797.49   829.60   846.09   911.40
                              958.44  1023.93  1041.38  1095.38  1110.18
                             1195.84  1207.14  1302.31  1338.57  1361.96
                             1403.40  1419.41  1461.44  1462.45  1465.18
                             1476.24  1511.70  1525.39  1533.72  1542.57
                             1549.20  1556.40  1617.95  1676.97  1703.84
                             1734.45  1824.89  1865.32  1882.74  1920.29
                             1933.07  1980.97  2011.53  2029.52  2064.63
                             2088.46  2105.11  2132.16  2148.16  2164.95
                             2170.59  2175.38  2184.66  2186.23  2324.40
                             2350.33  2360.24  2365.32  2598.20  4401.90
                             4406.33  4459.02  4487.94  4489.31  4524.91
                             4539.98  4560.95  4573.17  4607.32  4631.09
                             4649.33  4663.67

 Zero-point correction=                           0.245026 (Hartree/Particle)
 Thermal correction to Energy=                    0.261474
 Thermal correction to Enthalpy=                  0.262418
 Thermal correction to Gibbs Free Energy=         0.196055
 Sum of electronic and zero-point Energies=           -817.751653
 Sum of electronic and thermal Energies=              -817.735206
 Sum of electronic and thermal Enthalpies=            -817.734262
 Sum of electronic and thermal Free Energies=         -817.800624

                     E (Thermal)             CV                S
                      KCal/Mol        Cal/Mol-Kelvin    Cal/Mol-Kelvin
 Total                  164.077             59.631            139.672
 Electronic               0.000              0.000              0.000
 Translational            0.889              2.981             42.366
 Rotational               0.889              2.981             33.471
 Vibrational            162.300             53.669             63.835
 Vibration     1          0.593              1.987              7.757
 Vibration     2          0.593              1.986              6.538
 Vibration     3          0.593              1.984              5.990
 Vibration     4          0.594              1.983              5.761
 Vibration     5          0.596              1.977              4.734
 Vibration     6          0.596              1.975              4.573
 Vibration     7          0.613              1.920              2.893
 Vibration     8          0.618              1.902              2.660
 Vibration     9          0.621              1.892              2.560
 Vibration    10          0.634              1.853              2.222
 Vibration    11          0.642              1.828              2.057
 Vibration    12          0.650              1.801              1.908
 Vibration    13          0.674              1.727              1.592
 Vibration    14          0.697              1.661              1.381
 Vibration    15          0.722              1.589              1.197
 Vibration    16          0.770              1.459              0.945
 Vibration    17          0.780              1.434              0.903
 Vibration    18          0.810              1.359              0.793
 Vibration    19          0.839              1.289              0.704
 Vibration    20          0.882              1.190              0.593
 Vibration    21          0.904              1.142              0.546
 Vibration    22          0.910              1.130              0.535
 Vibration    23          0.933              1.082              0.492
 Vibration    24          0.945              1.057              0.471

 Optimization completed.
    -- Stationary point found.
 Normal termination of Gaussian 16 at Fri Dec 11 22:47:46 2020.

 ----------------------------------------------------------------------
 # B3LYP/6-311++G(d,p) empiricaldispersion=gd3bj scf=xqc pop=npa geom=c
 heck
 ----------------------------------------------------------------------

 --------------------------------------
 CID_84600094_JID_8758_Energie_neutraal
 --------------------------------------
 Structure from the checkpoint file:  "JID_8758.chk"
 Charge =  0 Multiplicity = 1

 SCF Done:  E(RB3LYP) =  -818.214629736     A.U. after   16 cycles
 Normal termination of Gaussian 16 at Fri Dec 11 22:52:09 2020.

 ----------------------------------------------------------------------
 # B3LYP/6-311++G(d,p) empiricaldispersion=gd3bj scf=xqc pop=npa geom=c
 heck
 ----------------------------------------------------------------------

 ------------------------------------
 CID_84600094_JID_8758_Energie_kation
 ------------------------------------
 Structure from the checkpoint file:  "JID_8758.chk"
 Charge =  1 Multiplicity = 2

 SCF Done:  E(UB3LYP) =  -817.894554655     A.U. after   31 cycles
 Normal termination of Gaussian 16 at Fri Dec 11 23:03:39 2020.
 Gaussian 16:  ES64L-G16RevA.03 25-Dec-2016

 ----------------------------------------------------------------------
 # B3LYP/6-311++G(d,p) empiricaldispersion=gd3bj scf=xqc pop=npa geom=c
 heck
 ----------------------------------------------------------------------

 -----------------------------------
 CID_84600094_JID_8758_Energie_anion
 -----------------------------------
 Structure from the checkpoint file:  "JID_8758.chk"
 Charge = -1 Multiplicity = 2

                         Standard orientation:
 ---------------------------------------------------------------------
 Center     Atomic      Atomic             Coordinates (Angstroms)
 Number     Number       Type             X           Y           Z
 ---------------------------------------------------------------------
      1          6           0       -2.240915    3.034506   -0.337311
      2          6           0       -2.441913    1.561541   -0.110690
      3          6           0       -1.413754    0.733785    0.340303
      4          6           0       -1.718254   -0.616370    0.503046
      5          7           0       -2.935859   -1.108611    0.258553
      6          6           0       -3.862582   -0.233866   -0.166279
      7          7           0       -3.669249    1.075723   -0.366050
      8          6           0       -5.232083   -0.786272   -0.451214
      9          6           0       -0.703901   -1.623947    0.992638
     10          8           0        0.616802   -1.066639    1.024929
     11          6           0        1.313015   -1.141263   -0.126968
     12          8           0        0.945651   -1.748137   -1.112378
     13          6           0        2.607268   -0.386614   -0.063908
     14          6           0        3.523298   -0.575502   -1.103177
     15          6           0        4.721775    0.131783   -1.063143
     16          6           0        4.948254    1.001331    0.002137
     17          6           0        3.960890    1.125997    0.983411
     18          7           0        2.810013    0.449475    0.964253
     19          1           0       -2.422647    3.280070   -1.389616
     20          1           0       -1.228914    3.350796   -0.070237
     21          1           0       -2.962728    3.608235    0.253815
     22          1           0       -0.424659    1.117429    0.560909
     23          1           0       -5.186042   -1.496237   -1.285090
     24          1           0       -5.608350   -1.336890    0.417283
     25          1           0       -5.920733    0.021272   -0.704625
     26          1           0       -0.924493   -1.908729    2.024675
     27          1           0       -0.732569   -2.512092    0.358688
     28          1           0        3.279375   -1.259268   -1.907704
     29          1           0        5.462044    0.008909   -1.848172
     30          1           0        5.866591    1.575573    0.075248
     31          1           0        4.102588    1.802396    1.824056
 ---------------------------------------------------------------------

 SCF Done:  E(UB3LYP) =  -818.230375246     A.U. after   30 cycles

 The electronic state is 2-A.
 Alpha  occ. eigenvalues --  -19.02115 -18.95006 -14.19650 -14.19639 -14.15384
 Alpha  occ. eigenvalues --  -10.13657 -10.13168 -10.11439 -10.10779 -10.10461
 Alpha  occ. eigenvalues --  -10.07393 -10.07253 -10.06609 -10.06472 -10.05005
 Alpha  occ. eigenvalues --  -10.04484 -10.03659 -10.03082  -0.96264  -0.87597
 Alpha  occ. eigenvalues --   -0.86930  -0.79738  -0.78078  -0.70545  -0.66196
 Alpha  occ. eigenvalues --   -0.63967  -0.63046  -0.61775  -0.59891  -0.52436
 Alpha  occ. eigenvalues --   -0.50369  -0.49247  -0.48493  -0.43553  -0.41665
 Alpha  occ. eigenvalues --   -0.39842  -0.38025  -0.35903  -0.35134  -0.34418
 Alpha  occ. eigenvalues --   -0.33841  -0.33226  -0.32624  -0.32381  -0.31104
 Alpha  occ. eigenvalues --   -0.30291  -0.29640  -0.29412  -0.28364  -0.27459
 Alpha  occ. eigenvalues --   -0.27224  -0.26233  -0.24619  -0.23661  -0.21721
 Alpha  occ. eigenvalues --   -0.19401  -0.18973  -0.17342  -0.16086  -0.15482
 Alpha  occ. eigenvalues --   -0.14249  -0.14078  -0.12724  -0.11021   0.04059
 Alpha virt. eigenvalues --    0.06149   0.07384   0.08131   0.08237   0.08574
 Alpha virt. eigenvalues --    0.09921   0.10144   0.10810   0.10866   0.11494
 Alpha virt. eigenvalues --    0.11558   0.12275   0.12751   0.12874   0.13313

  Beta  occ. eigenvalues --  -19.02047 -18.94746 -14.19593 -14.19563 -14.15055
  Beta  occ. eigenvalues --  -10.13661 -10.12949 -10.11358 -10.10793 -10.10298
  Beta  occ. eigenvalues --  -10.07400 -10.07253 -10.06705 -10.06509 -10.04756
  Beta  occ. eigenvalues --  -10.04413 -10.03632 -10.02775  -0.96008  -0.87428
  Beta  occ. eigenvalues --   -0.86561  -0.79202  -0.77892  -0.70427  -0.65731
  Beta  occ. eigenvalues --   -0.63724  -0.62874  -0.61585  -0.59803  -0.52011
  Beta  occ. eigenvalues --   -0.50270  -0.48944  -0.48245  -0.43361  -0.41520
  Beta  occ. eigenvalues --   -0.39682  -0.37924  -0.35671  -0.34862  -0.34245
  Beta  occ. eigenvalues --   -0.33789  -0.32909  -0.32552  -0.32250  -0.30840
  Beta  occ. eigenvalues --   -0.30037  -0.29457  -0.29191  -0.28302  -0.27143
  Beta  occ. eigenvalues --   -0.26555  -0.26049  -0.23692  -0.23471  -0.21473
  Beta  occ. eigenvalues --   -0.19274  -0.18465  -0.16494  -0.15805  -0.14201
  Beta  occ. eigenvalues --   -0.13975  -0.13778  -0.11379  -0.10588
  Beta virt. eigenvalues --    0.07199   0.07354   0.08171   0.08294   0.08539
  Beta virt. eigenvalues --    0.09878   0.10032   0.10112   0.10861   0.11144
  Beta virt. eigenvalues --    0.11477   0.11526   0.12282   0.12715   0.12840

 Mulliken charges and spin densities:
               1          2
     1  C   -0.540086  -0.022037
     2  C   -0.254271   0.035470
     3  C    0.295733  -0.010956
     4  C   -0.304695   0.094373
     5  N    0.026098   0.023669
     6  C   -0.173573   0.004499
     7  N   -0.033498   0.045764
     8  C   -0.378647   0.008754
     9  C   -0.144751  -0.026215
    10  O    0.073054   0.009908
    11  C   -0.901778   0.084142
    12  O   -0.298200   0.091533
    13  C    0.217010   0.187670
    14  C    0.477147   0.034364
    15  C   -0.793899   0.061686
    16  C    0.072571   0.256388
    17  C   -0.264277  -0.064079
    18  N   -0.066426   0.156760
    19  H    0.145669   0.010814
    20  H    0.144381  -0.000575
    21  H    0.142520   0.005309
    22  H    0.186186   0.004644
    23  H    0.155750  -0.000201
    24  H    0.143587   0.001775
    25  H    0.140893  -0.000456
    26  H    0.147592   0.030827
    27  H    0.224973  -0.002696
    28  H    0.192616  -0.001504
    29  H    0.117658  -0.005662
    30  H    0.119543  -0.019148
    31  H    0.131120   0.005175
 Sum of Mulliken charges =  -1.00000   1.00000

 Dipole moment (field-independent basis, Debye):
    X=             -4.0152    Y=              1.8371    Z=              0.6722  Tot=              4.4664
 Quadrupole moment (field-independent basis, Debye-Ang):
   XX=           -159.3015   YY=           -119.1050   ZZ=           -116.8250
   XY=              2.2441   XZ=             -3.2228   YZ=             -2.1935

 Summary of Natural Population Analysis:

                                       Natural Population
                Natural  -----------------------------------------------
    Atom  No    Charge         Core      Valence    Rydberg      Total
 -----------------------------------------------------------------------
      C    1   -0.29992      0.99964     2.29533    0.00495     3.29992
      C    2    0.13891      0.99956     1.84958    0.01195     2.86109
      C    3   -0.15334      0.99945     2.14662    0.00728     3.15334
      C    4    0.15199      0.99954     1.83642    0.01205     2.84801
      N    5   -0.26243      0.99964     2.75043    0.01235     3.76243
      C    6    0.21871      0.99964     1.76522    0.01643     2.78129
      N    7   -0.26357      0.99964     2.75220    0.01173     3.76357
      C    8   -0.30116      0.99963     2.29681    0.00471     3.30116
      C    9   -0.03088      0.99953     2.01991    0.01145     3.03088
      O   10   -0.27368      0.99986     3.26449    0.00933     4.27368
      C   11    0.41922      0.99965     1.55656    0.02457     2.58078
      O   12   -0.30006      0.99987     3.29453    0.00565     4.30006
      C   13    0.08513      0.99948     1.90182    0.01356     2.91487
      C   14   -0.09733      0.99954     2.08922    0.00857     3.09733
      C   15   -0.08885      0.99958     2.08005    0.00922     3.08885
      C   16   -0.07375      0.99957     2.06491    0.00927     3.07375
      C   17   -0.00436      0.99961     1.98967    0.01508     3.00436
      N   18   -0.17912      0.99969     2.66955    0.00989     3.67912
      H   19    0.10697      0.00000     0.39208    0.00095     0.39303
      H   20    0.10207      0.00000     0.39718    0.00076     0.39793
      H   21    0.10488      0.00000     0.39413    0.00099     0.39512
      H   22    0.12007      0.00000     0.37843    0.00150     0.37993
      H   23    0.10520      0.00000     0.39394    0.00087     0.39480
      H   24    0.10372      0.00000     0.39542    0.00086     0.39628
      H   25    0.10367      0.00000     0.39553    0.00080     0.39633
      H   26    0.09652      0.00000     0.40241    0.00107     0.40348
      H   27    0.10758      0.00000     0.39093    0.00149     0.39242
      H   28    0.10667      0.00000     0.39222    0.00110     0.39333
      H   29    0.08988      0.00000     0.40907    0.00106     0.41012
      H   30    0.08835      0.00000     0.41048    0.00117     0.41165
      H   31    0.07894      0.00000     0.41973    0.00133     0.42106
 =======================================================================
   * Total *   -0.00000     17.99311    45.79486    0.21202    64.00000

 Normal termination of Gaussian 16 at Fri Dec 11 23:14:49 2020.
