 Gaussian 16, Revision A.03,

 -----------------------------------------------------------
 # opt freq B3LYP/6-31G(d) empiricaldispersion=gd3bj scf=xqc
 -----------------------------------------------------------

 -------------------------------
 CID_68260932_JID_10527_neutraal
 -------------------------------
 Symbolic Z-matrix:
 Charge =  0 Multiplicity = 1

 SCF Done:  E(RB3LYP) =  -921.460441197     A.U. after   15 cycles
 SCF Done:  E(RB3LYP) =  -921.465110187     A.U. after   12 cycles
 SCF Done:  E(RB3LYP) =  -921.465749447     A.U. after   11 cycles
 SCF Done:  E(RB3LYP) =  -921.465656364     A.U. after   12 cycles
 SCF Done:  E(RB3LYP) =  -921.465767288     A.U. after   11 cycles
 SCF Done:  E(RB3LYP) =  -921.465902109     A.U. after   10 cycles
 SCF Done:  E(RB3LYP) =  -921.465917974     A.U. after   10 cycles
 SCF Done:  E(RB3LYP) =  -921.465922404     A.U. after   10 cycles
 SCF Done:  E(RB3LYP) =  -921.465923113     A.U. after    7 cycles
 SCF Done:  E(RB3LYP) =  -921.465923291     A.U. after    7 cycles
 SCF Done:  E(RB3LYP) =  -921.465923333     A.U. after    7 cycles
 SCF Done:  E(RB3LYP) =  -921.465923359     A.U. after    7 cycles
 Optimization completed.
    -- Stationary point found.
 Normal termination of Gaussian 16 at Mon Dec 14 13:50:55 2020.

 --------------------------------------------------------------------
 #N Geom=AllCheck Guess=TCheck SCRF=Check GenChk RB3LYP/6-31G(d) Freq
 --------------------------------------------------------------------

 Structure from the checkpoint file:  "JID_10527.chk"
 -------------------------------
 CID_68260932_JID_10527_neutraal
 -------------------------------
 Charge =  0 Multiplicity = 1

 SCF Done:  E(RB3LYP) =  -921.465923359     A.U. after    1 cycles

  Exact polarizability: 211.210 -18.161 161.146 -15.482 -20.923 130.160
 Approx polarizability: 285.649 -22.300 258.479 -32.860 -54.487 208.722

                      1                      2                      3
                      A                      A                      A
 Frequencies --     22.2384                30.4394                52.5159
 Red. masses --      4.7970                 4.3323                 4.7897
 Frc consts  --      0.0014                 0.0024                 0.0078
 IR Inten    --      0.5412                 0.0113                 0.7694

                      4                      5                      6
                      A                      A                      A
 Frequencies --     76.6705                98.7320               105.5891
 Red. masses --      6.1576                 2.5062                 1.8881
 Frc consts  --      0.0213                 0.0144                 0.0124
 IR Inten    --      1.7247                 2.3634                 1.4800

                      7                      8                      9
                      A                      A                      A
 Frequencies --    131.9461               145.0304               168.2620
 Red. masses --      3.9111                 2.8362                 1.8658
 Frc consts  --      0.0401                 0.0351                 0.0311
 IR Inten    --      0.1417                 0.0078                 0.3116

                     10                     11                     12
                      A                      A                      A
 Frequencies --    170.7098               184.8679               227.1015
 Red. masses --      2.3237                 1.4270                 3.7508
 Frc consts  --      0.0399                 0.0287                 0.1140
 IR Inten    --      1.4227                 1.7009                 2.3999

                     13                     14                     15
                      A                      A                      A
 Frequencies --    257.5185               289.0995               297.5741
 Red. masses --      4.5579                 4.2902                 3.9922
 Frc consts  --      0.1781                 0.2113                 0.2083
 IR Inten    --      1.5809                 1.3815                13.7092

                     16                     17                     18
                      A                      A                      A
 Frequencies --    339.7584               356.1298               392.1801
 Red. masses --      2.7883                 4.6142                 3.7868
 Frc consts  --      0.1896                 0.3448                 0.3432
 IR Inten    --      1.8799                 5.8629                 9.8420

                     19                     20                     21
                      A                      A                      A
 Frequencies --    417.0076               417.0305               444.4742
 Red. masses --      3.7268                 4.3076                 3.6880
 Frc consts  --      0.3818                 0.4414                 0.4293
 IR Inten    --      0.6329                 1.2719                 1.5111

                     22                     23                     24
                      A                      A                      A
 Frequencies --    460.5012               467.4074               501.3319
 Red. masses --      4.1691                 4.0389                 4.7715
 Frc consts  --      0.5209                 0.5199                 0.7066
 IR Inten    --      2.9007                 2.9414                 2.5769

                     25                     26                     27
                      A                      A                      A
 Frequencies --    577.0978               585.2127               634.2317
 Red. masses --      3.6755                 3.9089                 6.4083
 Frc consts  --      0.7212                 0.7887                 1.5188
 IR Inten    --      4.4813                 1.1624                 0.3966

                     28                     29                     30
                      A                      A                      A
 Frequencies --    679.7475               688.3376               700.4377
 Red. masses --      4.3035                 5.5522                 3.3648
 Frc consts  --      1.1716                 1.5500                 0.9726
 IR Inten    --     19.8539                 2.0921                 1.8009

                     31                     32                     33
                      A                      A                      A
 Frequencies --    720.7880               726.7179               737.8935
 Red. masses --      1.8540                 1.8283                 3.3727
 Frc consts  --      0.5675                 0.5689                 1.0820
 IR Inten    --     25.8604                90.6953                 0.7364

                     34                     35                     36
                      A                      A                      A
 Frequencies --    812.7911               817.3890               850.0447
 Red. masses --      2.7662                 3.9384                 3.6229
 Frc consts  --      1.0767                 1.5503                 1.5424
 IR Inten    --      2.3858                 4.8727                 1.6657

                     37                     38                     39
                      A                      A                      A
 Frequencies --    859.6247               867.8203               882.4644
 Red. masses --      5.6118                 1.2469                 2.1303
 Frc consts  --      2.4433                 0.5533                 0.9774
 IR Inten    --      3.4661                 0.0582                 3.6047

                     40                     41                     42
                      A                      A                      A
 Frequencies --    916.5294               940.8952               953.9552
 Red. masses --      2.5782                 1.3785                 1.4111
 Frc consts  --      1.2760                 0.7190                 0.7566
 IR Inten    --      6.4631                 1.4159                 1.7586

                     43                     44                     45
                      A                      A                      A
 Frequencies --    970.0861               980.5183               983.2073
 Red. masses --      2.0303                 2.4902                 1.3739
 Frc consts  --      1.1257                 1.4106                 0.7825
 IR Inten    --      3.8883                 9.4336                 0.0853

                     46                     47                     48
                      A                      A                      A
 Frequencies --    987.8947              1006.5097              1023.6112
 Red. masses --      2.8259                 1.2691                 6.1618
 Frc consts  --      1.6249                 0.7575                 3.8039
 IR Inten    --      8.0898                 0.2364                 2.6006

                     49                     50                     51
                      A                      A                      A
 Frequencies --   1028.3501              1040.0709              1056.3015
 Red. masses --      3.7281                 3.1535                 2.3720
 Frc consts  --      2.3228                 2.0099                 1.5593
 IR Inten    --      4.0885                28.4991                16.9019

                     52                     53                     54
                      A                      A                      A
 Frequencies --   1067.1836              1076.7835              1109.6698
 Red. masses --      2.9005                 2.7050                 1.8101
 Frc consts  --      1.9462                 1.8479                 1.3132
 IR Inten    --      5.2626                43.8778                63.1459

                     55                     56                     57
                      A                      A                      A
 Frequencies --   1110.3579              1132.3461              1140.0211
 Red. masses --      2.5488                 1.3277                 3.2258
 Frc consts  --      1.8515                 1.0030                 2.4701
 IR Inten    --    118.7726                 7.8343               107.5996

                     58                     59                     60
                      A                      A                      A
 Frequencies --   1156.0483              1161.7181              1187.4606
 Red. masses --      4.7676                 3.4884                 1.2935
 Frc consts  --      3.7541                 2.7738                 1.0746
 IR Inten    --     82.7587               157.2241                 2.2790

                     61                     62                     63
                      A                      A                      A
 Frequencies --   1192.4191              1194.6578              1207.2311
 Red. masses --      1.2937                 1.1039                 1.2343
 Frc consts  --      1.0838                 0.9283                 1.0598
 IR Inten    --      1.4356                 0.3859                40.2855

                     64                     65                     66
                      A                      A                      A
 Frequencies --   1209.0196              1226.9320              1228.2671
 Red. masses --      1.2255                 1.6025                 1.6714
 Frc consts  --      1.0555                 1.4213                 1.4856
 IR Inten    --     33.0577                46.6952                36.0497

                     67                     68                     69
                      A                      A                      A
 Frequencies --   1231.0832              1252.2498              1279.6154
 Red. masses --      1.6788                 1.7603                 1.4232
 Frc consts  --      1.4991                 1.6264                 1.3730
 IR Inten    --     55.1755                12.6495                27.3326

                     70                     71                     72
                      A                      A                      A
 Frequencies --   1309.4754              1320.9499              1324.1030
 Red. masses --      2.3337                 1.8955                 1.6983
 Frc consts  --      2.3577                 1.9487                 1.7543
 IR Inten    --    382.1611               216.3006                31.2615

                     73                     74                     75
                      A                      A                      A
 Frequencies --   1353.3809              1359.4305              1369.6244
 Red. masses --      1.5106                 1.7139                 2.4224
 Frc consts  --      1.6302                 1.8661                 2.6773
 IR Inten    --     19.7612                43.0673                11.5967

                     76                     77                     78
                      A                      A                      A
 Frequencies --   1370.8406              1418.0707              1485.8259
 Red. masses --      2.9555                 1.3340                 1.1409
 Frc consts  --      3.2724                 1.5806                 1.4839
 IR Inten    --     14.5735                 7.8871                 0.2754

                     79                     80                     81
                      A                      A                      A
 Frequencies --   1498.9804              1499.6297              1515.3707
 Red. masses --      1.1701                 2.2612                 1.0903
 Frc consts  --      1.5490                 2.9961                 1.4752
 IR Inten    --      1.1498                15.7385                 2.3405

                     82                     83                     84
                      A                      A                      A
 Frequencies --   1519.2588              1522.7435              1537.6201
 Red. masses --      1.0569                 1.0569                 1.0482
 Frc consts  --      1.4374                 1.4439                 1.4601
 IR Inten    --      3.2338                 2.2980                 5.6569

                     85                     86                     87
                      A                      A                      A
 Frequencies --   1543.2188              1544.0567              1644.8734
 Red. masses --      2.2528                 1.0523                 5.8031
 Frc consts  --      3.1610                 1.4781                 9.2507
 IR Inten    --      1.5720                 5.7637                 4.9492

                     88                     89                     90
                      A                      A                      A
 Frequencies --   1662.7255              1665.3652              1789.0719
 Red. masses --      5.7063                 5.5933                12.5373
 Frc consts  --      9.2950                 9.1398                23.6435
 IR Inten    --      0.9243                13.5240               203.7801

                     91                     92                     93
                      A                      A                      A
 Frequencies --   3028.3787              3029.2725              3094.0243
 Red. masses --      1.0387                 1.0380                 1.1010
 Frc consts  --      5.6125                 5.6122                 6.2100
 IR Inten    --     80.1776                 7.7293                27.3324

                     94                     95                     96
                      A                      A                      A
 Frequencies --   3096.3943              3101.1376              3132.2906
 Red. masses --      1.0598                 1.0948                 1.0906
 Frc consts  --      5.9864                 6.2031                 6.3043
 IR Inten    --     23.0091                45.3228                 4.8082

                     97                     98                     99
                      A                      A                      A
 Frequencies --   3140.8977              3145.0114              3146.7851
 Red. masses --      1.0884                 1.1023                 1.1043
 Frc consts  --      6.3264                 6.4237                 6.4425
 IR Inten    --     24.3683                33.9040                30.9370

                    100                    101                    102
                      A                      A                      A
 Frequencies --   3149.4284              3174.5641              3185.8248
 Red. masses --      1.1037                 1.0886                 1.0857
 Frc consts  --      6.4500                 6.4640                 6.4922
 IR Inten    --     20.7514                 8.6769                 0.2881

                    103                    104                    105
                      A                      A                      A
 Frequencies --   3197.9141              3208.7768              3215.0559
 Red. masses --      1.0899                 1.0949                 1.0869
 Frc consts  --      6.5672                 6.6422                 6.6195
 IR Inten    --     17.6647                28.7655                 7.3995

                    106                    107                    108
                      A                      A                      A
 Frequencies --   3226.8121              3236.9012              3239.0462
 Red. masses --      1.0933                 1.0927                 1.1053
 Frc consts  --      6.7070                 6.7453                 6.8320
 IR Inten    --      6.7728                 3.0920                18.9210

 - Thermochemistry -
 -------------------
 Temperature   298.150 Kelvin.  Pressure   1.00000 Atm.
 Atom     1 has atomic number  6 and mass  12.00000

 Molecular mass:   274.12051 amu.
 Principal axes and moments of inertia in atomic units:
                           1         2         3
     Eigenvalues --  2560.945928832.307399609.39604
           X            1.00000  -0.00192  -0.00025
           Y            0.00192   0.99994  -0.01076
           Z            0.00027   0.01076   0.99994
 This molecule is an asymmetric top.
 Rotational symmetry number  1.
 Warning -- assumption of classical behavior for rotation
           may cause significant error
 Rotational temperatures (Kelvin)      0.03382     0.00981     0.00901
 Rotational constants (GHZ):           0.70472     0.20433     0.18781
 Zero-point vibrational energy     826911.7 (Joules/Mol)
                                  197.63664 (Kcal/Mol)
 Warning -- explicit consideration of  26 degrees of freedom as
           vibrations may cause significant error
 Vibrational temperatures:     32.00    43.80    75.56   110.31   142.05
          (Kelvin)            151.92   189.84   208.67   242.09   245.61
                              265.98   326.75   370.51   415.95   428.14
                              488.84   512.39   564.26   599.98   600.01
                              639.50   662.56   672.49   721.30   830.32
                              841.99   912.52   978.00   990.36  1007.77
                             1037.05  1045.58  1061.66  1169.43  1176.04
                             1223.02  1236.81  1248.60  1269.67  1318.68
                             1353.74  1372.53  1395.74  1410.75  1414.62
                             1421.36  1448.14  1472.75  1479.57  1496.43
                             1519.78  1535.44  1549.25  1596.57  1597.56
                             1629.19  1640.24  1663.30  1671.45  1708.49
                             1715.63  1718.85  1736.94  1739.51  1765.28
                             1767.20  1771.25  1801.71  1841.08  1884.04
                             1900.55  1905.09  1947.21  1955.92  1970.58
                             1972.33  2040.29  2137.77  2156.70  2157.63
                             2180.28  2185.87  2190.89  2212.29  2220.35
                             2221.55  2366.61  2392.29  2396.09  2574.08
                             4357.16  4358.45  4451.61  4455.02  4461.85
                             4506.67  4519.05  4524.97  4527.52  4531.32
                             4567.49  4583.69  4601.09  4616.71  4625.75
                             4642.66  4657.18  4660.27

 Zero-point correction=                           0.314954 (Hartree/Particle)
 Thermal correction to Energy=                    0.332703
 Thermal correction to Enthalpy=                  0.333647
 Thermal correction to Gibbs Free Energy=         0.268013
 Sum of electronic and zero-point Energies=           -921.150969
 Sum of electronic and thermal Energies=              -921.133221
 Sum of electronic and thermal Enthalpies=            -921.132277
 Sum of electronic and thermal Free Energies=         -921.197911

                     E (Thermal)             CV                S
                      KCal/Mol        Cal/Mol-Kelvin    Cal/Mol-Kelvin
 Total                  208.774             68.869            138.138
 Electronic               0.000              0.000              0.000
 Translational            0.889              2.981             42.724
 Rotational               0.889              2.981             33.741
 Vibrational            206.997             62.907             61.674
 Vibration     1          0.593              1.985              6.424
 Vibration     2          0.594              1.984              5.801
 Vibration     3          0.596              1.977              4.720
 Vibration     4          0.599              1.965              3.974
 Vibration     5          0.604              1.950              3.479
 Vibration     6          0.605              1.945              3.348
 Vibration     7          0.612              1.921              2.917
 Vibration     8          0.616              1.908              2.736
 Vibration     9          0.625              1.882              2.455
 Vibration    10          0.626              1.879              2.428
 Vibration    11          0.631              1.860              2.279
 Vibration    12          0.651              1.800              1.902
 Vibration    13          0.667              1.750              1.679
 Vibration    14          0.686              1.694              1.479
 Vibration    15          0.691              1.678              1.431
 Vibration    16          0.720              1.596              1.213
 Vibration    17          0.732              1.563              1.139
 Vibration    18          0.760              1.487              0.992
 Vibration    19          0.780              1.433              0.902
 Vibration    20          0.780              1.433              0.902
 Vibration    21          0.804              1.373              0.813
 Vibration    22          0.818              1.338              0.765
 Vibration    23          0.825              1.322              0.745
 Vibration    24          0.857              1.247              0.655
 Vibration    25          0.934              1.081              0.491
 Vibration    26          0.942              1.063              0.476

 Optimization completed.
    -- Stationary point found.
 Normal termination of Gaussian 16 at Mon Dec 14 14:10:23 2020.

 ----------------------------------------------------------------------
 # B3LYP/6-311++G(d,p) empiricaldispersion=gd3bj scf=xqc pop=npa geom=c
 heck
 ----------------------------------------------------------------------

 ---------------------------------------
 CID_68260932_JID_10527_Energie_neutraal
 ---------------------------------------
 Structure from the checkpoint file:  "JID_10527.chk"
 Charge =  0 Multiplicity = 1

 SCF Done:  E(RB3LYP) =  -921.718688201     A.U. after   15 cycles
 Normal termination of Gaussian 16 at Mon Dec 14 14:18:19 2020.

 ----------------------------------------------------------------------
 # B3LYP/6-311++G(d,p) empiricaldispersion=gd3bj scf=xqc pop=npa geom=c
 heck
 ----------------------------------------------------------------------

 -------------------------------------
 CID_68260932_JID_10527_Energie_kation
 -------------------------------------
 Structure from the checkpoint file:  "JID_10527.chk"
 Charge =  1 Multiplicity = 2

 SCF Done:  E(UB3LYP) =  -921.409392557     A.U. after   33 cycles
 SCF Done:  E(UB3LYP) =  -921.409393168     a.u. after    3 cycles
 Normal termination of Gaussian 16 at Mon Dec 14 15:20:12 2020.
 Gaussian 16:  ES64L-G16RevA.03 25-Dec-2016

 ----------------------------------------------------------------------
 # B3LYP/6-311++G(d,p) empiricaldispersion=gd3bj scf=xqc pop=npa geom=c
 heck
 ----------------------------------------------------------------------

 ------------------------------------
 CID_68260932_JID_10527_Energie_anion
 ------------------------------------
 Structure from the checkpoint file:  "JID_10527.chk"
 Charge = -1 Multiplicity = 2

                         Standard orientation:
 ---------------------------------------------------------------------
 Center     Atomic      Atomic             Coordinates (Angstroms)
 Number     Number       Type             X           Y           Z
 ---------------------------------------------------------------------
      1          6           0        2.825640    1.182913    2.346399
      2          8           0        3.234696    1.020262    0.995492
      3          6           0        2.244059    0.504231    0.148726
      4          6           0        2.906328   -0.055928   -1.145746
      5          6           0        1.646619   -0.581624   -1.892536
      6          6           0        0.802399   -1.207593   -0.749739
      7          6           0        1.622968   -0.872405    0.536056
      8          6           0        2.856226   -1.750198    0.435150
      9          6           0        3.612759   -1.269878   -0.560095
     10          8           0       -0.505444   -0.606249   -0.765469
     11          6           0       -1.432839   -1.163335    0.039438
     12          8           0       -1.241445   -2.169593    0.697971
     13          6           0       -2.709918   -0.399444    0.023602
     14          6           0       -2.817164    0.848550   -0.603415
     15          6           0       -4.030517    1.532608   -0.579586
     16          6           0       -5.137048    0.974937    0.064951
     17          6           0       -5.029475   -0.268022    0.693792
     18          6           0       -3.817634   -0.952695    0.676900
     19          8           0        1.211757    1.441575   -0.036944
     20          6           0        1.624804    2.668039   -0.625571
     21          1           0        1.853957    1.686064    2.413310
     22          1           0        3.587903    1.797132    2.831353
     23          1           0        2.767851    0.213797    2.860464
     24          1           0        3.528381    0.638262   -1.712505
     25          1           0        1.903143   -1.305409   -2.669146
     26          1           0        1.081156    0.234232   -2.348930
     27          1           0        0.673010   -2.286107   -0.839511
     28          1           0        1.038504   -0.927795    1.452523
     29          1           0        3.023569   -2.643650    1.025550
     30          1           0        4.539558   -1.683067   -0.942825
     31          1           0       -1.946700    1.272778   -1.090006
     32          1           0       -4.114012    2.502262   -1.062117
     33          1           0       -6.082473    1.510269    0.079912
     34          1           0       -5.889537   -0.700029    1.197235
     35          1           0       -3.705400   -1.916102    1.162678
     36          1           0        2.465674    3.109522   -0.080532
     37          1           0        1.913018    2.531994   -1.677258
     38          1           0        0.762654    3.336945   -0.578556
 ---------------------------------------------------------------------

 SCF Done:  E(UB3LYP) =  -921.716505913     A.U. after   33 cycles
 SCF Done:  E(UB3LYP) =  -921.716505914     a.u. after    1 cycles

 The electronic state is 2-A.
 Alpha  occ. eigenvalues --  -19.03633 -19.03142 -19.02807 -18.95859 -10.17864
 Alpha  occ. eigenvalues --  -10.14417 -10.12314 -10.12133 -10.11551 -10.08626
 Alpha  occ. eigenvalues --  -10.07973 -10.07597 -10.07416 -10.07262 -10.04830
 Alpha  occ. eigenvalues --  -10.04756 -10.04181 -10.04081 -10.04073 -10.03913
 Alpha  occ. eigenvalues --   -0.98446  -0.96901  -0.91710  -0.87701  -0.78472
 Alpha  occ. eigenvalues --   -0.72809  -0.65699  -0.63970  -0.63478  -0.62381
 Alpha  occ. eigenvalues --   -0.61936  -0.59400  -0.55641  -0.52278  -0.48387
 Alpha  occ. eigenvalues --   -0.47543  -0.46523  -0.44255  -0.43936  -0.43417
 Alpha  occ. eigenvalues --   -0.42418  -0.40560  -0.37813  -0.36667  -0.35916
 Alpha  occ. eigenvalues --   -0.35174  -0.34284  -0.33829  -0.33493  -0.32682
 Alpha  occ. eigenvalues --   -0.32130  -0.31266  -0.30527  -0.29806  -0.29193
 Alpha  occ. eigenvalues --   -0.28215  -0.27412  -0.26874  -0.25893  -0.25811
 Alpha  occ. eigenvalues --   -0.24630  -0.23364  -0.23021  -0.22483  -0.21477
 Alpha  occ. eigenvalues --   -0.19661  -0.18761  -0.17768  -0.17428  -0.14903
 Alpha  occ. eigenvalues --   -0.14046  -0.13274  -0.13116   0.04430
 Alpha virt. eigenvalues --    0.05914   0.07008   0.07244   0.08089   0.08453
 Alpha virt. eigenvalues --    0.08917   0.09457   0.09673   0.09963   0.10549
 Alpha virt. eigenvalues --    0.11085   0.11178   0.11610   0.12577   0.12658

  Beta  occ. eigenvalues --  -19.03631 -19.03139 -19.02746 -18.95635 -10.17863
  Beta  occ. eigenvalues --  -10.14211 -10.12314 -10.12121 -10.11529 -10.08619
  Beta  occ. eigenvalues --  -10.07964 -10.07574 -10.07404 -10.07254 -10.04873
  Beta  occ. eigenvalues --  -10.04792 -10.04074 -10.03963 -10.03799 -10.03768
  Beta  occ. eigenvalues --   -0.98434  -0.96679  -0.91703  -0.87355  -0.78444
  Beta  occ. eigenvalues --   -0.72526  -0.65577  -0.63874  -0.63449  -0.62068
  Beta  occ. eigenvalues --   -0.61722  -0.59353  -0.55568  -0.51977  -0.48130
  Beta  occ. eigenvalues --   -0.47445  -0.46425  -0.44188  -0.43863  -0.43372
  Beta  occ. eigenvalues --   -0.42394  -0.40442  -0.37756  -0.36593  -0.35738
  Beta  occ. eigenvalues --   -0.34992  -0.34261  -0.33677  -0.33365  -0.32430
  Beta  occ. eigenvalues --   -0.32026  -0.31141  -0.30429  -0.29755  -0.28808
  Beta  occ. eigenvalues --   -0.28139  -0.27357  -0.26696  -0.25829  -0.25713
  Beta  occ. eigenvalues --   -0.24325  -0.23009  -0.22705  -0.22332  -0.21380
  Beta  occ. eigenvalues --   -0.19491  -0.18719  -0.17672  -0.17015  -0.14712
  Beta  occ. eigenvalues --   -0.13780  -0.12658  -0.11838
  Beta virt. eigenvalues --    0.06297   0.07321   0.07476   0.08073   0.08502
  Beta virt. eigenvalues --    0.08999   0.09149   0.09584   0.09762   0.10073
  Beta virt. eigenvalues --    0.10561   0.11098   0.11317   0.11704   0.12573

 Mulliken charges and spin densities:
               1          2
     1  C    0.099675  -0.244747
     2  O   -0.030400   0.006793
     3  C   -2.236751   0.404516
     4  C    0.786624  -0.136565
     5  C   -0.275656  -0.413124
     6  C   -0.584858   0.274334
     7  C    1.780195  -0.535719
     8  C   -0.740263   0.191892
     9  C    0.165139  -0.467418
    10  O    0.225427   0.005554
    11  C   -0.734672  -0.005226
    12  O   -0.276203   0.080487
    13  C    1.141880   0.114223
    14  C   -0.610673   0.114365
    15  C   -0.265070  -0.043328
    16  C   -0.386055   0.164662
    17  C   -0.451818  -0.034878
    18  C   -0.099538   0.163361
    19  O    0.077129   0.008201
    20  C    0.348014  -0.512894
    21  H    0.119425   0.050450
    22  H   -0.002460   0.154957
    23  H    0.045297   0.094087
    24  H   -0.124127   0.392700
    25  H   -0.008361   0.189391
    26  H    0.191468  -0.027962
    27  H    0.241673  -0.007753
    28  H    0.344755  -0.047043
    29  H    0.026280   0.118489
    30  H   -0.230717   0.380628
    31  H    0.118482  -0.032630
    32  H    0.092665   0.048059
    33  H    0.100806  -0.017508
    34  H    0.119380   0.003908
    35  H    0.163026  -0.002724
    36  H   -0.020854   0.157201
    37  H   -0.116281   0.255258
    38  H    0.007416   0.156003
 Sum of Mulliken charges =  -1.00000   1.00000

 Dipole moment (field-independent basis, Debye):
    X=              2.6757    Y=              0.8449    Z=              0.4548  Tot=              2.8425
 Quadrupole moment (field-independent basis, Debye-Ang):
   XX=           -188.5501   YY=           -146.3473   ZZ=           -138.1745
   XY=             -4.0027   XZ=              5.3682   YZ=              1.5666

 Summary of Natural Population Analysis:

                                       Natural Population
                Natural  -----------------------------------------------
    Atom  No    Charge         Core      Valence    Rydberg      Total
 -----------------------------------------------------------------------
      C    1   -0.10233      0.99959     2.09469    0.00805     3.10233
      O    2   -0.30818      0.99985     3.29853    0.00981     4.30818
      C    3    0.31753      0.99946     1.65730    0.02571     2.68247
      C    4   -0.14485      0.99953     2.13115    0.01418     3.14485
      C    5   -0.19490      0.99961     2.18552    0.00977     3.19490
      C    6    0.06762      0.99952     1.91766    0.01520     2.93238
      C    7   -0.15329      0.99951     2.14003    0.01375     3.15329
      C    8   -0.09216      0.99952     2.08250    0.01013     3.09216
      C    9   -0.08284      0.99953     2.07209    0.01122     3.08284
      O   10   -0.27852      0.99985     3.27003    0.00863     4.27852
      C   11    0.42599      0.99963     1.55127    0.02311     2.57401
      O   12   -0.30606      0.99988     3.30144    0.00475     4.30606
      C   13   -0.05598      0.99946     2.04608    0.01044     3.05598
      C   14   -0.06373      0.99954     2.05566    0.00853     3.06373
      C   15   -0.12211      0.99958     2.11332    0.00921     3.12211
      C   16   -0.05364      0.99958     2.04465    0.00941     3.05364
      C   17   -0.12409      0.99958     2.11526    0.00925     3.12409
      C   18   -0.05907      0.99954     2.05134    0.00819     3.05907
      O   19   -0.30497      0.99985     3.29492    0.01020     4.30497
      C   20   -0.10499      0.99959     2.09587    0.00954     3.10499
      H   21    0.08869      0.00000     0.40995    0.00136     0.41131
      H   22    0.08775      0.00000     0.41136    0.00089     0.41225
      H   23    0.08195      0.00000     0.41693    0.00112     0.41805
      H   24    0.10865      0.00000     0.38988    0.00147     0.39135
      H   25    0.10132      0.00000     0.39786    0.00082     0.39868
      H   26    0.11148      0.00000     0.38716    0.00136     0.38852
      H   27    0.09888      0.00000     0.39968    0.00143     0.40112
      H   28    0.12029      0.00000     0.37811    0.00161     0.37971
      H   29    0.10200      0.00000     0.39717    0.00083     0.39800
      H   30    0.10009      0.00000     0.39889    0.00102     0.39991
      H   31    0.10511      0.00000     0.39361    0.00128     0.39489
      H   32    0.09207      0.00000     0.40676    0.00117     0.40793
      H   33    0.08746      0.00000     0.41154    0.00100     0.41254
      H   34    0.09158      0.00000     0.40740    0.00102     0.40842
      H   35    0.10463      0.00000     0.39441    0.00096     0.39537
      H   36    0.08612      0.00000     0.41262    0.00125     0.41388
      H   37    0.08021      0.00000     0.41867    0.00111     0.41979
      H   38    0.09227      0.00000     0.40688    0.00085     0.40773
 =======================================================================
   * Total *   -0.00000     19.99217    52.75818    0.24966    73.00000

 Normal termination of Gaussian 16 at Mon Dec 14 15:42:55 2020.
