 Gaussian 16, Revision A.03,

 -----------------------------------------------------------
 # opt freq B3LYP/6-31G(d) empiricaldispersion=gd3bj scf=xqc
 -----------------------------------------------------------

 -------------------------------
 CID_101388671_JID_9998_neutraal
 -------------------------------
 Symbolic Z-matrix:
 Charge =  0 Multiplicity = 1

 SCF Done:  E(RB3LYP) =  -848.670943701     A.U. after   14 cycles
 SCF Done:  E(RB3LYP) =  -848.674471204     A.U. after   12 cycles
 SCF Done:  E(RB3LYP) =  -848.672999483     A.U. after   12 cycles
 SCF Done:  E(RB3LYP) =  -848.675469179     A.U. after   12 cycles
 SCF Done:  E(RB3LYP) =  -848.676443666     A.U. after   12 cycles
 SCF Done:  E(RB3LYP) =  -848.677027162     A.U. after   11 cycles
 SCF Done:  E(RB3LYP) =  -848.677192198     A.U. after   11 cycles
 SCF Done:  E(RB3LYP) =  -848.677236533     A.U. after   10 cycles
 SCF Done:  E(RB3LYP) =  -848.677255450     A.U. after   10 cycles
 SCF Done:  E(RB3LYP) =  -848.677267973     A.U. after   10 cycles
 SCF Done:  E(RB3LYP) =  -848.680540363     A.U. after    7 cycles
 SCF Done:  E(RB3LYP) =  -848.680540765     A.U. after    7 cycles
 SCF Done:  E(RB3LYP) =  -848.680541144     A.U. after    7 cycles
 SCF Done:  E(RB3LYP) =  -848.680541423     A.U. after    7 cycles
 SCF Done:  E(RB3LYP) =  -848.680541522     A.U. after    7 cycles
 Optimization completed.
    -- Stationary point found.
 Normal termination of Gaussian 16 at Sun Dec 13 17:08:05 2020.

 --------------------------------------------------------------------
 #N Geom=AllCheck Guess=TCheck SCRF=Check GenChk RB3LYP/6-31G(d) Freq
 --------------------------------------------------------------------

 Structure from the checkpoint file:  "JID_9998.chk"
 -------------------------------
 CID_101388671_JID_9998_neutraal
 -------------------------------
 Charge =  0 Multiplicity = 1

 SCF Done:  E(RB3LYP) =  -848.680541522     A.U. after    1 cycles

  Exact polarizability: 229.232  17.945 186.173 -10.125   9.733 125.548
 Approx polarizability: 316.449  39.294 300.259 -21.275  30.081 186.782

                      1                      2                      3
                      A                      A                      A
 Frequencies --     28.0555                43.5105                60.8128
 Red. masses --      3.5607                 2.9646                 3.6173
 Frc consts  --      0.0017                 0.0033                 0.0079
 IR Inten    --      0.4211                 0.2144                 1.5212

                      4                      5                      6
                      A                      A                      A
 Frequencies --     70.2881                92.1379               117.3426
 Red. masses --      3.8690                 2.7004                 4.2378
 Frc consts  --      0.0113                 0.0135                 0.0344
 IR Inten    --      0.4032                 0.9358                 3.3267

                      7                      8                      9
                      A                      A                      A
 Frequencies --    133.1828               158.1225               179.0325
 Red. masses --      3.5820                 2.8308                 2.9693
 Frc consts  --      0.0374                 0.0417                 0.0561
 IR Inten    --      0.2175                 0.4657                 0.3251

                     10                     11                     12
                      A                      A                      A
 Frequencies --    189.1970               208.1222               231.4459
 Red. masses --      2.7466                 2.0623                 1.9049
 Frc consts  --      0.0579                 0.0526                 0.0601
 IR Inten    --      0.6210                 0.8649                 0.4625

                     13                     14                     15
                      A                      A                      A
 Frequencies --    233.4443               258.4396               268.9698
 Red. masses --      1.2766                 1.7054                 1.2620
 Frc consts  --      0.0410                 0.0671                 0.0538
 IR Inten    --      0.1457                 0.7048                 0.3194

                     16                     17                     18
                      A                      A                      A
 Frequencies --    270.0865               298.9819               304.0653
 Red. masses --      1.2321                 2.2057                 1.8000
 Frc consts  --      0.0530                 0.1162                 0.0981
 IR Inten    --      2.6446                 8.0575                40.5516

                     19                     20                     21
                      A                      A                      A
 Frequencies --    317.8685               337.3971               355.4147
 Red. masses --      2.5905                 2.0866                 2.4644
 Frc consts  --      0.1542                 0.1399                 0.1834
 IR Inten    --      4.9368                60.0382                10.1289

                     22                     23                     24
                      A                      A                      A
 Frequencies --    382.3285               394.0511               441.5136
 Red. masses --      3.2980                 3.3788                 3.5195
 Frc consts  --      0.2840                 0.3091                 0.4042
 IR Inten    --     12.6406                 8.6484                 6.6843

                     25                     26                     27
                      A                      A                      A
 Frequencies --    466.5874               474.8428               489.8574
 Red. masses --      3.6102                 3.5587                 3.2719
 Frc consts  --      0.4631                 0.4728                 0.4626
 IR Inten    --      7.4955                 9.7229                 1.3932

                     28                     29                     30
                      A                      A                      A
 Frequencies --    502.2187               540.3633               547.6433
 Red. masses --      3.5608                 3.4807                 4.1753
 Frc consts  --      0.5292                 0.5988                 0.7378
 IR Inten    --      1.5055                 2.8777                 3.3492

                     31                     32                     33
                      A                      A                      A
 Frequencies --    585.1030               619.0075               660.6092
 Red. masses --      3.2888                 5.2264                 3.9027
 Frc consts  --      0.6634                 1.1799                 1.0035
 IR Inten    --      5.6523                 9.1402                 1.4299

                     34                     35                     36
                      A                      A                      A
 Frequencies --    686.6562               712.2504               749.9592
 Red. masses --      3.9455                 3.6679                 2.7701
 Frc consts  --      1.0960                 1.0963                 0.9179
 IR Inten    --      3.5898                11.0765                 4.9497

                     37                     38                     39
                      A                      A                      A
 Frequencies --    772.7386               779.0030               822.5391
 Red. masses --      1.8143                 4.1038                 2.3961
 Frc consts  --      0.6383                 1.4673                 0.9552
 IR Inten    --     10.5139                 3.2139                 1.8957

                     40                     41                     42
                      A                      A                      A
 Frequencies --    831.6341               845.9190               849.2161
 Red. masses --      1.6041                 1.5164                 1.6778
 Frc consts  --      0.6536                 0.6393                 0.7129
 IR Inten    --     13.8761                29.4929                21.6801

                     43                     44                     45
                      A                      A                      A
 Frequencies --    886.5156               910.1090               932.7505
 Red. masses --      2.6213                 2.0038                 1.8804
 Frc consts  --      1.2138                 0.9779                 0.9639
 IR Inten    --      1.3694                 7.7245                 1.6470

                     46                     47                     48
                      A                      A                      A
 Frequencies --    948.0241               955.9339               965.8785
 Red. masses --      1.5445                 1.8323                 1.5522
 Frc consts  --      0.8178                 0.9865                 0.8532
 IR Inten    --      2.1253                 6.1490                 2.1056

                     49                     50                     51
                      A                      A                      A
 Frequencies --    981.1686              1013.3032              1032.8721
 Red. masses --      1.9014                 3.2644                 1.3487
 Frc consts  --      1.0785                 1.9749                 0.8477
 IR Inten    --     31.0677                48.6131                 0.8802

                     52                     53                     54
                      A                      A                      A
 Frequencies --   1045.4099              1057.5752              1082.1440
 Red. masses --      3.3152                 2.1273                 3.5179
 Frc consts  --      2.1347                 1.4019                 2.4272
 IR Inten    --     51.7681                11.8161                46.9413

                     55                     56                     57
                      A                      A                      A
 Frequencies --   1089.8633              1135.9743              1142.3627
 Red. masses --      2.2815                 1.9443                 1.6557
 Frc consts  --      1.5967                 1.4783                 1.2730
 IR Inten    --     10.2100                34.6176                62.9241

                     58                     59                     60
                      A                      A                      A
 Frequencies --   1167.6681              1186.3603              1187.6651
 Red. masses --      1.7108                 1.2745                 2.3094
 Frc consts  --      1.3743                 1.0568                 1.9192
 IR Inten    --      7.1784                 0.7189               119.7630

                     61                     62                     63
                      A                      A                      A
 Frequencies --   1208.3286              1215.3352              1239.2463
 Red. masses --      1.5232                 2.4191                 2.0118
 Frc consts  --      1.3103                 2.1052                 1.8203
 IR Inten    --     24.6652                26.6282               131.4946

                     64                     65                     66
                      A                      A                      A
 Frequencies --   1244.6752              1265.4152              1271.0079
 Red. masses --      1.3373                 1.7910                 1.5366
 Frc consts  --      1.2207                 1.6897                 1.4625
 IR Inten    --     17.7702                28.7022                10.2886

                     67                     68                     69
                      A                      A                      A
 Frequencies --   1292.2162              1309.1388              1323.1266
 Red. masses --      2.4086                 1.7785                 1.3921
 Frc consts  --      2.3697                 1.7959                 1.4359
 IR Inten    --     53.9371                10.9809                11.2360

                     70                     71                     72
                      A                      A                      A
 Frequencies --   1331.0593              1368.5677              1378.2353
 Red. masses --      4.2206                 1.4400                 5.6084
 Frc consts  --      4.4057                 1.5891                 6.2768
 IR Inten    --    131.3945                28.9586                55.9088

                     73                     74                     75
                      A                      A                      A
 Frequencies --   1390.3862              1397.4039              1420.3845
 Red. masses --      1.6036                 1.4271                 1.2678
 Frc consts  --      1.8265                 1.6419                 1.5069
 IR Inten    --     28.1320                 4.5309                12.9225

                     76                     77                     78
                      A                      A                      A
 Frequencies --   1436.0652              1441.0816              1444.8169
 Red. masses --      1.4400                 1.2558                 1.3759
 Frc consts  --      1.7496                 1.5366                 1.6922
 IR Inten    --      1.2239                24.5732                18.9055

                     79                     80                     81
                      A                      A                      A
 Frequencies --   1451.3768              1474.1268              1502.9388
 Red. masses --      1.2809                 2.9056                 1.3725
 Frc consts  --      1.5897                 3.7201                 1.8266
 IR Inten    --     28.8029                 6.5667                35.9212

                     82                     83                     84
                      A                      A                      A
 Frequencies --   1506.8173              1513.5343              1518.6919
 Red. masses --      1.0517                 1.0560                 1.0711
 Frc consts  --      1.4069                 1.4252                 1.4556
 IR Inten    --      1.4162                 2.6478                 1.5411

                     85                     86                     87
                      A                      A                      A
 Frequencies --   1520.6250              1522.3316              1523.6614
 Red. masses --      1.0477                 1.0629                 1.0693
 Frc consts  --      1.4274                 1.4513                 1.4626
 IR Inten    --      5.4705                 2.1199                 0.1354

                     88                     89                     90
                      A                      A                      A
 Frequencies --   1534.2341              1535.6251              1536.0410
 Red. masses --      1.0677                 1.0865                 1.0560
 Frc consts  --      1.4807                 1.5095                 1.4680
 IR Inten    --      6.0151                38.6719                15.3795

                     91                     92                     93
                      A                      A                      A
 Frequencies --   1541.6769              1556.6749              1618.9986
 Red. masses --      1.0557                 2.6733                 7.7477
 Frc consts  --      1.4783                 3.8168                11.9651
 IR Inten    --      6.8287                78.2634                32.8548

                     94                     95                     96
                      A                      A                      A
 Frequencies --   1672.3888              1712.5690              3027.4353
 Red. masses --      6.3395                 7.9141                 1.0346
 Frc consts  --     10.4468                13.6756                 5.5867
 IR Inten    --    257.3551                18.2668                56.5700

                     97                     98                     99
                      A                      A                      A
 Frequencies --   3031.0596              3046.2948              3047.9808
 Red. masses --      1.0648                 1.0378                 1.0632
 Frc consts  --      5.7640                 5.6740                 5.8194
 IR Inten    --     22.7462                20.4411                34.2294

                    100                    101                    102
                      A                      A                      A
 Frequencies --   3053.3440              3062.3378              3070.7791
 Red. masses --      1.0342                 1.0348                 1.0962
 Frc consts  --      5.6809                 5.7176                 6.0905
 IR Inten    --     15.2676                21.4106                 2.9804

                    103                    104                    105
                      A                      A                      A
 Frequencies --   3084.3269              3086.5846              3094.4867
 Red. masses --      1.0923                 1.1066                 1.0928
 Frc consts  --      6.1225                 6.2115                 6.1652
 IR Inten    --     12.4811                41.2173                52.9873

                    106                    107                    108
                      A                      A                      A
 Frequencies --   3113.3138              3120.2466              3124.5308
 Red. masses --      1.1011                 1.1019                 1.1031
 Frc consts  --      6.2882                 6.3207                 6.3449
 IR Inten    --     45.7674                56.9714                 8.5356

                    109                    110                    111
                      A                      A                      A
 Frequencies --   3135.5409              3135.9931              3141.7172
 Red. masses --      1.1027                 1.1029                 1.1037
 Frc consts  --      6.3874                 6.3903                 6.4185
 IR Inten    --     24.4209                20.7717                25.1318

                    112                    113                    114
                      A                      A                      A
 Frequencies --   3159.3115              3203.3903              3215.5686
 Red. masses --      1.1000                 1.0897                 1.0878
 Frc consts  --      6.4691                 6.5884                 6.6267
 IR Inten    --     30.2563                 6.9956                 3.7779

                    115                    116                    117
                      A                      A                      A
 Frequencies --   3229.9183              3243.3293              3727.9102
 Red. masses --      1.0945                 1.0901                 1.0661
 Frc consts  --      6.7273                 6.7559                 8.7293
 IR Inten    --      5.4519                 4.3528                 9.8551

 - Thermochemistry -
 -------------------
 Temperature   298.150 Kelvin.  Pressure   1.00000 Atm.
 Atom     1 has atomic number  6 and mass  12.00000

 Molecular mass:   262.15689 amu.
 Principal axes and moments of inertia in atomic units:
                           1         2         3
     Eigenvalues --  3482.299137299.743098952.72948
           X            0.99990  -0.01181   0.00728
           Y            0.01199   0.99963  -0.02447
           Z           -0.00699   0.02455   0.99967
 This molecule is an asymmetric top.
 Rotational symmetry number  1.
 Warning -- assumption of classical behavior for rotation
           may cause significant error
 Rotational temperatures (Kelvin)      0.02487     0.01187     0.00967
 Rotational constants (GHZ):           0.51826     0.24723     0.20159
 Zero-point vibrational energy     929532.8 (Joules/Mol)
                                  222.16366 (Kcal/Mol)
 Warning -- explicit consideration of  32 degrees of freedom as
           vibrations may cause significant error
 Vibrational temperatures:     40.37    62.60    87.50   101.13   132.57
          (Kelvin)            168.83   191.62   227.50   257.59   272.21
                              299.44   333.00   335.87   371.84   386.99
                              388.59   430.17   437.48   457.34   485.44
                              511.36   550.09   566.95   635.24   671.32
                              683.19   704.80   722.58   777.46   787.94
                              841.83   890.61   950.47   987.95  1024.77
                             1079.02  1111.80  1120.81  1183.45  1196.54
                             1217.09  1221.83  1275.50  1309.44  1342.02
                             1364.00  1375.38  1389.68  1411.68  1457.92
                             1486.07  1504.11  1521.61  1556.96  1568.07
                             1634.41  1643.61  1680.01  1706.91  1708.79
                             1738.52  1748.60  1783.00  1790.81  1820.65
                             1828.70  1859.21  1883.56  1903.68  1915.10
                             1969.06  1982.97  2000.46  2010.55  2043.62
                             2066.18  2073.39  2078.77  2088.21  2120.94
                             2162.39  2167.97  2177.64  2185.06  2187.84
                             2190.30  2192.21  2207.42  2209.42  2210.02
                             2218.13  2239.71  2329.38  2406.19  2464.00
                             4355.80  4361.02  4382.94  4385.36  4393.08
                             4406.02  4418.17  4437.66  4440.91  4452.28
                             4479.36  4489.34  4495.50  4511.34  4511.99
                             4520.23  4545.54  4608.96  4626.49  4647.13
                             4666.43  5363.63

 Zero-point correction=                           0.354040 (Hartree/Particle)
 Thermal correction to Energy=                    0.373388
 Thermal correction to Enthalpy=                  0.374332
 Thermal correction to Gibbs Free Energy=         0.306781
 Sum of electronic and zero-point Energies=           -848.326501
 Sum of electronic and thermal Energies=              -848.307153
 Sum of electronic and thermal Enthalpies=            -848.306209
 Sum of electronic and thermal Free Energies=         -848.373760

                     E (Thermal)             CV                S
                      KCal/Mol        Cal/Mol-Kelvin    Cal/Mol-Kelvin
 Total                  234.305             74.808            142.173
 Electronic               0.000              0.000              0.000
 Translational            0.889              2.981             42.591
 Rotational               0.889              2.981             33.786
 Vibrational            232.527             68.847             65.796
 Vibration     1          0.593              1.984              5.962
 Vibration     2          0.595              1.980              5.092
 Vibration     3          0.597              1.973              4.431
 Vibration     4          0.598              1.968              4.145
 Vibration     5          0.602              1.955              3.614
 Vibration     6          0.608              1.935              3.144
 Vibration     7          0.613              1.920              2.900
 Vibration     8          0.621              1.894              2.572
 Vibration     9          0.629              1.868              2.338
 Vibration    10          0.633              1.855              2.236
 Vibration    11          0.641              1.828              2.060
 Vibration    12          0.653              1.793              1.868
 Vibration    13          0.654              1.790              1.852
 Vibration    14          0.667              1.748              1.672
 Vibration    15          0.673              1.730              1.603
 Vibration    16          0.674              1.728              1.596
 Vibration    17          0.692              1.676              1.423
 Vibration    18          0.695              1.666              1.394
 Vibration    19          0.704              1.639              1.321
 Vibration    20          0.718              1.601              1.224
 Vibration    21          0.731              1.564              1.142
 Vibration    22          0.752              1.508              1.030
 Vibration    23          0.761              1.483              0.985
 Vibration    24          0.801              1.380              0.822
 Vibration    25          0.824              1.324              0.747
 Vibration    26          0.832              1.306              0.724
 Vibration    27          0.846              1.273              0.684
 Vibration    28          0.858              1.245              0.653
 Vibration    29          0.895              1.161              0.565
 Vibration    30          0.903              1.145              0.549
 Vibration    31          0.942              1.064              0.476
 Vibration    32          0.979              0.992              0.418

 Optimization completed.
    -- Stationary point found.
 Normal termination of Gaussian 16 at Sun Dec 13 17:27:57 2020.

 ----------------------------------------------------------------------
 # B3LYP/6-311++G(d,p) empiricaldispersion=gd3bj scf=xqc pop=npa geom=c
 heck
 ----------------------------------------------------------------------

 ---------------------------------------
 CID_101388671_JID_9998_Energie_neutraal
 ---------------------------------------
 Structure from the checkpoint file:  "JID_9998.chk"
 Charge =  0 Multiplicity = 1

 SCF Done:  E(RB3LYP) =  -848.920021139     A.U. after   15 cycles
 Normal termination of Gaussian 16 at Sun Dec 13 17:35:57 2020.

 ----------------------------------------------------------------------
 # B3LYP/6-311++G(d,p) empiricaldispersion=gd3bj scf=xqc pop=npa geom=c
 heck
 ----------------------------------------------------------------------

 -------------------------------------
 CID_101388671_JID_9998_Energie_kation
 -------------------------------------
 Structure from the checkpoint file:  "JID_9998.chk"
 Charge =  1 Multiplicity = 2

 SCF Done:  E(UB3LYP) =  -848.655307004     A.U. after   23 cycles
 Normal termination of Gaussian 16 at Sun Dec 13 17:52:36 2020.
 Gaussian 16:  ES64L-G16RevA.03 25-Dec-2016

 ----------------------------------------------------------------------
 # B3LYP/6-311++G(d,p) empiricaldispersion=gd3bj scf=xqc pop=npa geom=c
 heck
 ----------------------------------------------------------------------

 ------------------------------------
 CID_101388671_JID_9998_Energie_anion
 ------------------------------------
 Structure from the checkpoint file:  "JID_9998.chk"
 Charge = -1 Multiplicity = 2

                         Standard orientation:
 ---------------------------------------------------------------------
 Center     Atomic      Atomic             Coordinates (Angstroms)
 Number     Number       Type             X           Y           Z
 ---------------------------------------------------------------------
      1          6           0        3.431109   -1.793338    2.124538
      2          6           0        3.862227   -0.650508    1.199278
      3          6           0        3.579686   -0.913089   -0.288482
      4          6           0        2.119471   -1.211656   -0.641631
      5          6           0        1.131781   -0.082860   -0.411787
      6          6           0        1.495928    1.204278   -0.279478
      7          6           0        0.464091    2.296647   -0.120187
      8          8           0       -0.701141    1.784260    0.584354
      9          6           0       -1.163478    0.559992    0.199667
     10          6           0       -0.298047   -0.409434   -0.338324
     11          6           0       -0.853243   -1.648341   -0.702197
     12          6           0       -2.198259   -1.923046   -0.509225
     13          6           0       -3.032932   -0.951796    0.065600
     14          6           0       -2.516984    0.298613    0.416434
     15          8           0       -4.338107   -1.310202    0.225914
     16          6           0       -5.220497   -0.365040    0.807498
     17          6           0        0.007028    2.822461   -1.488673
     18          6           0        0.981706    3.425875    0.766866
     19          8           0        2.018045   -1.670651   -2.002142
     20          1           0        2.341888   -1.907478    2.146510
     21          1           0        3.760651   -1.608745    3.152811
     22          1           0        3.861226   -2.749572    1.801766
     23          1           0        3.364791    0.273440    1.515488
     24          1           0        4.940004   -0.478012    1.315716
     25          1           0        3.936179   -0.066134   -0.891308
     26          1           0        4.155613   -1.785477   -0.620770
     27          1           0        1.793060   -2.075125   -0.054330
     28          1           0        2.536585    1.511640   -0.295123
     29          1           0       -0.215349   -2.392271   -1.166260
     30          1           0       -2.628294   -2.877051   -0.793769
     31          1           0       -3.127072    1.083589    0.844099
     32          1           0       -4.902621   -0.089251    1.821390
     33          1           0       -5.296303    0.543526    0.195826
     34          1           0       -6.195447   -0.853183    0.853060
     35          1           0       -0.419178    2.008983   -2.083595
     36          1           0       -0.751939    3.602090   -1.361868
     37          1           0        0.855854    3.242996   -2.038742
     38          1           0        0.201210    4.178361    0.914626
     39          1           0        1.279774    3.033872    1.743773
     40          1           0        1.848162    3.907361    0.301543
     41          1           0        2.093308   -0.883367   -2.565240
 ---------------------------------------------------------------------

 SCF Done:  E(UB3LYP) =  -848.909048018     A.U. after   33 cycles
 SCF Done:  E(UB3LYP) =  -848.909048018     a.u. after    1 cycles

 The electronic state is 2-A.
 Alpha  occ. eigenvalues --  -19.05768 -19.04433 -19.02644 -10.14132 -10.13095
 Alpha  occ. eigenvalues --  -10.13058 -10.12941 -10.12662 -10.07686 -10.07370
 Alpha  occ. eigenvalues --  -10.07319 -10.07206 -10.06952 -10.06778 -10.06757
 Alpha  occ. eigenvalues --  -10.06642 -10.06311 -10.06103 -10.06040  -0.97433
 Alpha  occ. eigenvalues --   -0.96367  -0.92724  -0.75441  -0.72835  -0.70434
 Alpha  occ. eigenvalues --   -0.68486  -0.64251  -0.64092  -0.61868  -0.59777
 Alpha  occ. eigenvalues --   -0.58905  -0.56386  -0.52350  -0.50874  -0.50516
 Alpha  occ. eigenvalues --   -0.47530  -0.45095  -0.42394  -0.41309  -0.39422
 Alpha  occ. eigenvalues --   -0.39055  -0.37768  -0.37627  -0.36438  -0.35855
 Alpha  occ. eigenvalues --   -0.35120  -0.34219  -0.33897  -0.32872  -0.32235
 Alpha  occ. eigenvalues --   -0.31492  -0.30247  -0.29845  -0.29404  -0.28732
 Alpha  occ. eigenvalues --   -0.28486  -0.27465  -0.26965  -0.26671  -0.25991
 Alpha  occ. eigenvalues --   -0.25310  -0.24832  -0.24341  -0.24056  -0.23591
 Alpha  occ. eigenvalues --   -0.21902  -0.19917  -0.18375  -0.16892  -0.13746
 Alpha  occ. eigenvalues --   -0.10197   0.04197
 Alpha virt. eigenvalues --    0.05592   0.06066   0.06688   0.07647   0.07963
 Alpha virt. eigenvalues --    0.08533   0.08973   0.09173   0.09358   0.09633
 Alpha virt. eigenvalues --    0.10178   0.10290   0.11075   0.11268   0.11903

  Beta  occ. eigenvalues --  -19.05741 -19.04418 -19.02619 -10.14138 -10.13028
  Beta  occ. eigenvalues --  -10.13006 -10.12915 -10.12667 -10.07678 -10.07362
  Beta  occ. eigenvalues --  -10.07249 -10.07193 -10.06893 -10.06763 -10.06735
  Beta  occ. eigenvalues --  -10.06648 -10.06339 -10.05997 -10.05975  -0.97366
  Beta  occ. eigenvalues --   -0.96333  -0.92678  -0.75359  -0.72704  -0.70397
  Beta  occ. eigenvalues --   -0.68395  -0.64156  -0.64044  -0.61820  -0.59712
  Beta  occ. eigenvalues --   -0.58815  -0.56318  -0.52296  -0.50737  -0.50452
  Beta  occ. eigenvalues --   -0.47474  -0.45031  -0.42317  -0.41253  -0.39372
  Beta  occ. eigenvalues --   -0.38993  -0.37670  -0.37564  -0.36364  -0.35823
  Beta  occ. eigenvalues --   -0.35084  -0.34169  -0.33842  -0.32822  -0.32188
  Beta  occ. eigenvalues --   -0.31447  -0.30176  -0.29809  -0.29368  -0.28615
  Beta  occ. eigenvalues --   -0.28419  -0.27425  -0.26907  -0.26599  -0.25935
  Beta  occ. eigenvalues --   -0.25245  -0.24758  -0.24297  -0.24001  -0.23493
  Beta  occ. eigenvalues --   -0.21785  -0.19778  -0.18276  -0.16561  -0.13559
  Beta  occ. eigenvalues --   -0.09855
  Beta virt. eigenvalues --    0.06144   0.06414   0.07097   0.07253   0.07911
  Beta virt. eigenvalues --    0.08174   0.08788   0.09147   0.09356   0.09616
  Beta virt. eigenvalues --    0.09725   0.10376   0.10653   0.11203   0.11350

 Mulliken charges and spin densities:
               1          2
     1  C   -0.343964  -0.307163
     2  C   -0.197426   0.067536
     3  C    0.401976  -0.254438
     4  C   -0.794490  -0.189815
     5  C    1.561578  -0.461814
     6  C   -0.109904  -0.344529
     7  C   -1.221451   1.556330
     8  O   -0.017475   0.007349
     9  C   -0.007054  -0.147218
    10  C    0.418291  -0.177956
    11  C   -0.319992   0.069693
    12  C   -0.843168   0.234166
    13  C   -0.911192   0.218198
    14  C    0.452191  -0.214729
    15  O   -0.196229   0.039303
    16  C    0.509048  -0.856235
    17  C    0.652200  -1.297592
    18  C    0.195413  -0.584310
    19  O   -0.150457   0.021204
    20  H    0.096839   0.043353
    21  H    0.005377   0.126786
    22  H    0.107586   0.020928
    23  H    0.170232  -0.049801
    24  H   -0.213620   0.367327
    25  H   -0.275095   0.425033
    26  H    0.151178   0.034687
    27  H    0.202686  -0.030621
    28  H   -0.098553   0.263461
    29  H    0.186811   0.008687
    30  H    0.135064   0.030051
    31  H    0.157592   0.042876
    32  H   -0.120934   0.273561
    33  H   -0.087842   0.238667
    34  H   -0.390368   0.567321
    35  H    0.085032   0.053109
    36  H   -0.130276   0.288979
    37  H   -0.305430   0.473205
    38  H    0.025146   0.132684
    39  H    0.090070   0.065180
    40  H   -0.078067   0.225376
    41  H    0.208675   0.021169
 Sum of Mulliken charges =  -1.00000   1.00000

 Dipole moment (field-independent basis, Debye):
    X=              1.2815    Y=             -2.1814    Z=              1.3689  Tot=              2.8765
 Quadrupole moment (field-independent basis, Debye-Ang):
   XX=           -208.1821   YY=           -159.3168   ZZ=           -148.1679
   XY=             -6.7354   XZ=              7.5348   YZ=              5.2039

 Summary of Natural Population Analysis:

                                       Natural Population
                Natural  -----------------------------------------------
    Atom  No    Charge         Core      Valence    Rydberg      Total
 -----------------------------------------------------------------------
      C    1   -0.28714      0.99967     2.28325    0.00422     3.28714
      C    2   -0.19276      0.99964     2.18564    0.00748     3.19276
      C    3   -0.19980      0.99962     2.18927    0.01091     3.19980
      C    4    0.05315      0.99951     1.93381    0.01353     2.94685
      C    5   -0.01486      0.99944     2.00519    0.01023     3.01486
      C    6   -0.08312      0.99943     2.07236    0.01133     3.08312
      C    7    0.12187      0.99951     1.86370    0.01492     2.87813
      O    8   -0.28496      0.99985     3.27518    0.00993     4.28496
      C    9    0.18770      0.99936     1.79941    0.01353     2.81230
      C   10   -0.07757      0.99944     2.06883    0.00931     3.07757
      C   11   -0.07041      0.99955     2.06352    0.00733     3.07041
      C   12   -0.14310      0.99953     2.13420    0.00936     3.14310
      C   13    0.18049      0.99940     1.80657    0.01354     2.81951
      C   14   -0.17216      0.99948     2.16373    0.00895     3.17216
      O   15   -0.27198      0.99985     3.26240    0.00973     4.27198
      C   16   -0.10152      0.99960     2.09277    0.00915     3.10152
      C   17   -0.29329      0.99961     2.28727    0.00642     3.29329
      C   18   -0.28424      0.99961     2.27780    0.00683     3.28424
      O   19   -0.37031      0.99990     3.36455    0.00586     4.37031
      H   20    0.09899      0.00000     0.40009    0.00092     0.40101
      H   21    0.09754      0.00000     0.40169    0.00077     0.40246
      H   22    0.09346      0.00000     0.40563    0.00091     0.40654
      H   23    0.09969      0.00000     0.39897    0.00133     0.40031
      H   24    0.09450      0.00000     0.40435    0.00116     0.40550
      H   25    0.10045      0.00000     0.39808    0.00147     0.39955
      H   26    0.10002      0.00000     0.39892    0.00106     0.39998
      H   27    0.08956      0.00000     0.40818    0.00225     0.41044
      H   28    0.10217      0.00000     0.39645    0.00138     0.39783
      H   29    0.10722      0.00000     0.39167    0.00111     0.39278
      H   30    0.10316      0.00000     0.39588    0.00096     0.39684
      H   31    0.10948      0.00000     0.38911    0.00141     0.39052
      H   32    0.08502      0.00000     0.41350    0.00148     0.41498
      H   33    0.08426      0.00000     0.41436    0.00138     0.41574
      H   34    0.09272      0.00000     0.40608    0.00120     0.40728
      H   35    0.10522      0.00000     0.39373    0.00105     0.39478
      H   36    0.10126      0.00000     0.39752    0.00122     0.39874
      H   37    0.10411      0.00000     0.39472    0.00118     0.39589
      H   38    0.10198      0.00000     0.39706    0.00096     0.39802
      H   39    0.10288      0.00000     0.39615    0.00097     0.39712
      H   40    0.10197      0.00000     0.39707    0.00096     0.39803
      H   41    0.22837      0.00000     0.26906    0.00257     0.27163
 =======================================================================
   * Total *   -0.00000     18.99198    51.79774    0.21028    71.00000

 Normal termination of Gaussian 16 at Sun Dec 13 18:16:54 2020.
