 Gaussian 16, Revision A.03,

 -----------------------------------------------------------
 # opt freq B3LYP/6-31G(d) empiricaldispersion=gd3bj scf=xqc
 -----------------------------------------------------------

 ---------------------------
 CID_290510_JID_461_neutraal
 ---------------------------
 Symbolic Z-matrix:
 Charge =  0 Multiplicity = 1

 SCF Done:  E(RB3LYP) =  -440.261072956     A.U. after   15 cycles
 SCF Done:  E(RB3LYP) =  -440.263874608     A.U. after   12 cycles
 SCF Done:  E(RB3LYP) =  -440.264235642     A.U. after   12 cycles
 SCF Done:  E(RB3LYP) =  -440.264347653     A.U. after   12 cycles
 SCF Done:  E(RB3LYP) =  -440.264377816     A.U. after   10 cycles
 SCF Done:  E(RB3LYP) =  -440.264408110     A.U. after   10 cycles
 SCF Done:  E(RB3LYP) =  -440.264444440     A.U. after   11 cycles
 SCF Done:  E(RB3LYP) =  -440.264463606     A.U. after   10 cycles
 SCF Done:  E(RB3LYP) =  -440.264468132     A.U. after   10 cycles
 SCF Done:  E(RB3LYP) =  -440.264468211     A.U. after    7 cycles
 SCF Done:  E(RB3LYP) =  -440.264468244     A.U. after    7 cycles
 SCF Done:  E(RB3LYP) =  -440.264468288     A.U. after    7 cycles
 SCF Done:  E(RB3LYP) =  -440.264468324     A.U. after    7 cycles
 SCF Done:  E(RB3LYP) =  -440.264468350     A.U. after    7 cycles
 Optimization completed.
    -- Stationary point found.
 Normal termination of Gaussian 16 at Tue Dec  8 10:44:31 2020.

 --------------------------------------------------------------------
 #N Geom=AllCheck Guess=TCheck SCRF=Check GenChk RB3LYP/6-31G(d) Freq
 --------------------------------------------------------------------

 Structure from the checkpoint file:  "JID_461.chk"
 ---------------------------
 CID_290510_JID_461_neutraal
 ---------------------------
 Charge =  0 Multiplicity = 1

 SCF Done:  E(RB3LYP) =  -440.264468350     A.U. after    1 cycles

  Exact polarizability: 121.488   0.105  90.878  -4.319  -3.122  50.172
 Approx polarizability: 166.408  -2.279 156.274 -11.111  -3.375  79.997

                      1                      2                      3
                      A                      A                      A
 Frequencies --     25.9110                69.4491               126.8712
 Red. masses --      4.1705                 3.7310                 1.3534
 Frc consts  --      0.0016                 0.0106                 0.0128
 IR Inten    --      0.4357                 5.6283                 0.9748

                      4                      5                      6
                      A                      A                      A
 Frequencies --    129.2611               273.1298               332.6743
 Red. masses --      2.3399                 4.8010                 3.3931
 Frc consts  --      0.0230                 0.2110                 0.2213
 IR Inten    --      2.1182                 2.6610                 0.3445

                      7                      8                      9
                      A                      A                      A
 Frequencies --    391.3259               422.7762               508.6578
 Red. masses --      5.2497                 3.0637                 3.2839
 Frc consts  --      0.4737                 0.3226                 0.5006
 IR Inten    --      4.8665                 0.0882                 3.7066

                     10                     11                     12
                      A                      A                      A
 Frequencies --    527.6240               554.9884               631.2631
 Red. masses --      3.5750                 3.0840                 6.2845
 Frc consts  --      0.5864                 0.5597                 1.4755
 IR Inten    --     15.0922                 6.7867                 0.0835

                     13                     14                     15
                      A                      A                      A
 Frequencies --    661.4632               702.2038               764.0172
 Red. masses --      4.7063                 2.1717                 1.8044
 Frc consts  --      1.2132                 0.6309                 0.6206
 IR Inten    --      7.8677                20.9579                29.7435

                     16                     17                     18
                      A                      A                      A
 Frequencies --    827.3382               839.0931               854.6551
 Red. masses --      3.6808                 1.2528                 1.1681
 Frc consts  --      1.4844                 0.5197                 0.5027
 IR Inten    --     17.1927                 0.7951                38.8279

                     19                     20                     21
                      A                      A                      A
 Frequencies --    909.1441               944.4774               958.5815
 Red. masses --      1.6853                 3.9726                 1.3377
 Frc consts  --      0.8207                 2.0879                 0.7242
 IR Inten    --      2.6207                 4.0879                 0.2658

                     22                     23                     24
                      A                      A                      A
 Frequencies --    984.9410              1024.5721              1038.4587
 Red. masses --      1.2405                 6.0984                 1.8975
 Frc consts  --      0.7090                 3.7718                 1.2056
 IR Inten    --      0.0957                 4.7303                40.6911

                     25                     26                     27
                      A                      A                      A
 Frequencies --   1056.7397              1082.8112              1094.7755
 Red. masses --      1.9106                 1.5909                 1.5042
 Frc consts  --      1.2570                 1.0990                 1.0622
 IR Inten    --     12.1581                 9.5131               185.8706

                     28                     29                     30
                      A                      A                      A
 Frequencies --   1108.8420              1191.0759              1198.8223
 Red. masses --      1.4871                 1.1031                 1.1607
 Frc consts  --      1.0773                 0.9221                 0.9828
 IR Inten    --     16.7548                 0.5933                15.3081

                     31                     32                     33
                      A                      A                      A
 Frequencies --   1251.8538              1344.6654              1363.4079
 Red. masses --      3.9877                 1.7557                 2.9463
 Frc consts  --      3.6820                 1.8704                 3.2268
 IR Inten    --    189.8767                 0.7253                20.1962

                     34                     35                     36
                      A                      A                      A
 Frequencies --   1380.0939              1439.8873              1500.6072
 Red. masses --      2.1795                 1.4263                 1.0713
 Frc consts  --      2.4458                 1.7423                 1.4214
 IR Inten    --    205.9263                88.3431                 8.4930

                     37                     38                     39
                      A                      A                      A
 Frequencies --   1504.5696              1513.1086              1544.4388
 Red. masses --      2.1583                 1.0704                 2.2932
 Frc consts  --      2.8787                 1.4438                 3.2228
 IR Inten    --      1.8013                20.5581                62.4181

                     40                     41                     42
                      A                      A                      A
 Frequencies --   1655.9324              1661.3879              1752.0640
 Red. masses --      5.9822                 5.9945                 8.5452
 Frc consts  --      9.6648                 9.7486                15.4550
 IR Inten    --     14.9343                24.2265               160.7880

                     43                     44                     45
                      A                      A                      A
 Frequencies --   3065.3125              3128.2577              3158.2638
 Red. masses --      1.0360                 1.1010                 1.1039
 Frc consts  --      5.7354                 6.3480                 6.4873
 IR Inten    --      6.7665                 7.5243                15.8146

                     46                     47                     48
                      A                      A                      A
 Frequencies --   3186.6841              3196.4207              3209.0900
 Red. masses --      1.0852                 1.0897                 1.0939
 Frc consts  --      6.4929                 6.5597                 6.6375
 IR Inten    --      0.1682                15.8485                32.1526

                     49                     50                     51
                      A                      A                      A
 Frequencies --   3219.0380              3243.5506              3497.4334
 Red. masses --      1.0956                 1.0932                 1.0756
 Frc consts  --      6.6890                 6.7765                 7.7520
 IR Inten    --      9.5577                 3.7646                 1.5841

 - Thermochemistry -
 -------------------
 Temperature   298.150 Kelvin.  Pressure   1.00000 Atm.
 Atom     1 has atomic number  6 and mass  12.00000

 Molecular mass:   135.06841 amu.
 Principal axes and moments of inertia in atomic units:
                           1         2         3
     Eigenvalues --   502.442852233.227892522.28989
           X            0.99998  -0.00427  -0.00460
           Y            0.00416   0.99970  -0.02410
           Z            0.00470   0.02408   0.99970
 This molecule is an asymmetric top.
 Rotational symmetry number  1.
 Warning -- assumption of classical behavior for rotation
           may cause significant error
 Rotational temperatures (Kelvin)      0.17239     0.03878     0.03434
 Rotational constants (GHZ):           3.59193     0.80813     0.71552
 Zero-point vibrational energy     407041.4 (Joules/Mol)
                                   97.28523 (Kcal/Mol)
 Warning -- explicit consideration of  11 degrees of freedom as
           vibrations may cause significant error
 Vibrational temperatures:     37.28    99.92   182.54   185.98   392.97
          (Kelvin)            478.64   563.03   608.28   731.85   759.13
                              798.50   908.25   951.70  1010.31  1099.25
                             1190.36  1207.27  1229.66  1308.06  1358.89
                             1379.18  1417.11  1474.13  1494.11  1520.41
                             1557.92  1575.14  1595.38  1713.69  1724.84
                             1801.14  1934.67  1961.64  1985.65  2071.68
                             2159.04  2164.74  2177.03  2222.10  2382.52
                             2390.37  2520.83  4410.30  4500.87  4544.04
                             4584.93  4598.94  4617.16  4631.48  4666.75
                             5032.03

 Zero-point correction=                           0.155034 (Hartree/Particle)
 Thermal correction to Energy=                    0.164095
 Thermal correction to Enthalpy=                  0.165040
 Thermal correction to Gibbs Free Energy=         0.119560
 Sum of electronic and zero-point Energies=           -440.109434
 Sum of electronic and thermal Energies=              -440.100373
 Sum of electronic and thermal Enthalpies=            -440.099429
 Sum of electronic and thermal Free Energies=         -440.144908

                     E (Thermal)             CV                S
                      KCal/Mol        Cal/Mol-Kelvin    Cal/Mol-Kelvin
 Total                  102.971             33.775             95.720
 Electronic               0.000              0.000              0.000
 Translational            0.889              2.981             40.614
 Rotational               0.889              2.981             29.427
 Vibrational            101.194             27.813             25.678
 Vibration     1          0.593              1.985              6.120
 Vibration     2          0.598              1.969              4.169
 Vibration     3          0.611              1.926              2.993
 Vibration     4          0.612              1.924              2.957
 Vibration     5          0.676              1.723              1.576
 Vibration     6          0.715              1.610              1.247
 Vibration     7          0.759              1.489              0.995
 Vibration     8          0.785              1.421              0.883
 Vibration     9          0.864              1.231              0.637
 Vibration    10          0.883              1.189              0.593
 Vibration    11          0.910              1.129              0.534

 Optimization completed.
    -- Stationary point found.
 Normal termination of Gaussian 16 at Tue Dec  8 10:50:18 2020.

 ----------------------------------------------------------------------
 # B3LYP/6-311++G(d,p) empiricaldispersion=gd3bj scf=xqc pop=npa geom=c
 heck
 ----------------------------------------------------------------------

 -----------------------------------
 CID_290510_JID_461_Energie_neutraal
 -----------------------------------
 Structure from the checkpoint file:  "JID_461.chk"
 Charge =  0 Multiplicity = 1

 SCF Done:  E(RB3LYP) =  -440.389655486     A.U. after   14 cycles
 Normal termination of Gaussian 16 at Tue Dec  8 10:53:25 2020.

 ----------------------------------------------------------------------
 # B3LYP/6-311++G(d,p) empiricaldispersion=gd3bj scf=xqc pop=npa geom=c
 heck
 ----------------------------------------------------------------------

 ---------------------------------
 CID_290510_JID_461_Energie_kation
 ---------------------------------
 Structure from the checkpoint file:  "JID_461.chk"
 Charge =  1 Multiplicity = 2

 SCF Done:  E(UB3LYP) =  -440.075072868     A.U. after   25 cycles
 Normal termination of Gaussian 16 at Tue Dec  8 11:04:02 2020.
 Gaussian 16:  ES64L-G16RevA.03 25-Dec-2016

 ----------------------------------------------------------------------
 # B3LYP/6-311++G(d,p) empiricaldispersion=gd3bj scf=xqc pop=npa geom=c
 heck
 ----------------------------------------------------------------------

 --------------------------------
 CID_290510_JID_461_Energie_anion
 --------------------------------
 Structure from the checkpoint file:  "JID_461.chk"
 Charge = -1 Multiplicity = 2

                         Standard orientation:
 ---------------------------------------------------------------------
 Center     Atomic      Atomic             Coordinates (Angstroms)
 Number     Number       Type             X           Y           Z
 ---------------------------------------------------------------------
      1          6           0        3.409567   -0.420344   -0.309654
      2          6           0        2.083402    0.122868    0.156367
      3          7           0        1.839690    1.055272    0.980952
      4          8           0        1.080696   -0.572259   -0.461829
      5          6           0       -0.255199   -0.255745   -0.224209
      6          6           0       -1.081292   -1.299575    0.181126
      7          6           0       -2.447900   -1.068301    0.342130
      8          6           0       -2.977184    0.199664    0.101915
      9          6           0       -2.133904    1.236359   -0.304755
     10          6           0       -0.768042    1.016126   -0.472961
     11          1           0        4.238081    0.107750    0.167371
     12          1           0        3.494892   -0.318307   -1.396708
     13          1           0        3.480668   -1.487970   -0.076454
     14          1           0        2.714104    1.440025    1.338959
     15          1           0       -0.646116   -2.277433    0.359748
     16          1           0       -3.095895   -1.881373    0.656749
     17          1           0       -4.040397    0.380526    0.229735
     18          1           0       -2.540575    2.225932   -0.493008
     19          1           0       -0.104842    1.815710   -0.778180
 ---------------------------------------------------------------------

 SCF Done:  E(UB3LYP) =  -440.373102392     A.U. after   33 cycles
 SCF Done:  E(UB3LYP) =  -440.373102392     a.u. after    1 cycles

 The electronic state is 2-A.
 Alpha  occ. eigenvalues --  -19.06413 -14.18274 -10.16951 -10.13534 -10.07971
 Alpha  occ. eigenvalues --  -10.07942 -10.07646 -10.07618 -10.07561 -10.06883
 Alpha  occ. eigenvalues --   -0.98854  -0.79655  -0.75757  -0.66376  -0.65381
 Alpha  occ. eigenvalues --   -0.62335  -0.53947  -0.51594  -0.47125  -0.42436
 Alpha  occ. eigenvalues --   -0.39763  -0.37806  -0.36364  -0.34970  -0.33710
 Alpha  occ. eigenvalues --   -0.32770  -0.31124  -0.29734  -0.27747  -0.26543
 Alpha  occ. eigenvalues --   -0.25718  -0.24634  -0.18350  -0.17749  -0.15805
 Alpha  occ. eigenvalues --   -0.14174   0.04697
 Alpha virt. eigenvalues --    0.06209   0.07581   0.08187   0.08344   0.08847
 Alpha virt. eigenvalues --    0.09148   0.09448   0.11076   0.11788   0.12731
 Alpha virt. eigenvalues --    0.13058   0.14371   0.15172   0.16113   0.17086

  Beta  occ. eigenvalues --  -19.06402 -14.18248 -10.16952 -10.13535 -10.07962
  Beta  occ. eigenvalues --  -10.07927 -10.07634 -10.07608 -10.07547 -10.06810
  Beta  occ. eigenvalues --   -0.98838  -0.79611  -0.75731  -0.66336  -0.65354
  Beta  occ. eigenvalues --   -0.62259  -0.53895  -0.51556  -0.47087  -0.42380
  Beta  occ. eigenvalues --   -0.39704  -0.37777  -0.36300  -0.34932  -0.33667
  Beta  occ. eigenvalues --   -0.32734  -0.31071  -0.29670  -0.27710  -0.26509
  Beta  occ. eigenvalues --   -0.25692  -0.24603  -0.18326  -0.17717  -0.15787
  Beta  occ. eigenvalues --   -0.14161
  Beta virt. eigenvalues --    0.06947   0.07737   0.08212   0.08255   0.08391
  Beta virt. eigenvalues --    0.09592   0.10036   0.10201   0.11814   0.12251
  Beta virt. eigenvalues --    0.13177   0.13595   0.14368   0.15247   0.16228

 Mulliken charges and spin densities:
               1          2
     1  C    3.278482  -3.843477
     2  C   -1.802822   1.775114
     3  N   -0.300606  -0.000116
     4  O   -0.027682   0.022217
     5  C   -0.211557   0.026011
     6  C   -0.411415   0.515278
     7  C    0.426585  -0.661254
     8  C    1.130260  -1.390930
     9  C   -0.207395   0.019771
    10  C    0.020080   0.093964
    11  H   -0.622504   0.765522
    12  H   -0.453186   0.627694
    13  H   -0.577043   0.750590
    14  H   -0.050860   0.286066
    15  H   -0.141020   0.315191
    16  H   -0.496638   0.668051
    17  H   -0.327504   0.476334
    18  H   -0.236107   0.401110
    19  H    0.010931   0.152863
 Sum of Mulliken charges =  -1.00000   1.00000

 Dipole moment (field-independent basis, Debye):
    X=             -3.6772    Y=              0.7302    Z=             -0.8226  Tot=              3.8382
 Quadrupole moment (field-independent basis, Debye-Ang):
   XX=           -142.3531   YY=            -90.8929   ZZ=            -85.9049
   XY=             -0.7346   XZ=              1.7275   YZ=             -1.2001

 Summary of Natural Population Analysis:

                                       Natural Population
                Natural  -----------------------------------------------
    Atom  No    Charge         Core      Valence    Rydberg      Total
 -----------------------------------------------------------------------
      C    1   -0.31958      0.99961     2.31387    0.00610     3.31958
      C    2    0.29986      0.99959     1.68237    0.01817     2.70014
      N    3   -0.35669      0.99968     2.84573    0.01128     3.85669
      O    4   -0.28151      0.99983     3.26879    0.01288     4.28151
      C    5    0.15473      0.99934     1.83240    0.01353     2.84527
      C    6   -0.11455      0.99951     2.10565    0.00940     3.11455
      C    7   -0.09869      0.99957     2.08860    0.01052     3.09869
      C    8   -0.10985      0.99956     2.09977    0.01052     3.10985
      C    9   -0.09773      0.99957     2.08862    0.00954     3.09773
      C   10   -0.11002      0.99950     2.10144    0.00908     3.11002
      H   11    0.10832      0.00000     0.38757    0.00411     0.39168
      H   12    0.11302      0.00000     0.38472    0.00225     0.38698
      H   13    0.11373      0.00000     0.38361    0.00265     0.38627
      H   14    0.17495      0.00000     0.32316    0.00189     0.32505
      H   15    0.10804      0.00000     0.39069    0.00127     0.39196
      H   16    0.10212      0.00000     0.39645    0.00143     0.39788
      H   17    0.10202      0.00000     0.39640    0.00158     0.39798
      H   18    0.10041      0.00000     0.39860    0.00099     0.39959
      H   19    0.11142      0.00000     0.38717    0.00142     0.38858
 =======================================================================
   * Total *   -0.00000      9.99578    25.87560    0.12862    36.00000

 Normal termination of Gaussian 16 at Tue Dec  8 11:10:57 2020.
