 Gaussian 16, Revision A.03,

 -----------------------------------------------------------
 # opt freq B3LYP/6-31G(d) empiricaldispersion=gd3bj scf=xqc
 -----------------------------------------------------------

 ------------------------------
 CID_10261360_JID_2073_neutraal
 ------------------------------
 Symbolic Z-matrix:
 Charge =  0 Multiplicity = 1

 SCF Done:  E(RB3LYP) =  -516.438883626     A.U. after   16 cycles
 SCF Done:  E(RB3LYP) =  -516.441234133     A.U. after   12 cycles
 SCF Done:  E(RB3LYP) =  -516.438623549     A.U. after   15 cycles
 SCF Done:  E(RB3LYP) =  -516.442575343     A.U. after   12 cycles
 SCF Done:  E(RB3LYP) =  -516.442187829     A.U. after   13 cycles
 SCF Done:  E(RB3LYP) =  -516.442848252     A.U. after   12 cycles
 SCF Done:  E(RB3LYP) =  -516.442848282     A.U. after   13 cycles
 SCF Done:  E(RB3LYP) =  -516.443271811     A.U. after   11 cycles
 SCF Done:  E(RB3LYP) =  -516.443441426     A.U. after   13 cycles
 SCF Done:  E(RB3LYP) =  -516.443667015     A.U. after   12 cycles
 SCF Done:  E(RB3LYP) =  -516.443902202     A.U. after   10 cycles
 SCF Done:  E(RB3LYP) =  -516.443909365     A.U. after   11 cycles
 SCF Done:  E(RB3LYP) =  -516.443914045     A.U. after   11 cycles
 SCF Done:  E(RB3LYP) =  -516.443915377     A.U. after   10 cycles
 SCF Done:  E(RB3LYP) =  -516.443915455     A.U. after    8 cycles
 Optimization completed.
    -- Stationary point found.
 Normal termination of Gaussian 16 at Wed Dec  9 16:49:50 2020.

 --------------------------------------------------------------------
 #N Geom=AllCheck Guess=TCheck SCRF=Check GenChk RB3LYP/6-31G(d) Freq
 --------------------------------------------------------------------

 Structure from the checkpoint file:  "JID_2073.chk"
 ------------------------------
 CID_10261360_JID_2073_neutraal
 ------------------------------
 Charge =  0 Multiplicity = 1

 SCF Done:  E(RB3LYP) =  -516.443915455     A.U. after    1 cycles

  Exact polarizability: 145.098  17.597 123.451  -9.827   2.997  58.354
 Approx polarizability: 230.746  37.244 210.124 -24.435   6.487  86.243

                      1                      2                      3
                      A                      A                      A
 Frequencies --     44.8067                60.6808                98.6235
 Red. masses --      5.1846                 3.3379                 3.2919
 Frc consts  --      0.0061                 0.0072                 0.0189
 IR Inten    --      0.6666                 0.6895                 1.0434

                      4                      5                      6
                      A                      A                      A
 Frequencies --    129.3437               149.8667               155.6622
 Red. masses --      1.3772                 2.8896                 4.0063
 Frc consts  --      0.0136                 0.0382                 0.0572
 IR Inten    --      0.2982                 0.1342                 0.2631

                      7                      8                      9
                      A                      A                      A
 Frequencies --    268.7443               358.1905               371.8144
 Red. masses --      4.1561                 6.5748                 6.6897
 Frc consts  --      0.1769                 0.4970                 0.5449
 IR Inten    --      4.3070                 0.6194                 6.3874

                     10                     11                     12
                      A                      A                      A
 Frequencies --    388.4001               456.6561               461.7661
 Red. masses --      4.2182                 1.1941                 3.5836
 Frc consts  --      0.3749                 0.1467                 0.4502
 IR Inten    --      0.8411                80.6278                 3.3218

                     13                     14                     15
                      A                      A                      A
 Frequencies --    515.8594               542.0337               563.7560
 Red. masses --      5.9937                 3.9323                 2.6319
 Frc consts  --      0.9397                 0.6807                 0.4928
 IR Inten    --      9.2868                24.1175                 7.3144

                     16                     17                     18
                      A                      A                      A
 Frequencies --    573.1402               589.2840               611.8231
 Red. masses --      4.4153                 1.6598                 2.4893
 Frc consts  --      0.8545                 0.3396                 0.5490
 IR Inten    --      4.1786                22.6830                43.1927

                     19                     20                     21
                      A                      A                      A
 Frequencies --    632.5278               655.4165               739.2733
 Red. masses --      1.2224                 5.3357                 4.2520
 Frc consts  --      0.2882                 1.3504                 1.3692
 IR Inten    --     38.4268                 4.4258                 0.2977

                     22                     23                     24
                      A                      A                      A
 Frequencies --    766.5666               781.2876               825.1687
 Red. masses --      2.8738                 1.6751                 3.8498
 Frc consts  --      0.9950                 0.6024                 1.5444
 IR Inten    --     15.4559                31.5459                 1.1380

                     25                     26                     27
                      A                      A                      A
 Frequencies --    891.1017               934.8121               956.3886
 Red. masses --      1.4450                 3.7359                 1.4194
 Frc consts  --      0.6761                 1.9235                 0.7649
 IR Inten    --      0.8819                 2.6734                 2.0612

                     28                     29                     30
                      A                      A                      A
 Frequencies --    989.6882              1039.7492              1071.8421
 Red. masses --      1.2712                 1.6003                 2.0660
 Frc consts  --      0.7336                 1.0193                 1.3984
 IR Inten    --      0.0127                20.2720                 6.6727

                     31                     32                     33
                      A                      A                      A
 Frequencies --   1072.0172              1135.3919              1195.2623
 Red. masses --      1.7713                 1.9477                 1.0936
 Frc consts  --      1.1994                 1.4793                 0.9206
 IR Inten    --      4.5822                 6.2568                 0.1347

                     34                     35                     36
                      A                      A                      A
 Frequencies --   1230.1021              1267.6677              1297.0818
 Red. masses --      2.7647                 2.5535                 1.5597
 Frc consts  --      2.4648                 2.4176                 1.5460
 IR Inten    --      2.3890                13.9082                 3.6687

                     37                     38                     39
                      A                      A                      A
 Frequencies --   1337.0452              1346.2748              1426.0547
 Red. masses --      4.6609                 3.2890                 1.3929
 Frc consts  --      4.9092                 3.5123                 1.6690
 IR Inten    --     81.9278               145.8834                76.7675

                     40                     41                     42
                      A                      A                      A
 Frequencies --   1449.0438              1503.7654              1505.5118
 Red. masses --      1.7512                 2.3449                 1.0629
 Frc consts  --      2.1664                 3.1241                 1.4195
 IR Inten    --     34.6147                36.5513                 8.0719

                     43                     44                     45
                      A                      A                      A
 Frequencies --   1514.0677              1535.9656              1623.8469
 Red. masses --      1.0768                 2.8289                 5.8451
 Frc consts  --      1.4543                 3.9322                 9.0810
 IR Inten    --      5.1370                62.8946                 3.1762

                     46                     47                     48
                      A                      A                      A
 Frequencies --   1656.9389              1802.8795              2229.1360
 Red. masses --      5.8160                 8.3858                 6.1432
 Frc consts  --      9.4077                16.0594                17.9852
 IR Inten    --     10.5043               398.4287                 0.1938

                     49                     50                     51
                      A                      A                      A
 Frequencies --   3075.2385              3143.3192              3176.0631
 Red. masses --      1.0360                 1.1010                 1.1030
 Frc consts  --      5.7728                 6.4095                 6.5554
 IR Inten    --      4.0901                 6.3898                 8.6559

                     52                     53                     54
                      A                      A                      A
 Frequencies --   3193.6548              3203.5962              3213.3042
 Red. masses --      1.0859                 1.0898                 1.0940
 Frc consts  --      6.5256                 6.5898                 6.6553
 IR Inten    --      0.3180                 7.8658                16.7685

                     55                     56                     57
                      A                      A                      A
 Frequencies --   3222.1376              3494.7398              3583.0470
 Red. masses --      1.0970                 1.1573                 1.0753
 Frc consts  --      6.7105                 8.3277                 8.1339
 IR Inten    --     13.4612                79.3377                27.8062

 - Thermochemistry -
 -------------------
 Temperature   298.150 Kelvin.  Pressure   1.00000 Atm.
 Atom     1 has atomic number  6 and mass  12.00000

 Molecular mass:   159.06841 amu.
 Principal axes and moments of inertia in atomic units:
                           1         2         3
     Eigenvalues --  1193.412972395.666923180.42912
           X            0.99971   0.02242   0.00835
           Y           -0.02247   0.99973   0.00519
           Z           -0.00823  -0.00538   0.99995
 This molecule is an asymmetric top.
 Rotational symmetry number  1.
 Warning -- assumption of classical behavior for rotation
           may cause significant error
 Rotational temperatures (Kelvin)      0.07258     0.03615     0.02723
 Rotational constants (GHZ):           1.51225     0.75334     0.56745
 Zero-point vibrational energy     430999.1 (Joules/Mol)
                                  103.01126 (Kcal/Mol)
 Warning -- explicit consideration of  18 degrees of freedom as
           vibrations may cause significant error
 Vibrational temperatures:     64.47    87.31   141.90   186.10   215.62
          (Kelvin)            223.96   386.66   515.36   534.96   558.82
                              657.03   664.38   742.21   779.87   811.12
                              824.62   847.85   880.28   910.07   943.00
                             1063.65  1102.92  1124.10  1187.23  1282.10
                             1344.99  1376.03  1423.94  1495.97  1542.14
                             1542.39  1633.58  1719.72  1769.84  1823.89
                             1866.21  1923.71  1936.99  2051.77  2084.85
                             2163.58  2166.10  2178.41  2209.91  2336.35
                             2383.97  2593.94  3207.23  4424.58  4522.54
                             4569.65  4594.96  4609.26  4623.23  4635.94
                             5028.15  5155.21

 Zero-point correction=                           0.164159 (Hartree/Particle)
 Thermal correction to Energy=                    0.175435
 Thermal correction to Enthalpy=                  0.176380
 Thermal correction to Gibbs Free Energy=         0.126487
 Sum of electronic and zero-point Energies=           -516.279757
 Sum of electronic and thermal Energies=              -516.268480
 Sum of electronic and thermal Enthalpies=            -516.267536
 Sum of electronic and thermal Free Energies=         -516.317429

                     E (Thermal)             CV                S
                      KCal/Mol        Cal/Mol-Kelvin    Cal/Mol-Kelvin
 Total                  110.087             42.389            105.008
 Electronic               0.000              0.000              0.000
 Translational            0.889              2.981             41.102
 Rotational               0.889              2.981             30.587
 Vibrational            108.310             36.427             33.319
 Vibration     1          0.595              1.979              5.034
 Vibration     2          0.597              1.973              4.435
 Vibration     3          0.604              1.950              3.481
 Vibration     4          0.612              1.924              2.956
 Vibration     5          0.618              1.903              2.674
 Vibration     6          0.620              1.896              2.602
 Vibration     7          0.673              1.731              1.604
 Vibration     8          0.733              1.558              1.130
 Vibration     9          0.744              1.530              1.072
 Vibration    10          0.757              1.495              1.006
 Vibration    11          0.815              1.346              0.776
 Vibration    12          0.819              1.335              0.761
 Vibration    13          0.871              1.215              0.620
 Vibration    14          0.897              1.157              0.561
 Vibration    15          0.920              1.110              0.516
 Vibration    16          0.929              1.089              0.498
 Vibration    17          0.947              1.055              0.468
 Vibration    18          0.971              1.007              0.430

 Optimization completed.
    -- Stationary point found.
 Normal termination of Gaussian 16 at Wed Dec  9 16:54:10 2020.

 ----------------------------------------------------------------------
 # B3LYP/6-311++G(d,p) empiricaldispersion=gd3bj scf=xqc pop=npa geom=c
 heck
 ----------------------------------------------------------------------

 --------------------------------------
 CID_10261360_JID_2073_Energie_neutraal
 --------------------------------------
 Structure from the checkpoint file:  "JID_2073.chk"
 Charge =  0 Multiplicity = 1

 SCF Done:  E(RB3LYP) =  -516.591773435     A.U. after   16 cycles
 Normal termination of Gaussian 16 at Wed Dec  9 16:55:53 2020.

 ----------------------------------------------------------------------
 # B3LYP/6-311++G(d,p) empiricaldispersion=gd3bj scf=xqc pop=npa geom=c
 heck
 ----------------------------------------------------------------------

 ------------------------------------
 CID_10261360_JID_2073_Energie_kation
 ------------------------------------
 Structure from the checkpoint file:  "JID_2073.chk"
 Charge =  1 Multiplicity = 2

 SCF Done:  E(UB3LYP) =  -516.277578779     A.U. after   27 cycles
 Normal termination of Gaussian 16 at Wed Dec  9 16:59:48 2020.
 Gaussian 16:  ES64L-G16RevA.03 25-Dec-2016

 ----------------------------------------------------------------------
 # B3LYP/6-311++G(d,p) empiricaldispersion=gd3bj scf=xqc pop=npa geom=c
 heck
 ----------------------------------------------------------------------

 -----------------------------------
 CID_10261360_JID_2073_Energie_anion
 -----------------------------------
 Structure from the checkpoint file:  "JID_2073.chk"
 Charge = -1 Multiplicity = 2

                         Standard orientation:
 ---------------------------------------------------------------------
 Center     Atomic      Atomic             Coordinates (Angstroms)
 Number     Number       Type             X           Y           Z
 ---------------------------------------------------------------------
      1          6           0        1.939767   -0.180207    1.490219
      2          6           0        2.135749   -0.671709    0.069881
      3          8           0        3.230190   -0.954428   -0.391621
      4          7           0        0.997349   -0.817241   -0.704839
      5          6           0       -0.346292   -0.532245   -0.356510
      6          6           0       -1.270531   -1.576704   -0.270179
      7          6           0       -2.603489   -1.326531    0.048609
      8          6           0       -3.024924   -0.019622    0.302901
      9          6           0       -2.117853    1.030556    0.215837
     10          6           0       -0.774709    0.796784   -0.131349
     11          6           0        0.119756    1.897422   -0.282093
     12          6           0        0.858795    2.846339   -0.409220
     13          1           0        2.824075   -0.459239    2.064647
     14          1           0        1.042493   -0.601112    1.953276
     15          1           0        1.841552    0.909495    1.496818
     16          1           0        1.179314   -1.242436   -1.606484
     17          1           0       -0.923729   -2.590713   -0.445404
     18          1           0       -3.307245   -2.151073    0.112005
     19          1           0       -4.059663    0.180936    0.563471
     20          1           0       -2.436386    2.051861    0.396529
     21          1           0        1.519006    3.673893   -0.536593
 ---------------------------------------------------------------------

 SCF Done:  E(UB3LYP) =  -516.591717442     A.U. after   33 cycles
 SCF Done:  E(UB3LYP) =  -516.591717443     a.u. after    1 cycles

 The electronic state is 2-A.
 Alpha  occ. eigenvalues --  -18.96159 -14.20515 -10.14707 -10.05996 -10.04445
 Alpha  occ. eigenvalues --  -10.02915 -10.02607 -10.02584 -10.02395 -10.01825
 Alpha  occ. eigenvalues --  -10.01115 -10.00339  -0.91325  -0.79632  -0.70319
 Alpha  occ. eigenvalues --   -0.63127  -0.61508  -0.59603  -0.57541  -0.48891
 Alpha  occ. eigenvalues --   -0.47166  -0.44381  -0.40545  -0.37977  -0.35233
 Alpha  occ. eigenvalues --   -0.34932  -0.32979  -0.30715  -0.30486  -0.28601
 Alpha  occ. eigenvalues --   -0.28017  -0.27440  -0.24545  -0.23347  -0.22427
 Alpha  occ. eigenvalues --   -0.21269  -0.16683  -0.14711  -0.13408  -0.12838
 Alpha  occ. eigenvalues --   -0.10737  -0.09217   0.05886
 Alpha virt. eigenvalues --    0.08889   0.09714   0.10004   0.10752   0.11066
 Alpha virt. eigenvalues --    0.11898   0.12761   0.13534   0.14023   0.14415
 Alpha virt. eigenvalues --    0.15257   0.15758   0.16594   0.17557   0.18243

  Beta  occ. eigenvalues --  -18.96150 -14.20528 -10.14687 -10.05807 -10.04442
  Beta  occ. eigenvalues --  -10.02975 -10.02620 -10.02294 -10.02218 -10.01835
  Beta  occ. eigenvalues --  -10.00691 -10.00066  -0.91301  -0.79486  -0.69889
  Beta  occ. eigenvalues --   -0.62545  -0.61409  -0.59334  -0.57054  -0.48373
  Beta  occ. eigenvalues --   -0.46853  -0.44138  -0.40330  -0.37625  -0.34985
  Beta  occ. eigenvalues --   -0.34872  -0.32846  -0.30511  -0.30324  -0.28459
  Beta  occ. eigenvalues --   -0.27967  -0.27419  -0.24298  -0.22489  -0.22018
  Beta  occ. eigenvalues --   -0.21093  -0.15176  -0.14322  -0.13374  -0.12682
  Beta  occ. eigenvalues --   -0.09969  -0.07323
  Beta virt. eigenvalues --    0.08754   0.09668   0.09933   0.10649   0.11108
  Beta virt. eigenvalues --    0.11742   0.11972   0.12738   0.13518   0.13940
  Beta virt. eigenvalues --    0.14513   0.15367   0.15815   0.16652   0.17696

 Mulliken charges and spin densities:
               1          2
     1  C   -0.343258  -0.101838
     2  C    0.120886   0.022913
     3  O   -0.388991   0.004140
     4  N   -0.156328   0.016072
     5  C   -1.631982   0.221738
     6  C   -0.151444  -0.031327
     7  C   -0.074162   0.204261
     8  C   -0.480524   0.016424
     9  C    0.067511   0.095928
    10  C    0.698926   0.245172
    11  C    0.892502  -0.496588
    12  C   -0.596582   0.555921
    13  H    0.126422   0.012011
    14  H    0.130175   0.026197
    15  H    0.126072   0.045959
    16  H    0.253899   0.034451
    17  H    0.066815   0.053850
    18  H    0.057015   0.019668
    19  H    0.065230   0.039347
    20  H    0.107177   0.005818
    21  H    0.110641   0.009884
 Sum of Mulliken charges =  -1.00000   1.00000

 Dipole moment (field-independent basis, Debye):
    X=             -0.9157    Y=             -1.5893    Z=              0.8886  Tot=              2.0382
 Quadrupole moment (field-independent basis, Debye-Ang):
   XX=           -109.3517   YY=            -89.3053   ZZ=            -80.0743
   XY=              1.2842   XZ=              2.1148   YZ=              0.4524

 Summary of Natural Population Analysis:

                                       Natural Population
                Natural  -----------------------------------------------
    Atom  No    Charge         Core      Valence    Rydberg      Total
 -----------------------------------------------------------------------
      C    1   -0.33852      0.99962     2.33469    0.00421     3.33852
      C    2    0.35164      0.99970     1.62698    0.02167     2.64836
      O    3   -0.33543      0.99987     3.32929    0.00627     4.33543
      N    4   -0.31861      0.99965     2.80858    0.01039     3.81861
      C    5    0.10595      0.99944     1.88234    0.01226     2.89405
      C    6   -0.12583      0.99952     2.11727    0.00903     3.12583
      C    7   -0.03205      0.99958     2.02123    0.01124     3.03205
      C    8   -0.11867      0.99957     2.10844    0.01067     3.11867
      C    9   -0.05967      0.99955     2.05105    0.00907     3.05967
      C   10   -0.02273      0.99941     2.01399    0.00933     3.02273
      C   11   -0.00969      0.99938     2.00246    0.00785     3.00969
      C   12   -0.08911      0.99927     2.08523    0.00460     3.08911
      H   13    0.10248      0.00000     0.39640    0.00112     0.39752
      H   14    0.11057      0.00000     0.38854    0.00088     0.38943
      H   15    0.12355      0.00000     0.37493    0.00151     0.37645
      H   16    0.19243      0.00000     0.30515    0.00242     0.30757
      H   17    0.09330      0.00000     0.40558    0.00112     0.40670
      H   18    0.08590      0.00000     0.41303    0.00106     0.41410
      H   19    0.09057      0.00000     0.40836    0.00107     0.40943
      H   20    0.09391      0.00000     0.40506    0.00103     0.40609
      H   21    0.10000      0.00000     0.39882    0.00118     0.40000
 =======================================================================
   * Total *   -0.00000     11.99457    29.87744    0.12799    42.00000

 Normal termination of Gaussian 16 at Wed Dec  9 17:05:12 2020.
