 Gaussian 16, Revision A.03,

 -----------------------------------------------------------
 # opt freq B3LYP/6-31G(d) empiricaldispersion=gd3bj scf=xqc
 -----------------------------------------------------------

 -----------------------------
 CID_13610387_JID_995_neutraal
 -----------------------------
 Symbolic Z-matrix:
 Charge =  0 Multiplicity = 1

 SCF Done:  E(RB3LYP) =  -473.513813600     A.U. after   16 cycles
 SCF Done:  E(RB3LYP) =  -473.522973857     A.U. after   14 cycles
 SCF Done:  E(RB3LYP) =  -473.526710722     A.U. after   14 cycles
 SCF Done:  E(RB3LYP) =  -473.527097248     A.U. after   14 cycles
 SCF Done:  E(RB3LYP) =  -473.527429728     A.U. after   13 cycles
 SCF Done:  E(RB3LYP) =  -473.527625609     A.U. after   12 cycles
 SCF Done:  E(RB3LYP) =  -473.527627821     A.U. after    9 cycles
 SCF Done:  E(RB3LYP) =  -473.527628540     A.U. after    8 cycles
 SCF Done:  E(RB3LYP) =  -473.527629082     A.U. after    8 cycles
 SCF Done:  E(RB3LYP) =  -473.527629382     A.U. after    7 cycles
 SCF Done:  E(RB3LYP) =  -473.527629489     A.U. after    7 cycles
 Optimization completed.
    -- Stationary point found.
 Normal termination of Gaussian 16 at Tue Dec  8 13:29:56 2020.

 --------------------------------------------------------------------
 #N Geom=AllCheck Guess=TCheck SCRF=Check GenChk RB3LYP/6-31G(d) Freq
 --------------------------------------------------------------------

 Structure from the checkpoint file:  "JID_995.chk"
 -----------------------------
 CID_13610387_JID_995_neutraal
 -----------------------------
 Charge =  0 Multiplicity = 1

 SCF Done:  E(RB3LYP) =  -473.527629489     A.U. after    1 cycles

  Exact polarizability: 115.804   0.000  97.472   0.536  -0.001  49.175
 Approx polarizability: 220.115   0.000 137.326  -0.660  -0.001  73.471

                      1                      2                      3
                      A                      A                      A
 Frequencies --     57.4259                86.1188               136.5980
 Red. masses --      1.0223                 4.7162                 1.0959
 Frc consts  --      0.0020                 0.0206                 0.0120
 IR Inten    --      0.0070                 1.8660                 2.2497

                      4                      5                      6
                      A                      A                      A
 Frequencies --    136.7819               153.9151               267.3057
 Red. masses --      1.0287                 2.6516                 4.0996
 Frc consts  --      0.0113                 0.0370                 0.1726
 IR Inten    --      0.0001                 2.6972                 0.8353

                      7                      8                      9
                      A                      A                      A
 Frequencies --    268.1754               276.0986               319.9450
 Red. masses --      2.5321                 3.0283                 4.8493
 Frc consts  --      0.1073                 0.1360                 0.2925
 IR Inten    --      2.4341                 7.0277                 5.1138

                     10                     11                     12
                      A                      A                      A
 Frequencies --    345.6293               483.0126               501.1418
 Red. masses --      3.8502                 6.8319                 4.8868
 Frc consts  --      0.2710                 0.9391                 0.7231
 IR Inten    --      1.3577                35.7385                 0.0397

                     13                     14                     15
                      A                      A                      A
 Frequencies --    536.2389               540.5935               601.0898
 Red. masses --      9.8979                 4.9965                 4.3325
 Frc consts  --      1.6769                 0.8603                 0.9223
 IR Inten    --      9.4985                12.7681                 0.0812

                     16                     17                     18
                      A                      A                      A
 Frequencies --    605.3847               785.6121               817.9618
 Red. masses --      4.5174                 5.4861                 4.3694
 Frc consts  --      0.9754                 1.9949                 1.7224
 IR Inten    --      4.0278                 6.1553                19.6414

                     19                     20                     21
                      A                      A                      A
 Frequencies --    947.7237               957.7590              1048.9331
 Red. masses --      3.2797                 4.8213                 2.0507
 Frc consts  --      1.7356                 2.6057                 1.3293
 IR Inten    --      4.1145                21.9864                 4.8586

                     22                     23                     24
                      A                      A                      A
 Frequencies --   1060.7327              1062.5220              1063.6491
 Red. masses --      1.5443                 1.7474                 1.5056
 Frc consts  --      1.0237                 1.1623                 1.0036
 IR Inten    --      1.5954                 0.0224                 0.0080

                     25                     26                     27
                      A                      A                      A
 Frequencies --   1109.8298              1155.1084              1293.9245
 Red. masses --      1.9906                 1.3084                 5.2858
 Frc consts  --      1.4446                 1.0286                 5.2141
 IR Inten    --     15.9394                20.9995                 3.2557

                     28                     29                     30
                      A                      A                      A
 Frequencies --   1300.5710              1376.3863              1428.4660
 Red. masses --      3.1946                 4.0944                 1.4810
 Frc consts  --      3.1837                 4.5701                 1.7805
 IR Inten    --     23.5565                62.9006                 1.2949

                     31                     32                     33
                      A                      A                      A
 Frequencies --   1441.5069              1462.6992              1463.7683
 Red. masses --      1.5469                 1.1730                 4.4121
 Frc consts  --      1.8939                 1.4787                 5.5698
 IR Inten    --     38.4249                 3.7609                22.9728

                     34                     35                     36
                      A                      A                      A
 Frequencies --   1494.5854              1494.5888              1494.8931
 Red. masses --      1.1721                 1.1351                 1.0552
 Frc consts  --      1.5427                 1.4940                 1.3894
 IR Inten    --      1.8289                 4.4682                11.6175

                     37                     38                     39
                      A                      A                      A
 Frequencies --   1496.5585              1510.9773              1531.6531
 Red. masses --      1.0446                 1.0592                 1.0687
 Frc consts  --      1.3785                 1.4248                 1.4772
 IR Inten    --      0.0025                13.2310                 9.8696

                     40                     41                     42
                      A                      A                      A
 Frequencies --   1585.1121              1613.0399              1723.2190
 Red. masses --      4.9065                 5.6727                11.4817
 Frc consts  --      7.2635                 8.6961                20.0881
 IR Inten    --      0.0600                 4.8394               279.2674

                     43                     44                     45
                      A                      A                      A
 Frequencies --   3059.7050              3060.1073              3071.1431
 Red. masses --      1.0365                 1.0366                 1.0424
 Frc consts  --      5.7172                 5.7190                 5.7927
 IR Inten    --     14.7181                 4.5311                46.1500

                     46                     47                     48
                      A                      A                      A
 Frequencies --   3112.4640              3112.7949              3157.2944
 Red. masses --      1.0995                 1.0996                 1.0929
 Frc consts  --      6.2754                 6.2774                 6.4186
 IR Inten    --     15.5693                 0.0017                10.2660

                     49                     50                     51
                      A                      A                      A
 Frequencies --   3163.1208              3163.2853              3201.4069
 Red. masses --      1.1033                 1.1032                 1.1076
 Frc consts  --      6.5038                 6.5041                 6.6882
 IR Inten    --     12.4220                 5.4978                 2.6133

 - Thermochemistry -
 -------------------
 Temperature   298.150 Kelvin.  Pressure   1.00000 Atm.
 Atom     1 has atomic number  6 and mass  12.00000

 Molecular mass:   139.07456 amu.
 Principal axes and moments of inertia in atomic units:
                           1         2         3
     Eigenvalues --  1029.002941272.447442267.40419
           X            1.00000   0.00000   0.00135
           Y           -0.00000   1.00000  -0.00000
           Z           -0.00135   0.00000   1.00000
 This molecule is an asymmetric top.
 Rotational symmetry number  1.
 Warning -- assumption of classical behavior for rotation
           may cause significant error
 Rotational temperatures (Kelvin)      0.08417     0.06807     0.03820
 Rotational constants (GHZ):           1.75387     1.41832     0.79595
 Zero-point vibrational energy     401577.8 (Joules/Mol)
                                   95.97939 (Kcal/Mol)
 Warning -- explicit consideration of  16 degrees of freedom as
           vibrations may cause significant error
 Vibrational temperatures:     82.62   123.91   196.53   196.80   221.45
          (Kelvin)            384.59   385.84   397.24   460.33   497.28
                              694.95   721.03   771.53   777.79   864.83
                              871.01  1130.32  1176.86  1363.56  1378.00
                             1509.18  1526.16  1528.73  1530.35  1596.80
                             1661.94  1861.67  1871.23  1980.31  2055.24
                             2074.01  2104.50  2106.04  2150.38  2150.38
                             2150.82  2153.21  2173.96  2203.71  2280.62
                             2320.80  2479.33  4402.23  4402.81  4418.69
                             4478.14  4478.62  4542.64  4551.03  4551.26
                             4606.11

 Zero-point correction=                           0.152953 (Hartree/Particle)
 Thermal correction to Energy=                    0.163143
 Thermal correction to Enthalpy=                  0.164087
 Thermal correction to Gibbs Free Energy=         0.117185
 Sum of electronic and zero-point Energies=           -473.374677
 Sum of electronic and thermal Energies=              -473.364487
 Sum of electronic and thermal Enthalpies=            -473.363543
 Sum of electronic and thermal Free Energies=         -473.410445

                     E (Thermal)             CV                S
                      KCal/Mol        Cal/Mol-Kelvin    Cal/Mol-Kelvin
 Total                  102.374             36.236             98.714
 Electronic               0.000              0.000              0.000
 Translational            0.889              2.981             40.701
 Rotational               0.889              2.981             29.475
 Vibrational            100.596             30.274             28.538
 Vibration     1          0.596              1.975              4.544
 Vibration     2          0.601              1.959              3.746
 Vibration     3          0.614              1.917              2.851
 Vibration     4          0.614              1.917              2.848
 Vibration     5          0.619              1.898              2.623
 Vibration     6          0.672              1.733              1.614
 Vibration     7          0.673              1.732              1.608
 Vibration     8          0.678              1.718              1.558
 Vibration     9          0.706              1.635              1.310
 Vibration    10          0.724              1.584              1.186
 Vibration    11          0.839              1.288              0.702
 Vibration    12          0.857              1.247              0.655
 Vibration    13          0.891              1.170              0.573
 Vibration    14          0.896              1.160              0.564
 Vibration    15          0.959              1.029              0.448
 Vibration    16          0.964              1.020              0.440

 Optimization completed.
    -- Stationary point found.
 Normal termination of Gaussian 16 at Tue Dec  8 13:34:10 2020.

 ----------------------------------------------------------------------
 # B3LYP/6-311++G(d,p) empiricaldispersion=gd3bj scf=xqc pop=npa geom=c
 heck
 ----------------------------------------------------------------------

 -------------------------------------
 CID_13610387_JID_995_Energie_neutraal
 -------------------------------------
 Structure from the checkpoint file:  "JID_995.chk"
 Charge =  0 Multiplicity = 1

 SCF Done:  E(RB3LYP) =  -473.658986145     A.U. after   16 cycles
 Normal termination of Gaussian 16 at Tue Dec  8 13:36:46 2020.

 ----------------------------------------------------------------------
 # B3LYP/6-311++G(d,p) empiricaldispersion=gd3bj scf=xqc pop=npa geom=c
 heck
 ----------------------------------------------------------------------

 -----------------------------------
 CID_13610387_JID_995_Energie_kation
 -----------------------------------
 Structure from the checkpoint file:  "JID_995.chk"
 Charge =  1 Multiplicity = 2

 SCF Done:  E(UB3LYP) =  -473.346400097     A.U. after   26 cycles
 Normal termination of Gaussian 16 at Tue Dec  8 13:41:41 2020.
 Gaussian 16:  ES64L-G16RevA.03 25-Dec-2016

 ----------------------------------------------------------------------
 # B3LYP/6-311++G(d,p) empiricaldispersion=gd3bj scf=xqc pop=npa geom=c
 heck
 ----------------------------------------------------------------------

 ----------------------------------
 CID_13610387_JID_995_Energie_anion
 ----------------------------------
 Structure from the checkpoint file:  "JID_995.chk"
 Charge = -1 Multiplicity = 2

                         Standard orientation:
 ---------------------------------------------------------------------
 Center     Atomic      Atomic             Coordinates (Angstroms)
 Number     Number       Type             X           Y           Z
 ---------------------------------------------------------------------
      1          6           0       -1.073449    2.545757    0.004542
      2          6           0       -0.382838    1.219874   -0.004659
      3          7           0        0.928535    1.193141   -0.021079
      4          7           0        1.526543   -0.000009   -0.043666
      5          7           0        0.928523   -1.193149   -0.021075
      6          6           0       -0.382852   -1.219872   -0.004647
      7          6           0       -1.188304    0.000004    0.003770
      8          8           0       -2.424300    0.000013    0.017804
      9          6           0       -1.073473   -2.545750    0.004531
     10          6           0        2.982735   -0.000010    0.038013
     11          1           0       -1.733033    2.632549   -0.866450
     12          1           0       -0.345712    3.359630    0.000536
     13          1           0       -1.718649    2.627640    0.886600
     14          1           0       -1.733349   -2.632368   -0.866253
     15          1           0       -0.345743   -3.359627    0.000152
     16          1           0       -1.718375   -2.627801    0.886796
     17          1           0        3.352390    0.897006   -0.458308
     18          1           0        3.308374    0.000110    1.084035
     19          1           0        3.352365   -0.897150   -0.458100
 ---------------------------------------------------------------------

 SCF Done:  E(UB3LYP) =  -473.657833329     A.U. after   28 cycles

 The electronic state is 2-A.
 Alpha  occ. eigenvalues --  -18.90406 -14.24997 -14.18936 -14.18935 -10.07125
 Alpha  occ. eigenvalues --  -10.05927 -10.05925 -10.05670 -10.03505 -10.03505
 Alpha  occ. eigenvalues --   -0.92790  -0.84414  -0.77148  -0.70226  -0.61103
 Alpha  occ. eigenvalues --   -0.60219  -0.53673  -0.48789  -0.48251  -0.39267
 Alpha  occ. eigenvalues --   -0.36461  -0.35063  -0.29709  -0.29504  -0.28656
 Alpha  occ. eigenvalues --   -0.28286  -0.26953  -0.26366  -0.25368  -0.24939
 Alpha  occ. eigenvalues --   -0.23675  -0.20771  -0.18170  -0.17551  -0.14715
 Alpha  occ. eigenvalues --   -0.07838  -0.06669   0.05756
 Alpha virt. eigenvalues --    0.08450   0.09883   0.10100   0.11481   0.11868
 Alpha virt. eigenvalues --    0.12730   0.13166   0.13415   0.14801   0.14875
 Alpha virt. eigenvalues --    0.14933   0.17857   0.17942   0.19207   0.19521

  Beta  occ. eigenvalues --  -18.89965 -14.24563 -14.18501 -14.18499 -10.07122
  Beta  occ. eigenvalues --  -10.06053 -10.06052 -10.05375 -10.03500 -10.03500
  Beta  occ. eigenvalues --   -0.92029  -0.83622  -0.76473  -0.69853  -0.61042
  Beta  occ. eigenvalues --   -0.60132  -0.53440  -0.48150  -0.47965  -0.39069
  Beta  occ. eigenvalues --   -0.36269  -0.33834  -0.29514  -0.29480  -0.28667
  Beta  occ. eigenvalues --   -0.28232  -0.26718  -0.26341  -0.24882  -0.24173
  Beta  occ. eigenvalues --   -0.23593  -0.18718  -0.17543  -0.15796  -0.14201
  Beta  occ. eigenvalues --   -0.06277  -0.06049
  Beta virt. eigenvalues --    0.08848   0.09951   0.09984   0.11611   0.11946
  Beta virt. eigenvalues --    0.12606   0.13134   0.13315   0.13834   0.14697
  Beta virt. eigenvalues --    0.14879   0.14912   0.17736   0.17930   0.19203

 Mulliken charges and spin densities:
               1          2
     1  C   -0.513904  -0.018530
     2  C   -0.228826  -0.114934
     3  N   -0.097394   0.313758
     4  N    0.031223   0.082427
     5  N   -0.097314   0.313710
     6  C   -0.228718  -0.115042
     7  C    0.359418   0.257950
     8  O   -0.515952   0.153786
     9  C   -0.513894  -0.018550
    10  C    0.558748  -0.871749
    11  H    0.147555  -0.004341
    12  H    0.105399   0.012365
    13  H    0.130101   0.017160
    14  H    0.147573  -0.004338
    15  H    0.105433   0.012330
    16  H    0.130073   0.017169
    17  H    0.068386   0.063292
    18  H   -0.656282   0.840239
    19  H    0.068376   0.063299
 Sum of Mulliken charges =  -1.00000   1.00000

 Dipole moment (field-independent basis, Debye):
    X=             -0.3645    Y=             -0.0003    Z=             -2.5105  Tot=              2.5369
 Quadrupole moment (field-independent basis, Debye-Ang):
   XX=           -102.6822   YY=            -74.4870   ZZ=            -71.8101
   XY=             -0.0009   XZ=             -9.7510   YZ=             -0.0006

 Summary of Natural Population Analysis:

                                       Natural Population
                Natural  -----------------------------------------------
    Atom  No    Charge         Core      Valence    Rydberg      Total
 -----------------------------------------------------------------------
      C    1   -0.29771      0.99964     2.29151    0.00656     3.29771
      C    2    0.04179      0.99958     1.94422    0.01441     2.95821
      N    3   -0.08073      0.99965     2.56850    0.01258     3.58073
      N    4    0.02635      0.99972     2.45944    0.01449     3.47365
      N    5   -0.08073      0.99965     2.56851    0.01258     3.58073
      C    6    0.04178      0.99958     1.94422    0.01441     2.95822
      C    7    0.22304      0.99950     1.75657    0.02089     2.77696
      O    8   -0.29969      0.99989     3.29396    0.00584     4.29969
      C    9   -0.29771      0.99964     2.29151    0.00656     3.29771
      C   10   -0.17185      0.99965     2.16441    0.00779     3.17185
      H   11    0.10162      0.00000     0.39688    0.00150     0.39838
      H   12    0.09821      0.00000     0.40018    0.00161     0.40179
      H   13    0.10213      0.00000     0.39602    0.00185     0.39787
      H   14    0.10163      0.00000     0.39687    0.00150     0.39837
      H   15    0.09821      0.00000     0.40018    0.00161     0.40179
      H   16    0.10213      0.00000     0.39602    0.00185     0.39787
      H   17    0.09642      0.00000     0.40228    0.00131     0.40358
      H   18    0.09869      0.00000     0.39479    0.00652     0.40131
      H   19    0.09642      0.00000     0.40227    0.00131     0.40358
 =======================================================================
   * Total *    0.00000      9.99650    26.86835    0.13515    37.00000

 Normal termination of Gaussian 16 at Tue Dec  8 13:45:52 2020.
