 Gaussian 16, Revision A.03,

 -----------------------------------------------------------
 # opt freq B3LYP/6-31G(d) empiricaldispersion=gd3bj scf=xqc
 -----------------------------------------------------------

 -------------------------------
 CID_115884367_JID_3951_neutraal
 -------------------------------
 Symbolic Z-matrix:
 Charge =  0 Multiplicity = 1

 SCF Done:  E(RB3LYP) =  -597.736129494     A.U. after   14 cycles
 SCF Done:  E(RB3LYP) =  -597.739270196     A.U. after   12 cycles
 SCF Done:  E(RB3LYP) =  -597.737100949     A.U. after   13 cycles
 SCF Done:  E(RB3LYP) =  -597.739813323     A.U. after   12 cycles
 SCF Done:  E(RB3LYP) =  -597.740747239     A.U. after   12 cycles
 SCF Done:  E(RB3LYP) =  -597.741805533     A.U. after   11 cycles
 SCF Done:  E(RB3LYP) =  -597.741730045     A.U. after   12 cycles
 SCF Done:  E(RB3LYP) =  -597.742048041     A.U. after   11 cycles
 SCF Done:  E(RB3LYP) =  -597.742125786     A.U. after   10 cycles
 SCF Done:  E(RB3LYP) =  -597.742163768     A.U. after   11 cycles
 SCF Done:  E(RB3LYP) =  -597.742221562     A.U. after   10 cycles
 SCF Done:  E(RB3LYP) =  -597.742225790     A.U. after    8 cycles
 SCF Done:  E(RB3LYP) =  -597.742230161     A.U. after    9 cycles
 SCF Done:  E(RB3LYP) =  -597.742230598     A.U. after    8 cycles
 SCF Done:  E(RB3LYP) =  -597.742230759     A.U. after    7 cycles
 SCF Done:  E(RB3LYP) =  -597.742230791     A.U. after    6 cycles
 Optimization completed.
    -- Stationary point found.
 Normal termination of Gaussian 16 at Mon Dec 14 13:15:27 2020.

 --------------------------------------------------------------------
 #N Geom=AllCheck Guess=TCheck SCRF=Check GenChk RB3LYP/6-31G(d) Freq
 --------------------------------------------------------------------

 Structure from the checkpoint file:  "JID_3951.chk"
 -------------------------------
 CID_115884367_JID_3951_neutraal
 -------------------------------
 Charge =  0 Multiplicity = 1

 SCF Done:  E(RB3LYP) =  -597.742230791     A.U. after    1 cycles

  Exact polarizability: 138.274  -0.988 104.253  -0.173  -1.160 103.869
 Approx polarizability: 181.714   1.103 146.693   6.713   7.532 160.337

                      1                      2                      3
                      A                      A                      A
 Frequencies --     30.2277                43.0120                74.3882
 Red. masses --      3.8220                 3.1575                 4.1093
 Frc consts  --      0.0021                 0.0034                 0.0134
 IR Inten    --      1.6720                 2.0238                 0.3722

                      4                      5                      6
                      A                      A                      A
 Frequencies --    123.7152               150.2679               185.1530
 Red. masses --      3.0484                 3.1085                 3.2525
 Frc consts  --      0.0275                 0.0414                 0.0657
 IR Inten    --      0.0864                 0.5683                 1.2981

                      7                      8                      9
                      A                      A                      A
 Frequencies --    215.8945               240.9617               244.4557
 Red. masses --      1.3080                 1.1912                 1.1783
 Frc consts  --      0.0359                 0.0407                 0.0415
 IR Inten    --      1.3427                 0.5833                 0.2957

                     10                     11                     12
                      A                      A                      A
 Frequencies --    249.6875               256.9427               288.9850
 Red. masses --      1.8419                 2.0556                 2.0103
 Frc consts  --      0.0677                 0.0800                 0.0989
 IR Inten    --      0.5258                 1.3432                 0.7535

                     13                     14                     15
                      A                      A                      A
 Frequencies --    293.0282               310.4057               355.8161
 Red. masses --      2.0969                 3.0040                 2.7041
 Frc consts  --      0.1061                 0.1705                 0.2017
 IR Inten    --      4.2877                 3.6414                 1.0609

                     16                     17                     18
                      A                      A                      A
 Frequencies --    373.6802               377.0132               399.4915
 Red. masses --      2.5897                 2.9906                 1.0977
 Frc consts  --      0.2131                 0.2504                 0.1032
 IR Inten    --      1.3308                 3.8210               106.4577

                     19                     20                     21
                      A                      A                      A
 Frequencies --    420.4783               452.9081               473.9776
 Red. masses --      2.4253                 2.8168                 3.7604
 Frc consts  --      0.2526                 0.3404                 0.4977
 IR Inten    --      3.2778                17.4244                13.1828

                     22                     23                     24
                      A                      A                      A
 Frequencies --    545.2777               589.2906               629.3368
 Red. masses --      2.8434                 2.9923                 1.8651
 Frc consts  --      0.4981                 0.6122                 0.4352
 IR Inten    --     17.5107                 2.8549                47.4704

                     25                     26                     27
                      A                      A                      A
 Frequencies --    655.1674               716.1835               760.1671
 Red. masses --      2.5177                 2.7143                 2.5779
 Frc consts  --      0.6367                 0.8203                 0.8777
 IR Inten    --     13.0323                21.4272                 7.1067

                     28                     29                     30
                      A                      A                      A
 Frequencies --    790.6942               803.1541               874.0180
 Red. masses --      2.4241                 2.9514                 1.6839
 Frc consts  --      0.8929                 1.1217                 0.7579
 IR Inten    --      3.7695                 7.6818                11.6559

                     31                     32                     33
                      A                      A                      A
 Frequencies --    900.5928               912.2955               941.2579
 Red. masses --      2.0584                 2.5128                 1.8014
 Frc consts  --      0.9836                 1.2322                 0.9403
 IR Inten    --      5.6889                21.1599                 5.0085

                     34                     35                     36
                      A                      A                      A
 Frequencies --    957.4269               966.0639              1009.1134
 Red. masses --      1.3335                 1.3404                 2.2781
 Frc consts  --      0.7202                 0.7371                 1.3668
 IR Inten    --      6.1978                 0.6117                 1.7718

                     37                     38                     39
                      A                      A                      A
 Frequencies --   1032.9103              1040.5550              1044.7558
 Red. masses --      1.4110                 1.8162                 1.9433
 Frc consts  --      0.8869                 1.1586                 1.2497
 IR Inten    --      2.7678                 6.4490                24.8229

                     40                     41                     42
                      A                      A                      A
 Frequencies --   1086.6014              1104.6968              1113.4648
 Red. masses --      1.3053                 1.7345                 1.4867
 Frc consts  --      0.9080                 1.2471                 1.0860
 IR Inten    --      4.0827                18.3569                 8.5929

                     43                     44                     45
                      A                      A                      A
 Frequencies --   1125.5629              1135.2345              1157.6698
 Red. masses --      1.2806                 2.4833                 1.4421
 Frc consts  --      0.9559                 1.8856                 1.1387
 IR Inten    --      2.7960                60.4762                12.3058

                     46                     47                     48
                      A                      A                      A
 Frequencies --   1197.3270              1220.3863              1234.4476
 Red. masses --      2.2957                 1.7039                 2.4979
 Frc consts  --      1.9390                 1.4952                 2.2427
 IR Inten    --      4.9421                 6.8442                12.0513

                     49                     50                     51
                      A                      A                      A
 Frequencies --   1246.4989              1269.7121              1308.8843
 Red. masses --      1.6985                 3.1659                 2.2844
 Frc consts  --      1.5549                 3.0072                 2.3058
 IR Inten    --      0.8815                32.2654               176.2553

                     52                     53                     54
                      A                      A                      A
 Frequencies --   1326.8450              1371.1246              1413.6263
 Red. masses --      1.4384                 1.4380                 1.3781
 Frc consts  --      1.4920                 1.5928                 1.6226
 IR Inten    --      5.4701                11.0980                 3.8982

                     55                     56                     57
                      A                      A                      A
 Frequencies --   1424.7350              1434.9422              1439.9128
 Red. masses --      1.2446                 1.2396                 1.2308
 Frc consts  --      1.4886                 1.5039                 1.5036
 IR Inten    --      6.7524                10.6016                12.3767

                     58                     59                     60
                      A                      A                      A
 Frequencies --   1451.1384              1452.7723              1467.4671
 Red. masses --      1.2261                 1.3682                 2.2418
 Frc consts  --      1.5212                 1.7014                 2.8444
 IR Inten    --     16.5548                12.6080               252.3725

                     61                     62                     63
                      A                      A                      A
 Frequencies --   1490.0325              1507.5097              1511.7669
 Red. masses --      1.3477                 1.3653                 1.0792
 Frc consts  --      1.7629                 1.8281                 1.4531
 IR Inten    --      6.9847                15.5132                 2.2429

                     64                     65                     66
                      A                      A                      A
 Frequencies --   1523.8050              1526.2373              1529.1506
 Red. masses --      1.0586                 1.0515                 1.0773
 Frc consts  --      1.4483                 1.4431                 1.4842
 IR Inten    --      2.1307                 7.7449                 2.5013

                     67                     68                     69
                      A                      A                      A
 Frequencies --   1533.5187              1538.4311              1538.9901
 Red. masses --      1.0725                 1.0542                 1.0527
 Frc consts  --      1.4860                 1.4700                 1.4691
 IR Inten    --      2.7975                 1.9165                 9.9151

                     70                     71                     72
                      A                      A                      A
 Frequencies --   1555.4006              1747.2836              3042.2187
 Red. masses --      1.0555                 6.3211                 1.0419
 Frc consts  --      1.5044                11.3702                 5.6812
 IR Inten    --      9.9929               261.2823                31.8571

                     73                     74                     75
                      A                      A                      A
 Frequencies --   3056.0592              3060.5368              3061.1707
 Red. masses --      1.0406                 1.0379                 1.0734
 Frc consts  --      5.7263                 5.7278                 5.9264
 IR Inten    --      4.2628                23.1927                19.2837

                     76                     77                     78
                      A                      A                      A
 Frequencies --   3069.6834              3099.1700              3123.2291
 Red. masses --      1.0456                 1.0987                 1.1021
 Frc consts  --      5.8051                 6.2173                 6.3340
 IR Inten    --     29.2486                38.8537                32.3952

                     79                     80                     81
                      A                      A                      A
 Frequencies --   3129.7809              3130.3064              3138.6240
 Red. masses --      1.1011                 1.1007                 1.1015
 Frc consts  --      6.3551                 6.3548                 6.3930
 IR Inten    --      2.2375                41.3322                15.2796

                     82                     83                     84
                      A                      A                      A
 Frequencies --   3138.9835              3141.0496              3157.3211
 Red. masses --      1.0898                 1.1021                 1.0564
 Frc consts  --      6.3266                 6.4065                 6.2045
 IR Inten    --      7.6048                35.1841                13.9236

                     85                     86                     87
                      A                      A                      A
 Frequencies --   3158.7523              3178.0185              3244.8818
 Red. masses --      1.0958                 1.0987                 1.1073
 Frc consts  --      6.4421                 6.5379                 6.8692
 IR Inten    --     10.8869                15.1257                 0.8438

                     88                     89                     90
                      A                      A                      A
 Frequencies --   3253.2554              3572.6607              3739.2281
 Red. masses --      1.0975                 1.0750                 1.0653
 Frc consts  --      6.8438                 8.0844                 8.7756
 IR Inten    --      5.8980                16.5531                93.4656

 - Thermochemistry -
 -------------------
 Temperature   298.150 Kelvin.  Pressure   1.00000 Atm.
 Atom     1 has atomic number  6 and mass  12.00000

 Molecular mass:   185.14158 amu.
 Principal axes and moments of inertia in atomic units:
                           1         2         3
     Eigenvalues --  1538.056713125.669423387.34860
           X            0.99967  -0.02432  -0.00791
           Y            0.02254   0.98391  -0.17726
           Z            0.01210   0.17702   0.98413
 This molecule is an asymmetric top.
 Rotational symmetry number  1.
 Warning -- assumption of classical behavior for rotation
           may cause significant error
 Rotational temperatures (Kelvin)      0.05631     0.02771     0.02557
 Rotational constants (GHZ):           1.17339     0.57739     0.53279
 Zero-point vibrational energy     748915.3 (Joules/Mol)
                                  178.99505 (Kcal/Mol)
 Warning -- explicit consideration of  23 degrees of freedom as
           vibrations may cause significant error
 Vibrational temperatures:     43.49    61.88   107.03   178.00   216.20
          (Kelvin)            266.39   310.62   346.69   351.72   359.24
                              369.68   415.79   421.60   446.60   511.94
                              537.64   542.44   574.78   604.97   651.63
                              681.95   784.53   847.86   905.48   942.64
                             1030.43  1093.71  1137.63  1155.56  1257.52
                             1295.75  1312.59  1354.26  1377.52  1389.95
                             1451.89  1486.13  1497.13  1503.17  1563.38
                             1589.41  1602.03  1619.43  1633.35  1665.63
                             1722.69  1755.86  1776.09  1793.43  1826.83
                             1883.19  1909.03  1972.74  2033.89  2049.88
                             2064.56  2071.71  2087.86  2090.22  2111.36
                             2143.82  2168.97  2175.10  2192.42  2195.92
                             2200.11  2206.39  2213.46  2214.26  2237.87
                             2513.95  4377.07  4396.99  4403.43  4404.34
                             4416.59  4459.01  4493.63  4503.06  4503.81
                             4515.78  4516.30  4519.27  4542.68  4544.74
                             4572.46  4668.66  4680.71  5140.26  5379.92

 Zero-point correction=                           0.285247 (Hartree/Particle)
 Thermal correction to Energy=                    0.300150
 Thermal correction to Enthalpy=                  0.301094
 Thermal correction to Gibbs Free Energy=         0.243978
 Sum of electronic and zero-point Energies=           -597.456984
 Sum of electronic and thermal Energies=              -597.442081
 Sum of electronic and thermal Enthalpies=            -597.441137
 Sum of electronic and thermal Free Energies=         -597.498252

                     E (Thermal)             CV                S
                      KCal/Mol        Cal/Mol-Kelvin    Cal/Mol-Kelvin
 Total                  188.347             57.033            120.210
 Electronic               0.000              0.000              0.000
 Translational            0.889              2.981             41.554
 Rotational               0.889              2.981             31.166
 Vibrational            186.569             51.072             47.490
 Vibration     1          0.594              1.984              5.814
 Vibration     2          0.595              1.980              5.115
 Vibration     3          0.599              1.966              4.034
 Vibration     4          0.610              1.929              3.041
 Vibration     5          0.618              1.902              2.669
 Vibration     6          0.631              1.860              2.276
 Vibration     7          0.645              1.817              1.993
 Vibration     8          0.658              1.778              1.796
 Vibration     9          0.660              1.772              1.770
 Vibration    10          0.662              1.763              1.733
 Vibration    11          0.667              1.751              1.682
 Vibration    12          0.686              1.694              1.480
 Vibration    13          0.688              1.687              1.456
 Vibration    14          0.699              1.654              1.360
 Vibration    15          0.731              1.563              1.140
 Vibration    16          0.745              1.526              1.065
 Vibration    17          0.748              1.519              1.051
 Vibration    18          0.766              1.471              0.965
 Vibration    19          0.783              1.426              0.890
 Vibration    20          0.811              1.354              0.787
 Vibration    21          0.831              1.308              0.726
 Vibration    22          0.900              1.150              0.554
 Vibration    23          0.947              1.055              0.468

 Optimization completed.
    -- Stationary point found.
 Normal termination of Gaussian 16 at Mon Dec 14 13:24:47 2020.

 ----------------------------------------------------------------------
 # B3LYP/6-311++G(d,p) empiricaldispersion=gd3bj scf=xqc pop=npa geom=c
 heck
 ----------------------------------------------------------------------

 ---------------------------------------
 CID_115884367_JID_3951_Energie_neutraal
 ---------------------------------------
 Structure from the checkpoint file:  "JID_3951.chk"
 Charge =  0 Multiplicity = 1

 SCF Done:  E(RB3LYP) =  -597.924264684     A.U. after   15 cycles
 Normal termination of Gaussian 16 at Mon Dec 14 13:29:06 2020.

 ----------------------------------------------------------------------
 # B3LYP/6-311++G(d,p) empiricaldispersion=gd3bj scf=xqc pop=npa geom=c
 heck
 ----------------------------------------------------------------------

 -------------------------------------
 CID_115884367_JID_3951_Energie_kation
 -------------------------------------
 Structure from the checkpoint file:  "JID_3951.chk"
 Charge =  1 Multiplicity = 2

 SCF Done:  E(UB3LYP) =  -597.601151484     A.U. after   25 cycles
 Normal termination of Gaussian 16 at Mon Dec 14 13:38:36 2020.
 Gaussian 16:  ES64L-G16RevA.03 25-Dec-2016

 ----------------------------------------------------------------------
 # B3LYP/6-311++G(d,p) empiricaldispersion=gd3bj scf=xqc pop=npa geom=c
 heck
 ----------------------------------------------------------------------

 ------------------------------------
 CID_115884367_JID_3951_Energie_anion
 ------------------------------------
 Structure from the checkpoint file:  "JID_3951.chk"
 Charge = -1 Multiplicity = 2

                         Standard orientation:
 ---------------------------------------------------------------------
 Center     Atomic      Atomic             Coordinates (Angstroms)
 Number     Number       Type             X           Y           Z
 ---------------------------------------------------------------------
      1          6           0       -2.736647    1.380846   -0.522722
      2          6           0       -2.467559    0.492972    0.673912
      3          6           0       -2.903802   -0.936706    0.703135
      4          6           0       -1.423028   -0.641484    0.632697
      5          6           0       -0.728567   -0.941837   -0.657803
      6          8           0       -1.362680   -1.184665   -1.686057
      7          7           0        0.645883   -0.954549   -0.707292
      8          6           0        1.725684   -0.428125    0.159625
      9          6           0        1.735607   -1.077996    1.553596
     10          6           0        3.031596   -0.823049   -0.553568
     11          6           0        1.656883    1.126630    0.299093
     12          6           0        1.545678    1.865530   -1.034367
     13          8           0        0.622119    1.544986    1.184082
     14          1           0       -3.749189    1.796169   -0.463482
     15          1           0       -2.646596    0.817031   -1.453739
     16          1           0       -2.035393    2.224729   -0.560756
     17          1           0       -2.489693    1.010131    1.632480
     18          1           0       -3.286390   -1.351576    1.630846
     19          1           0       -3.332838   -1.341443   -0.207950
     20          1           0       -0.849984   -0.783295    1.538131
     21          1           0        0.933471   -1.138389   -1.661857
     22          1           0        1.592223   -2.159049    1.467812
     23          1           0        2.703416   -0.894103    2.032635
     24          1           0        0.973399   -0.656892    2.208289
     25          1           0        3.060068   -0.461637   -1.586938
     26          1           0        3.894508   -0.405358   -0.026538
     27          1           0        3.135839   -1.912801   -0.570435
     28          1           0        2.580884    1.432169    0.804560
     29          1           0        0.635285    1.569150   -1.568009
     30          1           0        1.498134    2.941466   -0.844366
     31          1           0        2.400190    1.671875   -1.690433
     32          1           0       -0.229104    1.340408    0.764983
 ---------------------------------------------------------------------

 SCF Done:  E(UB3LYP) =  -597.910079281     A.U. after   32 cycles

 The electronic state is 2-A.
 Alpha  occ. eigenvalues --  -19.02261 -18.98972 -14.23597 -10.18005 -10.12996
 Alpha  occ. eigenvalues --  -10.12611 -10.10103 -10.09435 -10.08262 -10.07220
 Alpha  occ. eigenvalues --  -10.06867 -10.06355 -10.06144  -0.94314  -0.92868
 Alpha  occ. eigenvalues --   -0.82509  -0.77918  -0.69971  -0.64201  -0.63022
 Alpha  occ. eigenvalues --   -0.60029  -0.56557  -0.53973  -0.50760  -0.49167
 Alpha  occ. eigenvalues --   -0.44564  -0.42421  -0.41154  -0.38137  -0.37957
 Alpha  occ. eigenvalues --   -0.35784  -0.35709  -0.33962  -0.33182  -0.31857
 Alpha  occ. eigenvalues --   -0.31359  -0.30771  -0.29714  -0.29189  -0.28800
 Alpha  occ. eigenvalues --   -0.27976  -0.27698  -0.26848  -0.25888  -0.25135
 Alpha  occ. eigenvalues --   -0.23094  -0.20936  -0.20010  -0.18705  -0.16446
 Alpha  occ. eigenvalues --   -0.15393   0.04431
 Alpha virt. eigenvalues --    0.06203   0.07245   0.08182   0.08485   0.08809
 Alpha virt. eigenvalues --    0.09199   0.10119   0.10495   0.10831   0.11362
 Alpha virt. eigenvalues --    0.11803   0.12086   0.12452   0.13085   0.13756

  Beta  occ. eigenvalues --  -19.02256 -18.98966 -14.23586 -10.18004 -10.12993
  Beta  occ. eigenvalues --  -10.12596 -10.10092 -10.09426 -10.08246 -10.07206
  Beta  occ. eigenvalues --  -10.06815 -10.06326 -10.06111  -0.94304  -0.92854
  Beta  occ. eigenvalues --   -0.82490  -0.77893  -0.69942  -0.64156  -0.62995
  Beta  occ. eigenvalues --   -0.59959  -0.56507  -0.53914  -0.50716  -0.49128
  Beta  occ. eigenvalues --   -0.44532  -0.42380  -0.41128  -0.38077  -0.37922
  Beta  occ. eigenvalues --   -0.35749  -0.35672  -0.33937  -0.33159  -0.31828
  Beta  occ. eigenvalues --   -0.31332  -0.30730  -0.29674  -0.29138  -0.28777
  Beta  occ. eigenvalues --   -0.27946  -0.27665  -0.26818  -0.25847  -0.25098
  Beta  occ. eigenvalues --   -0.23067  -0.20912  -0.19990  -0.18688  -0.16435
  Beta  occ. eigenvalues --   -0.15375
  Beta virt. eigenvalues --    0.06644   0.07374   0.07821   0.08725   0.09084
  Beta virt. eigenvalues --    0.09341   0.09767   0.10306   0.10914   0.11113
  Beta virt. eigenvalues --    0.11816   0.12167   0.12392   0.12918   0.13316

 Mulliken charges and spin densities:
               1          2
     1  C    0.113448  -0.657149
     2  C   -0.664767   0.476182
     3  C    0.530869  -1.081653
     4  C    0.238281   0.243837
     5  C   -0.443303  -0.070417
     6  O   -0.316454   0.009191
     7  N   -0.060273   0.032758
     8  C   -1.359299   1.263952
     9  C    0.738250  -1.032626
    10  C    1.526015  -1.999897
    11  C   -0.545508   0.235153
    12  C    0.776916  -1.406093
    13  O   -0.133993  -0.016520
    14  H   -0.141679   0.288420
    15  H    0.121112   0.060799
    16  H    0.096629   0.031329
    17  H   -0.274929   0.487279
    18  H   -0.435979   0.599311
    19  H    0.205038  -0.037565
    20  H    0.657267  -0.370557
    21  H    0.184559   0.111575
    22  H   -0.004352   0.172230
    23  H   -0.187275   0.354603
    24  H   -0.553253   0.717865
    25  H   -0.288195   0.427473
    26  H   -0.471185   0.637288
    27  H   -0.192836   0.368112
    28  H   -0.296748   0.508746
    29  H    0.089055   0.122926
    30  H   -0.128500   0.284294
    31  H   -0.235872   0.377942
    32  H    0.456961  -0.138785
 Sum of Mulliken charges =  -1.00000   1.00000

 Dipole moment (field-independent basis, Debye):
    X=             -3.7366    Y=             -0.0125    Z=             -1.1152  Tot=              3.8995
 Quadrupole moment (field-independent basis, Debye-Ang):
   XX=           -154.4587   YY=           -120.2606   ZZ=           -127.0902
   XY=             -1.6081   XZ=              3.8837   YZ=             -1.2662

 Summary of Natural Population Analysis:

                                       Natural Population
                Natural  -----------------------------------------------
    Atom  No    Charge         Core      Valence    Rydberg      Total
 -----------------------------------------------------------------------
      C    1   -0.29595      0.99964     2.28967    0.00664     3.29595
      C    2   -0.10823      0.99960     2.09831    0.01032     3.10823
      C    3   -0.18320      0.99959     2.17322    0.01039     3.18320
      C    4   -0.17128      0.99953     2.16125    0.01050     3.17128
      C    5    0.34268      0.99963     1.63537    0.02231     2.65732
      O    6   -0.33556      0.99988     3.33050    0.00518     4.33556
      N    7   -0.32497      0.99965     2.81385    0.01147     3.82497
      C    8    0.05029      0.99955     1.93557    0.01458     2.94971
      C    9   -0.28998      0.99961     2.28317    0.00720     3.28998
      C   10   -0.28723      0.99962     2.27995    0.00766     3.28723
      C   11    0.06165      0.99950     1.92330    0.01555     2.93835
      C   12   -0.30072      0.99964     2.29474    0.00635     3.30072
      O   13   -0.37471      0.99990     3.36803    0.00678     4.37471
      H   14    0.10089      0.00000     0.39833    0.00078     0.39911
      H   15    0.11415      0.00000     0.38479    0.00107     0.38585
      H   16    0.09828      0.00000     0.40069    0.00103     0.40172
      H   17    0.10658      0.00000     0.39185    0.00157     0.39342
      H   18    0.10572      0.00000     0.39318    0.00109     0.39428
      H   19    0.11316      0.00000     0.38576    0.00109     0.38684
      H   20    0.11895      0.00000     0.37925    0.00181     0.38105
      H   21    0.19452      0.00000     0.30285    0.00263     0.30548
      H   22    0.10308      0.00000     0.39588    0.00104     0.39692
      H   23    0.10566      0.00000     0.39310    0.00123     0.39434
      H   24    0.10738      0.00000     0.39103    0.00159     0.39262
      H   25    0.10214      0.00000     0.39598    0.00189     0.39786
      H   26    0.10905      0.00000     0.38857    0.00239     0.39095
      H   27    0.10461      0.00000     0.39407    0.00132     0.39539
      H   28    0.09178      0.00000     0.40645    0.00177     0.40822
      H   29    0.09920      0.00000     0.39946    0.00134     0.40080
      H   30    0.10490      0.00000     0.39423    0.00088     0.39510
      H   31    0.10494      0.00000     0.39382    0.00125     0.39506
      H   32    0.23224      0.00000     0.26338    0.00437     0.26776
 =======================================================================
   * Total *   -0.00000     12.99534    37.83959    0.16507    51.00000

 Normal termination of Gaussian 16 at Mon Dec 14 13:50:51 2020.
