 Gaussian 16, Revision A.03,

 -----------------------------------------------------------
 # opt freq B3LYP/6-31G(d) empiricaldispersion=gd3bj scf=xqc
 -----------------------------------------------------------

 ------------------------------
 CID_14625103_JID_3391_neutraal
 ------------------------------
 Symbolic Z-matrix:
 Charge =  0 Multiplicity = 1

 SCF Done:  E(RB3LYP) =  -914.492741811     A.U. after   14 cycles
 SCF Done:  E(RB3LYP) =  -914.494618504     A.U. after   13 cycles
 SCF Done:  E(RB3LYP) =  -914.493770478     A.U. after   14 cycles
 SCF Done:  E(RB3LYP) =  -914.496449483     A.U. after   13 cycles
 SCF Done:  E(RB3LYP) =  -914.499395398     A.U. after   12 cycles
 SCF Done:  E(RB3LYP) =  -914.499203674     A.U. after   12 cycles
 SCF Done:  E(RB3LYP) =  -914.499880811     A.U. after   11 cycles
 SCF Done:  E(RB3LYP) =  -914.499906009     A.U. after   11 cycles
 SCF Done:  E(RB3LYP) =  -914.499983622     A.U. after   11 cycles
 SCF Done:  E(RB3LYP) =  -914.500056318     A.U. after   11 cycles
 SCF Done:  E(RB3LYP) =  -914.500570826     A.U. after   10 cycles
 SCF Done:  E(RB3LYP) =  -914.500578531     A.U. after   10 cycles
 SCF Done:  E(RB3LYP) =  -914.500578815     A.U. after    9 cycles
 SCF Done:  E(RB3LYP) =  -914.500579250     A.U. after    9 cycles
 SCF Done:  E(RB3LYP) =  -914.500579323     A.U. after    7 cycles
 Optimization completed.
    -- Stationary point found.
 Normal termination of Gaussian 16 at Mon Dec 14 16:35:42 2020.

 --------------------------------------------------------------------
 #N Geom=AllCheck Guess=TCheck SCRF=Check GenChk RB3LYP/6-31G(d) Freq
 --------------------------------------------------------------------

 Structure from the checkpoint file:  "JID_3391.chk"
 ------------------------------
 CID_14625103_JID_3391_neutraal
 ------------------------------
 Charge =  0 Multiplicity = 1

 SCF Done:  E(RB3LYP) =  -914.500579323     A.U. after    1 cycles

  Exact polarizability: 173.962  -8.472 139.626   9.989   2.798  86.484
 Approx polarizability: 240.903 -14.671 222.360  20.874  10.186 132.407

 ******    1 imaginary frequencies (negative Signs) ******

                      1                      2                      3
                      A                      A                      A
 Frequencies --    -40.3768                34.7091                44.2585
 Red. masses --      1.0252                 4.1882                 3.5506
 Frc consts  --      0.0010                 0.0030                 0.0041
 IR Inten    --      0.3622                 0.1402                 0.7797

                      4                      5                      6
                      A                      A                      A
 Frequencies --     93.3208               109.4312               143.2528
 Red. masses --      1.5314                 1.7801                 4.1810
 Frc consts  --      0.0079                 0.0126                 0.0506
 IR Inten    --      0.0989                 1.8718                 1.0974

                      7                      8                      9
                      A                      A                      A
 Frequencies --    163.0233               168.6776               188.4460
 Red. masses --      5.4648                 2.7676                 2.9557
 Frc consts  --      0.0856                 0.0464                 0.0618
 IR Inten    --      4.4778                 0.0934                 2.6712

                     10                     11                     12
                      A                      A                      A
 Frequencies --    230.9860               250.5845               263.9503
 Red. masses --      5.3923                 3.1953                 2.6985
 Frc consts  --      0.1695                 0.1182                 0.1108
 IR Inten    --      0.5335                 4.1608                 1.2887

                     13                     14                     15
                      A                      A                      A
 Frequencies --    301.5059               365.8802               395.0864
 Red. masses --      2.5643                 1.1641                 2.2070
 Frc consts  --      0.1373                 0.0918                 0.2030
 IR Inten    --      3.4992                48.9461                11.1987

                     16                     17                     18
                      A                      A                      A
 Frequencies --    437.3808               481.0560               491.7323
 Red. masses --      3.7554                 3.7603                 2.4724
 Frc consts  --      0.4233                 0.5127                 0.3522
 IR Inten    --      2.2867                 1.9893                 3.6483

                     19                     20                     21
                      A                      A                      A
 Frequencies --    554.3165               561.4451               574.5599
 Red. masses --      5.4527                 3.6357                 4.5793
 Frc consts  --      0.9871                 0.6752                 0.8907
 IR Inten    --     10.7936                 0.5705                 8.4112

                     22                     23                     24
                      A                      A                      A
 Frequencies --    602.0107               665.9712               780.7231
 Red. masses --      3.9319                 4.7310                 3.0839
 Frc consts  --      0.8396                 1.2363                 1.1075
 IR Inten    --      2.2636                 1.4456                 4.7483

                     25                     26                     27
                      A                      A                      A
 Frequencies --    790.9258               854.1577               857.9905
 Red. masses --      2.1312                 2.1519                 1.2279
 Frc consts  --      0.7855                 0.9250                 0.5326
 IR Inten    --      7.5474                 3.9165                 8.4831

                     28                     29                     30
                      A                      A                      A
 Frequencies --    905.1393               916.7394               958.2676
 Red. masses --      2.5781                 2.2048                 1.7269
 Frc consts  --      1.2445                 1.0917                 0.9343
 IR Inten    --     67.0560                71.8904                18.2929

                     31                     32                     33
                      A                      A                      A
 Frequencies --    975.0768              1002.2737              1024.5218
 Red. masses --      3.3220                 5.9943                 1.6275
 Frc consts  --      1.8609                 3.5478                 1.0065
 IR Inten    --     27.1424                 2.5806                15.3573

                     34                     35                     36
                      A                      A                      A
 Frequencies --   1035.5839              1047.8451              1069.0578
 Red. masses --      1.7274                 1.5926                 1.6345
 Frc consts  --      1.0915                 1.0303                 1.1006
 IR Inten    --     12.4480                 0.7323                 8.6679

                     37                     38                     39
                      A                      A                      A
 Frequencies --   1071.8789              1074.3247              1136.6293
 Red. masses --      2.2568                 1.5890                 2.1953
 Frc consts  --      1.5277                 1.0806                 1.6710
 IR Inten    --     10.3162                 1.2161                 6.6488

                     40                     41                     42
                      A                      A                      A
 Frequencies --   1161.2719              1204.2678              1219.5804
 Red. masses --      1.0589                 1.5085                 1.1802
 Frc consts  --      0.8413                 1.2890                 1.0342
 IR Inten    --      1.7162                 4.5323                 5.4381

                     43                     44                     45
                      A                      A                      A
 Frequencies --   1268.8858              1295.6591              1308.7093
 Red. masses --      7.5111                 1.3129                 3.0994
 Frc consts  --      7.1252                 1.2986                 3.1276
 IR Inten    --     30.1883                18.8542               182.5985

                     46                     47                     48
                      A                      A                      A
 Frequencies --   1338.6788              1378.4189              1388.3680
 Red. masses --      1.6124                 1.1894                 2.8628
 Frc consts  --      1.7024                 1.3315                 3.2513
 IR Inten    --     36.8807                26.7942                28.5594

                     49                     50                     51
                      A                      A                      A
 Frequencies --   1404.4406              1428.1410              1441.2151
 Red. masses --      1.4138                 1.3282                 1.6067
 Frc consts  --      1.6431                 1.5961                 1.9663
 IR Inten    --      3.5746                 8.6732                 4.1253

                     52                     53                     54
                      A                      A                      A
 Frequencies --   1450.3776              1452.2237              1492.8278
 Red. masses --      1.5083                 2.6402                 1.0928
 Frc consts  --      1.8694                 3.2806                 1.4348
 IR Inten    --      8.4829                 0.2939                 7.3754

                     55                     56                     57
                      A                      A                      A
 Frequencies --   1500.2552              1500.3482              1505.4523
 Red. masses --      1.1296                 1.1272                 1.0501
 Frc consts  --      1.4980                 1.4950                 1.4022
 IR Inten    --     87.6669                16.7053                 7.9667

                     58                     59                     60
                      A                      A                      A
 Frequencies --   1513.2011              1518.0960              1536.4865
 Red. masses --      1.0449                 1.1340                 1.0859
 Frc consts  --      1.4097                 1.5398                 1.5105
 IR Inten    --      6.7685                25.9336                 2.6591

                     61                     62                     63
                      A                      A                      A
 Frequencies --   1601.0507              1632.9400              1720.7637
 Red. masses --      5.6394                 5.9472                 1.0808
 Frc consts  --      8.5171                 9.3433                 1.8856
 IR Inten    --    247.0054               245.3234                18.9305

                     64                     65                     66
                      A                      A                      A
 Frequencies --   2969.0934              3044.1244              3054.9357
 Red. masses --      1.0723                 1.0606                 1.0388
 Frc consts  --      5.5697                 5.7909                 5.7119
 IR Inten    --     56.0513                22.2670                11.9230

                     67                     68                     69
                      A                      A                      A
 Frequencies --   3057.7704              3073.9067              3084.7874
 Red. masses --      1.0380                 1.0885                 1.0835
 Frc consts  --      5.7180                 6.0596                 6.0749
 IR Inten    --      9.5221                70.6883                13.6876

                     70                     71                     72
                      A                      A                      A
 Frequencies --   3091.5140              3108.9489              3118.5753
 Red. masses --      1.0838                 1.1003                 1.0983
 Frc consts  --      6.1031                 6.2662                 6.2936
 IR Inten    --     34.9210                11.9588                10.0739

                     73                     74                     75
                      A                      A                      A
 Frequencies --   3148.4415              3151.2710              3167.1114
 Red. masses --      1.1034                 1.1014                 1.1005
 Frc consts  --      6.4442                 6.4441                 6.5037
 IR Inten    --     14.8398                 2.4733                 6.1264

                     76                     77                     78
                      A                      A                      A
 Frequencies --   3212.3404              3451.3608              3537.0865
 Red. masses --      1.0922                 1.0500                 1.0917
 Frc consts  --      6.6401                 7.3690                 8.0471
 IR Inten    --      7.4762                36.6181                22.1306

 - Thermochemistry -
 -------------------
 Temperature   298.150 Kelvin.  Pressure   1.00000 Atm.
 Atom     1 has atomic number  6 and mass  12.00000

 Molecular mass:   197.09867 amu.
 Principal axes and moments of inertia in atomic units:
                           1         2         3
     Eigenvalues --  1730.853003663.693864862.06621
           X            0.99999   0.00408   0.00122
           Y           -0.00409   0.99995   0.00941
           Z           -0.00118  -0.00941   0.99995
 This molecule is an asymmetric top.
 Rotational symmetry number  1.
 Warning -- assumption of classical behavior for rotation
           may cause significant error
 Rotational temperatures (Kelvin)      0.05004     0.02364     0.01781
 Rotational constants (GHZ):           1.04269     0.49260     0.37119
    1 imaginary frequencies ignored.
 Zero-point vibrational energy     622989.1 (Joules/Mol)
                                  148.89797 (Kcal/Mol)
 Warning -- explicit consideration of  21 degrees of freedom as
           vibrations may cause significant error
 Vibrational temperatures:     49.94    63.68   134.27   157.45   206.11
          (Kelvin)            234.55   242.69   271.13   332.34   360.54
                              379.77   433.80   526.42   568.44   629.29
                              692.13   707.49   797.54   807.79   826.66
                              866.16   958.18  1123.29  1137.97  1228.94
                             1234.46  1302.29  1318.98  1378.73  1402.92
                             1442.05  1474.06  1489.97  1507.62  1538.14
                             1542.19  1545.71  1635.36  1670.81  1732.67
                             1754.70  1825.64  1864.16  1882.94  1926.06
                             1983.24  1997.55  2020.68  2054.78  2073.59
                             2086.77  2089.43  2147.85  2158.53  2158.67
                             2166.01  2177.16  2184.20  2210.66  2303.55
                             2349.44  2475.80  4271.86  4379.82  4395.37
                             4399.45  4422.67  4438.32  4448.00  4473.08
                             4486.93  4529.91  4533.98  4556.77  4621.84
                             4965.74  5089.08

 Zero-point correction=                           0.237284 (Hartree/Particle)
 Thermal correction to Energy=                    0.250781
 Thermal correction to Enthalpy=                  0.251726
 Thermal correction to Gibbs Free Energy=         0.196342
 Sum of electronic and zero-point Energies=           -914.263295
 Sum of electronic and thermal Energies=              -914.249798
 Sum of electronic and thermal Enthalpies=            -914.248854
 Sum of electronic and thermal Free Energies=         -914.304238

                     E (Thermal)             CV                S
                      KCal/Mol        Cal/Mol-Kelvin    Cal/Mol-Kelvin
 Total                  157.368             49.931            116.565
 Electronic               0.000              0.000              0.000
 Translational            0.889              2.981             41.741
 Rotational               0.889              2.981             31.800
 Vibrational            155.590             43.969             43.024
 Vibration     1          0.594              1.983              5.540
 Vibration     2          0.595              1.980              5.059
 Vibration     3          0.602              1.954              3.589
 Vibration     4          0.606              1.942              3.279
 Vibration     5          0.616              1.910              2.760
 Vibration     6          0.623              1.888              2.514
 Vibration     7          0.625              1.881              2.450
 Vibration     8          0.633              1.856              2.243
 Vibration     9          0.653              1.794              1.871
 Vibration    10          0.663              1.762              1.726
 Vibration    11          0.671              1.739              1.635
 Vibration    12          0.693              1.671              1.409
 Vibration    13          0.739              1.542              1.097
 Vibration    14          0.762              1.481              0.981
 Vibration    15          0.798              1.389              0.835
 Vibration    16          0.837              1.292              0.707
 Vibration    17          0.847              1.268              0.679
 Vibration    18          0.910              1.130              0.535
 Vibration    19          0.917              1.115              0.521
 Vibration    20          0.931              1.086              0.496
 Vibration    21          0.960              1.028              0.446

                           ! Non-Optimized Parameters !
 Normal termination of Gaussian 16 at Mon Dec 14 16:42:30 2020.

 ----------------------------------------------------------------------
 # B3LYP/6-311++G(d,p) empiricaldispersion=gd3bj scf=xqc pop=npa geom=c
 heck
 ----------------------------------------------------------------------

 --------------------------------------
 CID_14625103_JID_3391_Energie_neutraal
 --------------------------------------
 Structure from the checkpoint file:  "JID_3391.chk"
 Charge =  0 Multiplicity = 1

 SCF Done:  E(RB3LYP) =  -914.673156723     A.U. after   15 cycles
 Normal termination of Gaussian 16 at Mon Dec 14 16:45:53 2020.

 ----------------------------------------------------------------------
 # B3LYP/6-311++G(d,p) empiricaldispersion=gd3bj scf=xqc pop=npa geom=c
 heck
 ----------------------------------------------------------------------

 ------------------------------------
 CID_14625103_JID_3391_Energie_kation
 ------------------------------------
 Structure from the checkpoint file:  "JID_3391.chk"
 Charge =  1 Multiplicity = 2

 SCF Done:  E(UB3LYP) =  -914.382157590     A.U. after   25 cycles
 Normal termination of Gaussian 16 at Mon Dec 14 16:53:46 2020.
 Gaussian 16:  ES64L-G16RevA.03 25-Dec-2016

 ----------------------------------------------------------------------
 # B3LYP/6-311++G(d,p) empiricaldispersion=gd3bj scf=xqc pop=npa geom=c
 heck
 ----------------------------------------------------------------------

 -----------------------------------
 CID_14625103_JID_3391_Energie_anion
 -----------------------------------
 Structure from the checkpoint file:  "JID_3391.chk"
 Charge = -1 Multiplicity = 2

                         Standard orientation:
 ---------------------------------------------------------------------
 Center     Atomic      Atomic             Coordinates (Angstroms)
 Number     Number       Type             X           Y           Z
 ---------------------------------------------------------------------
      1          6           0       -1.062915    2.852117    0.661720
      2          6           0       -1.298653    1.395706    0.373974
      3          6           0       -2.540429    0.899724   -0.004872
      4          6           0       -2.641082   -0.473173   -0.275716
      5          7           0       -1.581841   -1.278851   -0.165337
      6          6           0       -0.426657   -0.707129    0.214668
      7          7           0       -0.229176    0.582945    0.486498
      8         16           0        0.894920   -1.879064    0.354980
      9          6           0        2.328583   -0.869458    0.909214
     10          6           0        3.290867   -0.466187   -0.213252
     11          6           0        2.729113    0.549490   -1.208427
     12          7           0        2.452973    1.826758   -0.540750
     13          6           0       -3.941288   -1.097839   -0.702278
     14          1           0       -0.389432    3.279590   -0.090714
     15          1           0       -1.995725    3.421955    0.655276
     16          1           0       -0.575570    2.972256    1.634634
     17          1           0       -3.401999    1.553101   -0.093174
     18          1           0        1.934578   -0.000949    1.440787
     19          1           0        2.843024   -1.503403    1.637597
     20          1           0        4.180182   -0.027408    0.257169
     21          1           0        3.611531   -1.366075   -0.752719
     22          1           0        3.485714    0.724865   -1.982444
     23          1           0        1.851740    0.110494   -1.715650
     24          1           0        2.236335    2.532075   -1.243530
     25          1           0        1.604797    1.708712    0.014117
     26          1           0       -4.721293   -0.925328    0.048571
     27          1           0       -4.293345   -0.658059   -1.643055
     28          1           0       -3.808177   -2.172266   -0.839615
 ---------------------------------------------------------------------

 SCF Done:  E(UB3LYP) =  -914.665849992     A.U. after   33 cycles
 SCF Done:  E(UB3LYP) =  -914.665849992     a.u. after    1 cycles

 The electronic state is 2-A.
 Alpha  occ. eigenvalues --  -88.73126 -14.16944 -14.16940 -14.16878 -10.13358
 Alpha  occ. eigenvalues --  -10.08737 -10.08394 -10.07882 -10.07464 -10.06381
 Alpha  occ. eigenvalues --  -10.05016 -10.04899 -10.04289  -7.81791  -5.78170
 Alpha  occ. eigenvalues --   -5.77761  -5.77224  -0.85344  -0.76644  -0.75807
 Alpha  occ. eigenvalues --   -0.70200  -0.66960  -0.61825  -0.61350  -0.57792
 Alpha  occ. eigenvalues --   -0.55056  -0.48691  -0.47518  -0.45204  -0.39326
 Alpha  occ. eigenvalues --   -0.38886  -0.36716  -0.35377  -0.32799  -0.32537
 Alpha  occ. eigenvalues --   -0.31309  -0.30868  -0.30406  -0.29199  -0.28315
 Alpha  occ. eigenvalues --   -0.27497  -0.27081  -0.25411  -0.25050  -0.23903
 Alpha  occ. eigenvalues --   -0.23402  -0.20300  -0.17416  -0.17377  -0.16901
 Alpha  occ. eigenvalues --   -0.13118  -0.12079  -0.10456   0.04986
 Alpha virt. eigenvalues --    0.07334   0.07457   0.08235   0.08770   0.09570
 Alpha virt. eigenvalues --    0.09996   0.10626   0.11099   0.11554   0.11819
 Alpha virt. eigenvalues --    0.12483   0.13033   0.13546   0.14300   0.14689

  Beta  occ. eigenvalues --  -88.73127 -14.16854 -14.16822 -14.16693 -10.13362
  Beta  occ. eigenvalues --  -10.08739 -10.08145 -10.07871 -10.07061 -10.06374
  Beta  occ. eigenvalues --  -10.05018 -10.04921 -10.04381  -7.81792  -5.78171
  Beta  occ. eigenvalues --   -5.77762  -5.77225  -0.84981  -0.76573  -0.75335
  Beta  occ. eigenvalues --   -0.70065  -0.66752  -0.61556  -0.61275  -0.57752
  Beta  occ. eigenvalues --   -0.55017  -0.48592  -0.47137  -0.45085  -0.39083
  Beta  occ. eigenvalues --   -0.38845  -0.36657  -0.35281  -0.32726  -0.31866
  Beta  occ. eigenvalues --   -0.31274  -0.30747  -0.30025  -0.29104  -0.28224
  Beta  occ. eigenvalues --   -0.27368  -0.26687  -0.25310  -0.24934  -0.23861
  Beta  occ. eigenvalues --   -0.23356  -0.20282  -0.17135  -0.16476  -0.15814
  Beta  occ. eigenvalues --   -0.13033  -0.11868  -0.10189
  Beta virt. eigenvalues --    0.07314   0.07854   0.08673   0.08888   0.09798
  Beta virt. eigenvalues --    0.10151   0.10381   0.10653   0.11194   0.11635
  Beta virt. eigenvalues --    0.12278   0.12549   0.12978   0.13653   0.14214

 Mulliken charges and spin densities:
               1          2
     1  C    0.720217  -1.271174
     2  C   -0.176129   0.722689
     3  C   -0.689049   0.240218
     4  C    0.727973  -0.268916
     5  N    0.058390   0.088671
     6  C   -0.897443   0.195046
     7  N   -0.041625   0.202048
     8  S    0.028315  -0.044296
     9  C   -0.489382   0.141601
    10  C    0.056986  -0.358355
    11  C   -0.264880  -0.129252
    12  N   -0.322710  -0.059159
    13  C    0.185811  -0.756700
    14  H   -0.166986   0.321957
    15  H   -0.372030   0.516994
    16  H    0.167269  -0.016009
    17  H   -0.361393   0.515052
    18  H    0.160294   0.039667
    19  H    0.175796   0.028356
    20  H    0.048991   0.086597
    21  H    0.069851   0.049689
    22  H   -0.142794   0.287055
    23  H    0.088572   0.036331
    24  H   -0.013073   0.241683
    25  H    0.400562  -0.196878
    26  H   -0.177539   0.333600
    27  H    0.115736   0.027481
    28  H    0.110270   0.026001
 Sum of Mulliken charges =  -1.00000   1.00000

 Dipole moment (field-independent basis, Debye):
    X=              2.7994    Y=             -2.4262    Z=              0.2009  Tot=              3.7100
 Quadrupole moment (field-independent basis, Debye-Ang):
   XX=           -141.0060   YY=           -128.3862   ZZ=           -102.5121
   XY=             -4.5170   XZ=              6.7610   YZ=              1.0357

 Summary of Natural Population Analysis:

                                       Natural Population
                Natural  -----------------------------------------------
    Atom  No    Charge         Core      Valence    Rydberg      Total
 -----------------------------------------------------------------------
      C    1   -0.30211      0.99963     2.29637    0.00611     3.30211
      C    2    0.16945      0.99955     1.81828    0.01272     2.83055
      C    3   -0.17603      0.99946     2.16860    0.00798     3.17603
      C    4    0.19398      0.99956     1.79308    0.01338     2.80602
      N    5   -0.26287      0.99963     2.75291    0.01033     3.76287
      C    6    0.15030      0.99957     1.82904    0.02110     2.84970
      N    7   -0.26834      0.99960     2.75692    0.01182     3.76834
      S    8    0.11573      4.99951     2.86501    0.01975     7.88427
      C    9   -0.25741      0.99958     2.24781    0.01002     3.25741
      C   10   -0.19660      0.99961     2.18794    0.00905     3.19660
      C   11   -0.09490      0.99964     2.08178    0.01348     3.09490
      N   12   -0.43754      0.99977     2.92687    0.01091     3.93754
      C   13   -0.30531      0.99964     2.30006    0.00561     3.30531
      H   14    0.10923      0.00000     0.38876    0.00201     0.39077
      H   15    0.09969      0.00000     0.39946    0.00085     0.40031
      H   16    0.10468      0.00000     0.39428    0.00104     0.39532
      H   17    0.10107      0.00000     0.39788    0.00105     0.39893
      H   18    0.11850      0.00000     0.37989    0.00161     0.38150
      H   19    0.09980      0.00000     0.39908    0.00111     0.40020
      H   20    0.09786      0.00000     0.40063    0.00151     0.40214
      H   21    0.09468      0.00000     0.40390    0.00143     0.40532
      H   22    0.08645      0.00000     0.41247    0.00108     0.41355
      H   23    0.08449      0.00000     0.41397    0.00154     0.41551
      H   24    0.17220      0.00000     0.32590    0.00190     0.32780
      H   25    0.18971      0.00000     0.30697    0.00332     0.31029
      H   26    0.10596      0.00000     0.39211    0.00193     0.39404
      H   27    0.10175      0.00000     0.39741    0.00083     0.39825
      H   28    0.10561      0.00000     0.39324    0.00115     0.39439
 =======================================================================
   * Total *    0.00000     16.99475    35.83063    0.17462    53.00000

 Normal termination of Gaussian 16 at Mon Dec 14 17:04:30 2020.
