 Gaussian 16, Revision A.03,

 -----------------------------------------------------------
 # opt freq B3LYP/6-31G(d) empiricaldispersion=gd3bj scf=xqc
 -----------------------------------------------------------

 -------------------------------
 CID_106718375_JID_5879_neutraal
 -------------------------------
 Symbolic Z-matrix:
 Charge =  0 Multiplicity = 1

 SCF Done:  E(RB3LYP) =  -706.055376698     A.U. after   15 cycles
 SCF Done:  E(RB3LYP) =  -706.060002137     A.U. after   12 cycles
 SCF Done:  E(RB3LYP) =  -706.061283262     A.U. after   12 cycles
 SCF Done:  E(RB3LYP) =  -706.061339972     A.U. after   13 cycles
 SCF Done:  E(RB3LYP) =  -706.062376748     A.U. after   13 cycles
 SCF Done:  E(RB3LYP) =  -706.062752578     A.U. after   12 cycles
 SCF Done:  E(RB3LYP) =  -706.062839373     A.U. after   11 cycles
 SCF Done:  E(RB3LYP) =  -706.062914963     A.U. after   10 cycles
 SCF Done:  E(RB3LYP) =  -706.062928466     A.U. after   10 cycles
 SCF Done:  E(RB3LYP) =  -706.062930792     A.U. after    8 cycles
 SCF Done:  E(RB3LYP) =  -706.062931681     A.U. after    8 cycles
 SCF Done:  E(RB3LYP) =  -706.062932138     A.U. after    8 cycles
 SCF Done:  E(RB3LYP) =  -706.062932198     A.U. after    7 cycles
 SCF Done:  E(RB3LYP) =  -706.062932217     A.U. after    6 cycles
 Optimization completed.
    -- Stationary point found.
 Normal termination of Gaussian 16 at Thu Dec 10 17:23:24 2020.

 --------------------------------------------------------------------
 #N Geom=AllCheck Guess=TCheck SCRF=Check GenChk RB3LYP/6-31G(d) Freq
 --------------------------------------------------------------------

 Structure from the checkpoint file:  "JID_5879.chk"
 -------------------------------
 CID_106718375_JID_5879_neutraal
 -------------------------------
 Charge =  0 Multiplicity = 1

 SCF Done:  E(RB3LYP) =  -706.062932217     A.U. after    1 cycles

  Exact polarizability: 152.904  -8.160 123.872  -5.323  -6.246  99.000
 Approx polarizability: 195.618  -6.087 186.505 -14.234 -13.268 160.701

                      1                      2                      3
                      A                      A                      A
 Frequencies --     25.9899                37.0727                66.7742
 Red. masses --      4.1415                 6.2333                 2.8041
 Frc consts  --      0.0016                 0.0050                 0.0074
 IR Inten    --      0.8111                 0.3506                 1.4719

                      4                      5                      6
                      A                      A                      A
 Frequencies --     69.1449                86.8345               108.9664
 Red. masses --      6.5459                 3.5261                 2.3158
 Frc consts  --      0.0184                 0.0157                 0.0162
 IR Inten    --      0.8485                 0.7489                 3.7339

                      7                      8                      9
                      A                      A                      A
 Frequencies --    124.7471               208.7964               220.4910
 Red. masses --      4.2973                 3.6286                 1.8450
 Frc consts  --      0.0394                 0.0932                 0.0528
 IR Inten    --      0.9362                 0.6932                 0.3578

                     10                     11                     12
                      A                      A                      A
 Frequencies --    232.4774               238.5083               255.8475
 Red. masses --      1.4220                 2.3568                 1.1725
 Frc consts  --      0.0453                 0.0790                 0.0452
 IR Inten    --      0.4212                 0.3333                 1.4267

                     13                     14                     15
                      A                      A                      A
 Frequencies --    265.3437               292.8801               321.2998
 Red. masses --      1.1752                 3.5573                 3.0595
 Frc consts  --      0.0488                 0.1798                 0.1861
 IR Inten    --      0.4587                 1.4656                 1.8820

                     16                     17                     18
                      A                      A                      A
 Frequencies --    335.8455               353.6829               377.7628
 Red. masses --      3.2223                 2.9923                 2.6760
 Frc consts  --      0.2141                 0.2205                 0.2250
 IR Inten    --      0.9851                 1.2816                 3.6883

                     19                     20                     21
                      A                      A                      A
 Frequencies --    433.9001               450.6069               511.7149
 Red. masses --      2.6513                 4.3028                 3.7379
 Frc consts  --      0.2941                 0.5148                 0.5767
 IR Inten    --      2.1466                 3.8434                11.9576

                     22                     23                     24
                      A                      A                      A
 Frequencies --    569.8085               624.9120               642.6807
 Red. masses --      3.6371                 1.2646                 3.6208
 Frc consts  --      0.6958                 0.2910                 0.8811
 IR Inten    --     14.6888               105.2141                12.9434

                     25                     26                     27
                      A                      A                      A
 Frequencies --    684.0895               713.9066               734.0697
 Red. masses --      3.7135                 3.3709                 3.6050
 Frc consts  --      1.0239                 1.0122                 1.1445
 IR Inten    --      6.1496                10.8435                15.4550

                     28                     29                     30
                      A                      A                      A
 Frequencies --    750.3235               783.7586               800.7293
 Red. masses --      1.4904                 3.9193                 3.4948
 Frc consts  --      0.4944                 1.4185                 1.3202
 IR Inten    --      4.2334                14.7538                52.1584

                     31                     32                     33
                      A                      A                      A
 Frequencies --    810.4877               830.8272               877.5640
 Red. masses --      1.3306                 1.3555                 2.3025
 Frc consts  --      0.5150                 0.5513                 1.0448
 IR Inten    --     28.7490                54.5580                 8.2532

                     34                     35                     36
                      A                      A                      A
 Frequencies --    930.6888               971.1090               989.4279
 Red. masses --      1.8537                 1.4773                 2.2160
 Frc consts  --      0.9460                 0.8208                 1.2782
 IR Inten    --      8.8855                 3.2644                 5.8928

                     37                     38                     39
                      A                      A                      A
 Frequencies --   1003.4082              1004.7807              1022.3430
 Red. masses --      1.9601                 1.9568                 1.8855
 Frc consts  --      1.1628                 1.1639                 1.1611
 IR Inten    --     27.7289                15.6803                 4.7870

                     40                     41                     42
                      A                      A                      A
 Frequencies --   1049.3134              1073.8023              1141.7064
 Red. masses --      1.4201                 4.1383                 2.6814
 Frc consts  --      0.9213                 2.8114                 2.0593
 IR Inten    --      4.4347                12.3289               146.8382

                     43                     44                     45
                      A                      A                      A
 Frequencies --   1144.2091              1168.9368              1181.7647
 Red. masses --      2.1033                 1.6097                 1.7380
 Frc consts  --      1.6224                 1.2959                 1.4301
 IR Inten    --     36.7594                26.2853                47.2818

                     46                     47                     48
                      A                      A                      A
 Frequencies --   1188.4617              1198.7399              1205.2912
 Red. masses --      1.6964                 1.7460                 2.6149
 Frc consts  --      1.4117                 1.4782                 2.2382
 IR Inten    --     32.7838                15.0028                 5.5873

                     49                     50                     51
                      A                      A                      A
 Frequencies --   1244.9262              1256.3653              1278.9064
 Red. masses --      1.5026                 2.7586                 1.6331
 Frc consts  --      1.3721                 2.5655                 1.5738
 IR Inten    --     10.4040                 4.4766                29.6326

                     52                     53                     54
                      A                      A                      A
 Frequencies --   1299.3535              1316.5325              1369.3408
 Red. masses --      2.0229                 1.8822                 2.4044
 Frc consts  --      2.0122                 1.9221                 2.6564
 IR Inten    --     12.3594                39.9232                17.3369

                     55                     56                     57
                      A                      A                      A
 Frequencies --   1400.0973              1406.5968              1422.2942
 Red. masses --      1.4132                 2.7773                 2.3358
 Frc consts  --      1.6321                 3.2375                 2.7840
 IR Inten    --     14.8102                12.3589                 1.3912

                     58                     59                     60
                      A                      A                      A
 Frequencies --   1431.1325              1447.2913              1455.8538
 Red. masses --      1.3059                 2.4878                 1.2547
 Frc consts  --      1.5759                 3.0703                 1.5668
 IR Inten    --      1.5255                 9.7714                20.1579

                     61                     62                     63
                      A                      A                      A
 Frequencies --   1482.4513              1503.8058              1506.8204
 Red. masses --      1.1984                 1.2366                 1.1928
 Frc consts  --      1.5517                 1.6476                 1.5957
 IR Inten    --      4.0591                15.3683                22.1679

                     64                     65                     66
                      A                      A                      A
 Frequencies --   1515.2377              1518.5341              1519.8374
 Red. masses --      1.0916                 1.0625                 1.0595
 Frc consts  --      1.4766                 1.4435                 1.4419
 IR Inten    --      2.1225                 7.8207                 0.7554

                     67                     68                     69
                      A                      A                      A
 Frequencies --   1530.4609              1538.1083              1541.2354
 Red. masses --      1.0591                 1.2174                 1.4842
 Frc consts  --      1.4616                 1.6968                 2.0772
 IR Inten    --     11.4206                28.5768                38.9493

                     70                     71                     72
                      A                      A                      A
 Frequencies --   1544.0488              1548.3925              1606.9750
 Red. masses --      1.2396                 1.1235                 5.9783
 Frc consts  --      1.7412                 1.5870                 9.0959
 IR Inten    --     15.8772                13.5727                 3.0992

                     73                     74                     75
                      A                      A                      A
 Frequencies --   1847.7956              2953.8647              2959.1657
 Red. masses --     10.0455                 1.0625                 1.0703
 Frc consts  --     20.2084                 5.4623                 5.5220
 IR Inten    --    220.4212                50.2380               124.8335

                     76                     77                     78
                      A                      A                      A
 Frequencies --   3025.5292              3056.8532              3065.4869
 Red. masses --      1.0873                 1.0354                 1.0400
 Frc consts  --      5.8641                 5.7004                 5.7580
 IR Inten    --     37.7824                15.5604                15.0572

                     79                     80                     81
                      A                      A                      A
 Frequencies --   3071.5349              3082.1532              3118.6711
 Red. masses --      1.0735                 1.0602                 1.1023
 Frc consts  --      5.9669                 5.9342                 6.3164
 IR Inten    --     45.5201                31.1306                33.5567

                     82                     83                     84
                      A                      A                      A
 Frequencies --   3125.4912              3134.7536              3139.0257
 Red. masses --      1.1022                 1.1041                 1.0992
 Frc consts  --      6.3440                 6.3927                 6.3815
 IR Inten    --     12.3582                 3.4014                22.2433

                     85                     86                     87
                      A                      A                      A
 Frequencies --   3141.8623              3159.0743              3255.6287
 Red. masses --      1.1030                 1.1027                 1.0961
 Frc consts  --      6.4151                 6.4840                 6.8450
 IR Inten    --     20.8833                15.5103                 3.8397

                     88                     89                     90
                      A                      A                      A
 Frequencies --   3317.1708              3485.9415              3686.4691
 Red. masses --      1.0974                 1.0741                 1.0642
 Frc consts  --      7.1146                 7.6899                 8.5211
 IR Inten    --      1.1716                 0.3715                55.9636

 - Thermochemistry -
 -------------------
 Temperature   298.150 Kelvin.  Pressure   1.00000 Atm.
 Atom     1 has atomic number  6 and mass  12.00000

 Molecular mass:   211.13208 amu.
 Principal axes and moments of inertia in atomic units:
                           1         2         3
     Eigenvalues --  1864.758064949.298625982.75371
           X            0.99950  -0.03145  -0.00172
           Y            0.03143   0.99941  -0.01367
           Z            0.00215   0.01360   0.99991
 This molecule is an asymmetric top.
 Rotational symmetry number  1.
 Warning -- assumption of classical behavior for rotation
           may cause significant error
 Rotational temperatures (Kelvin)      0.04645     0.01750     0.01448
 Rotational constants (GHZ):           0.96782     0.36465     0.30166
 Zero-point vibrational energy     720312.8 (Joules/Mol)
                                  172.15889 (Kcal/Mol)
 Warning -- explicit consideration of  22 degrees of freedom as
           vibrations may cause significant error
 Vibrational temperatures:     37.39    53.34    96.07    99.48   124.94
          (Kelvin)            156.78   179.48   300.41   317.24   334.48
                              343.16   368.11   381.77   421.39   462.28
                              483.21   508.87   543.52   624.29   648.32
                              736.24   819.83   899.11   924.67   984.25
                             1027.15  1056.16  1079.55  1127.65  1152.07
                             1166.11  1195.38  1262.62  1339.05  1397.21
                             1423.57  1443.68  1445.66  1470.92  1509.73
                             1544.96  1642.66  1646.26  1681.84  1700.30
                             1709.93  1724.72  1734.15  1791.17  1807.63
                             1840.06  1869.48  1894.20  1970.18  2014.43
                             2023.78  2046.36  2059.08  2082.33  2094.65
                             2132.92  2163.64  2167.98  2180.09  2184.83
                             2186.71  2201.99  2212.99  2217.49  2221.54
                             2227.79  2312.08  2658.57  4249.95  4257.58
                             4353.06  4398.13  4410.55  4419.25  4434.53
                             4487.07  4496.88  4510.21  4516.36  4520.44
                             4545.20  4684.12  4772.67  5015.49  5304.01

 Zero-point correction=                           0.274353 (Hartree/Particle)
 Thermal correction to Energy=                    0.290209
 Thermal correction to Enthalpy=                  0.291153
 Thermal correction to Gibbs Free Energy=         0.230039
 Sum of electronic and zero-point Energies=           -705.788580
 Sum of electronic and thermal Energies=              -705.772723
 Sum of electronic and thermal Enthalpies=            -705.771779
 Sum of electronic and thermal Free Energies=         -705.832894

                     E (Thermal)             CV                S
                      KCal/Mol        Cal/Mol-Kelvin    Cal/Mol-Kelvin
 Total                  182.109             58.531            128.626
 Electronic               0.000              0.000              0.000
 Translational            0.889              2.981             41.946
 Rotational               0.889              2.981             32.379
 Vibrational            180.331             52.569             54.301
 Vibration     1          0.593              1.985              6.114
 Vibration     2          0.594              1.982              5.410
 Vibration     3          0.598              1.970              4.246
 Vibration     4          0.598              1.969              4.178
 Vibration     5          0.601              1.958              3.730
 Vibration     6          0.606              1.942              3.287
 Vibration     7          0.610              1.928              3.025
 Vibration     8          0.642              1.827              2.054
 Vibration     9          0.647              1.810              1.955
 Vibration    10          0.653              1.791              1.860
 Vibration    11          0.656              1.782              1.814
 Vibration    12          0.666              1.753              1.690
 Vibration    13          0.671              1.737              1.626
 Vibration    14          0.688              1.687              1.457
 Vibration    15          0.707              1.633              1.303
 Vibration    16          0.717              1.604              1.232
 Vibration    17          0.730              1.568              1.150
 Vibration    18          0.748              1.518              1.048
 Vibration    19          0.795              1.396              0.846
 Vibration    20          0.809              1.360              0.794
 Vibration    21          0.867              1.224              0.629
 Vibration    22          0.926              1.097              0.505

 Optimization completed.
    -- Stationary point found.
 Normal termination of Gaussian 16 at Thu Dec 10 17:34:39 2020.

 ----------------------------------------------------------------------
 # B3LYP/6-311++G(d,p) empiricaldispersion=gd3bj scf=xqc pop=npa geom=c
 heck
 ----------------------------------------------------------------------

 ---------------------------------------
 CID_106718375_JID_5879_Energie_neutraal
 ---------------------------------------
 Structure from the checkpoint file:  "JID_5879.chk"
 Charge =  0 Multiplicity = 1

 SCF Done:  E(RB3LYP) =  -706.273482120     A.U. after   15 cycles
 Normal termination of Gaussian 16 at Thu Dec 10 17:40:27 2020.

 ----------------------------------------------------------------------
 # B3LYP/6-311++G(d,p) empiricaldispersion=gd3bj scf=xqc pop=npa geom=c
 heck
 ----------------------------------------------------------------------

 -------------------------------------
 CID_106718375_JID_5879_Energie_kation
 -------------------------------------
 Structure from the checkpoint file:  "JID_5879.chk"
 Charge =  1 Multiplicity = 2

 SCF Done:  E(UB3LYP) =  -705.982755022     A.U. after   20 cycles
 Normal termination of Gaussian 16 at Thu Dec 10 17:50:12 2020.
 Gaussian 16:  ES64L-G16RevA.03 25-Dec-2016

 ----------------------------------------------------------------------
 # B3LYP/6-311++G(d,p) empiricaldispersion=gd3bj scf=xqc pop=npa geom=c
 heck
 ----------------------------------------------------------------------

 ------------------------------------
 CID_106718375_JID_5879_Energie_anion
 ------------------------------------
 Structure from the checkpoint file:  "JID_5879.chk"
 Charge = -1 Multiplicity = 2

                         Standard orientation:
 ---------------------------------------------------------------------
 Center     Atomic      Atomic             Coordinates (Angstroms)
 Number     Number       Type             X           Y           Z
 ---------------------------------------------------------------------
      1          6           0        2.366840   -0.620549    1.518919
      2          6           0        2.399191    0.003645    0.120507
      3          6           0        3.854972    0.193655   -0.357598
      4          6           0        1.674404   -0.900655   -0.909702
      5          7           0        0.292939   -1.188724   -0.572391
      6          6           0       -0.785099   -0.328215   -0.701809
      7          6           0       -1.852187   -0.975668   -0.125542
      8          7           0       -1.458485   -2.208806    0.357595
      9          6           0       -0.175817   -2.300252    0.076237
     10          6           0       -3.260628   -0.483037   -0.002447
     11          7           0       -3.290356    0.978788    0.014713
     12          6           0       -4.638872    1.512520    0.151684
     13          6           0        1.737370    1.379406    0.173619
     14          8           0        1.388575    1.961682    1.174100
     15          8           0        1.604479    1.931145   -1.064386
     16          1           0        2.847727   -1.604939    1.499306
     17          1           0        1.341697   -0.739203    1.877097
     18          1           0        2.898809    0.012440    2.233325
     19          1           0        4.367982   -0.774286   -0.377281
     20          1           0        3.893749    0.629688   -1.359939
     21          1           0        4.402573    0.850457    0.325777
     22          1           0        1.707425   -0.439426   -1.899669
     23          1           0        2.207834   -1.854809   -0.965266
     24          1           0       -0.701191    0.627815   -1.190902
     25          1           0        0.470746   -3.135316    0.312376
     26          1           0       -3.861126   -0.815035   -0.862416
     27          1           0       -3.720496   -0.949234    0.888371
     28          1           0       -2.715665    1.298811    0.792794
     29          1           0       -5.192630    1.128303    1.028818
     30          1           0       -4.595680    2.604176    0.223678
     31          1           0       -5.221130    1.258332   -0.742124
     32          1           0        1.195205    2.805707   -0.924288
 ---------------------------------------------------------------------

 SCF Done:  E(UB3LYP) =  -706.262998038     A.U. after   33 cycles
 SCF Done:  E(UB3LYP) =  -706.262998038     a.u. after    1 cycles

 The electronic state is 2-A.
 Alpha  occ. eigenvalues --  -19.07490 -19.02380 -14.27539 -14.21012 -14.19867
 Alpha  occ. eigenvalues --  -10.21201 -10.12686 -10.12657 -10.11421 -10.10456
 Alpha  occ. eigenvalues --  -10.10184 -10.09496 -10.09262 -10.07444 -10.06890
 Alpha  occ. eigenvalues --   -1.01688  -0.92846  -0.92418  -0.81913  -0.79767
 Alpha  occ. eigenvalues --   -0.73242  -0.66632  -0.62833  -0.60459  -0.59618
 Alpha  occ. eigenvalues --   -0.56891  -0.54882  -0.49074  -0.48132  -0.47239
 Alpha  occ. eigenvalues --   -0.44041  -0.40571  -0.40166  -0.39148  -0.37782
 Alpha  occ. eigenvalues --   -0.36647  -0.35602  -0.35127  -0.34278  -0.33461
 Alpha  occ. eigenvalues --   -0.32871  -0.32459  -0.31192  -0.29810  -0.29636
 Alpha  occ. eigenvalues --   -0.29280  -0.28372  -0.27651  -0.27286  -0.26193
 Alpha  occ. eigenvalues --   -0.25477  -0.23448  -0.18948  -0.18200  -0.17636
 Alpha  occ. eigenvalues --   -0.14414  -0.13046   0.04159
 Alpha virt. eigenvalues --    0.05829   0.06566   0.07879   0.08095   0.08398
 Alpha virt. eigenvalues --    0.08767   0.09095   0.09790   0.10422   0.10645
 Alpha virt. eigenvalues --    0.10703   0.11550   0.11968   0.12428   0.12759

  Beta  occ. eigenvalues --  -19.07437 -19.02356 -14.27537 -14.21002 -14.19867
  Beta  occ. eigenvalues --  -10.21194 -10.12655 -10.12645 -10.11417 -10.10451
  Beta  occ. eigenvalues --  -10.10166 -10.09480 -10.09261 -10.07391 -10.06870
  Beta  occ. eigenvalues --   -1.01625  -0.92783  -0.92409  -0.81898  -0.79752
  Beta  occ. eigenvalues --   -0.73216  -0.66613  -0.62792  -0.60406  -0.59566
  Beta  occ. eigenvalues --   -0.56793  -0.54841  -0.49039  -0.48109  -0.47149
  Beta  occ. eigenvalues --   -0.44002  -0.40526  -0.40131  -0.39108  -0.37726
  Beta  occ. eigenvalues --   -0.36615  -0.35574  -0.35085  -0.34249  -0.33433
  Beta  occ. eigenvalues --   -0.32826  -0.32431  -0.31151  -0.29767  -0.29617
  Beta  occ. eigenvalues --   -0.29238  -0.28348  -0.27616  -0.27246  -0.26160
  Beta  occ. eigenvalues --   -0.25442  -0.23377  -0.18880  -0.18196  -0.17621
  Beta  occ. eigenvalues --   -0.14393  -0.13017
  Beta virt. eigenvalues --    0.06093   0.06945   0.07736   0.08187   0.08372
  Beta virt. eigenvalues --    0.08793   0.09005   0.09299   0.10146   0.10738
  Beta virt. eigenvalues --    0.11028   0.11178   0.11877   0.12135   0.12534

 Mulliken charges and spin densities:
               1          2
     1  C   -0.197209  -0.393095
     2  C   -1.644911   2.642210
     3  C    1.319719  -1.897718
     4  C    0.728964  -1.687434
     5  N    0.201741   0.005854
     6  C   -1.072897   0.806904
     7  C    0.264929  -0.196311
     8  N   -0.121079   0.050335
     9  C    0.079848   0.072118
    10  C    0.088439  -0.933233
    11  N   -0.150606   0.045901
    12  C    0.165485  -0.524380
    13  C    1.226988  -1.647370
    14  O   -0.240618   0.055374
    15  O   -0.239209   0.127626
    16  H    0.013467   0.150287
    17  H    0.118262   0.074119
    18  H    0.076646   0.102915
    19  H   -0.620280   0.785652
    20  H   -0.233020   0.396390
    21  H   -0.080081   0.238484
    22  H   -0.149898   0.394780
    23  H   -0.309261   0.507211
    24  H    0.069049   0.145797
    25  H   -0.246895   0.429428
    26  H    0.080663   0.083384
    27  H    0.105794   0.022293
    28  H    0.161579   0.056541
    29  H   -0.005210   0.112913
    30  H   -0.144843   0.282084
    31  H   -0.017922   0.150485
    32  H   -0.227636   0.540454
 Sum of Mulliken charges =  -1.00000   1.00000

 Dipole moment (field-independent basis, Debye):
    X=             -4.0351    Y=             -0.6839    Z=              1.5625  Tot=              4.3808
 Quadrupole moment (field-independent basis, Debye-Ang):
   XX=           -165.2131   YY=           -143.8901   ZZ=           -122.7630
   XY=              4.8932   XZ=              6.0937   YZ=              2.2274

 Summary of Natural Population Analysis:

                                       Natural Population
                Natural  -----------------------------------------------
    Atom  No    Charge         Core      Valence    Rydberg      Total
 -----------------------------------------------------------------------
      C    1   -0.28608      0.99963     2.27863    0.00782     3.28608
      C    2   -0.08869      0.99952     2.07529    0.01388     3.08869
      C    3   -0.28145      0.99963     2.27432    0.00751     3.28145
      C    4   -0.07882      0.99956     2.06571    0.01355     3.07882
      N    5   -0.20706      0.99965     2.69671    0.01070     3.70706
      C    6   -0.03366      0.99948     2.02266    0.01152     3.03366
      C    7    0.04516      0.99954     1.94115    0.01416     2.95484
      N    8   -0.25967      0.99971     2.75045    0.00951     3.75967
      C    9    0.10787      0.99963     1.87534    0.01716     2.89213
      C   10   -0.09438      0.99959     2.08492    0.00986     3.09438
      N   11   -0.33238      0.99975     2.82237    0.01026     3.83238
      C   12   -0.17607      0.99967     2.16967    0.00674     3.17607
      C   13    0.41447      0.99963     1.55853    0.02737     2.58553
      O   14   -0.29961      0.99987     3.29339    0.00635     4.29961
      O   15   -0.34987      0.99988     3.34230    0.00770     4.34987
      H   16    0.10066      0.00000     0.39824    0.00110     0.39934
      H   17    0.10832      0.00000     0.39057    0.00111     0.39168
      H   18    0.10800      0.00000     0.39118    0.00081     0.39200
      H   19    0.10627      0.00000     0.39096    0.00277     0.39373
      H   20    0.10912      0.00000     0.38904    0.00185     0.39088
      H   21    0.10448      0.00000     0.39422    0.00130     0.39552
      H   22    0.11219      0.00000     0.38586    0.00195     0.38781
      H   23    0.10730      0.00000     0.39050    0.00219     0.39270
      H   24    0.11475      0.00000     0.38328    0.00197     0.38525
      H   25    0.09429      0.00000     0.40436    0.00135     0.40571
      H   26    0.09338      0.00000     0.40495    0.00167     0.40662
      H   27    0.08576      0.00000     0.41209    0.00215     0.41424
      H   28    0.17155      0.00000     0.32413    0.00432     0.32845
      H   29    0.07495      0.00000     0.42280    0.00224     0.42505
      H   30    0.09537      0.00000     0.40348    0.00115     0.40463
      H   31    0.08911      0.00000     0.40948    0.00142     0.41089
      H   32    0.24474      0.00000     0.24486    0.01040     0.25526
 =======================================================================
   * Total *   -0.00000     14.99474    41.79143    0.21383    57.00000

 Normal termination of Gaussian 16 at Thu Dec 10 18:06:09 2020.
