 Gaussian 16, Revision A.03,

 -----------------------------------------------------------
 # opt freq B3LYP/6-31G(d) empiricaldispersion=gd3bj scf=xqc
 -----------------------------------------------------------

 -------------------------------
 CID_114129526_JID_9397_neutraal
 -------------------------------
 Symbolic Z-matrix:
 Charge =  0 Multiplicity = 1

 SCF Done:  E(RB3LYP) =  -825.038358511     A.U. after   15 cycles
 SCF Done:  E(RB3LYP) =  -825.042691516     A.U. after   12 cycles
 SCF Done:  E(RB3LYP) =  -825.043345956     A.U. after   12 cycles
 SCF Done:  E(RB3LYP) =  -825.043924661     A.U. after   11 cycles
 SCF Done:  E(RB3LYP) =  -825.044088118     A.U. after   11 cycles
 SCF Done:  E(RB3LYP) =  -825.044161679     A.U. after   11 cycles
 SCF Done:  E(RB3LYP) =  -825.044181015     A.U. after   10 cycles
 SCF Done:  E(RB3LYP) =  -825.044190259     A.U. after    9 cycles
 SCF Done:  E(RB3LYP) =  -825.044191994     A.U. after    8 cycles
 SCF Done:  E(RB3LYP) =  -825.044192270     A.U. after    7 cycles
 SCF Done:  E(RB3LYP) =  -825.044192394     A.U. after    8 cycles
 SCF Done:  E(RB3LYP) =  -825.044192457     A.U. after    7 cycles
 SCF Done:  E(RB3LYP) =  -825.044192494     A.U. after    7 cycles
 SCF Done:  E(RB3LYP) =  -825.044192515     A.U. after    7 cycles
 Optimization completed.
    -- Stationary point found.
 Normal termination of Gaussian 16 at Mon Dec 14 16:48:43 2020.

 --------------------------------------------------------------------
 #N Geom=AllCheck Guess=TCheck SCRF=Check GenChk RB3LYP/6-31G(d) Freq
 --------------------------------------------------------------------

 Structure from the checkpoint file:  "JID_9397.chk"
 -------------------------------
 CID_114129526_JID_9397_neutraal
 -------------------------------
 Charge =  0 Multiplicity = 1

 SCF Done:  E(RB3LYP) =  -825.044192515     A.U. after    1 cycles

  Exact polarizability: 240.111   8.284 199.308  -6.209  -6.415 111.421
 Approx polarizability: 326.625  17.600 309.603 -14.040 -17.474 173.951

                      1                      2                      3
                      A                      A                      A
 Frequencies --     19.9348                33.1114                49.3526
 Red. masses --      3.9525                 3.8978                 4.4234
 Frc consts  --      0.0009                 0.0025                 0.0063
 IR Inten    --      0.4777                 1.0621                 0.7220

                      4                      5                      6
                      A                      A                      A
 Frequencies --     64.8967               103.2582               109.2083
 Red. masses --      4.9959                 3.2610                 4.3585
 Frc consts  --      0.0124                 0.0205                 0.0306
 IR Inten    --      5.9695                 1.2219                 2.6344

                      7                      8                      9
                      A                      A                      A
 Frequencies --    125.2026               152.3999               183.9225
 Red. masses --      4.1113                 2.2897                 2.5832
 Frc consts  --      0.0380                 0.0313                 0.0515
 IR Inten    --      1.0921                 0.0585                 2.4440

                     10                     11                     12
                      A                      A                      A
 Frequencies --    209.6558               220.0389               234.4284
 Red. masses --      3.2399                 3.2834                 2.3234
 Frc consts  --      0.0839                 0.0937                 0.0752
 IR Inten    --      3.5398                 0.5785                 1.1838

                     13                     14                     15
                      A                      A                      A
 Frequencies --    241.4418               278.3671               318.2270
 Red. masses --      1.3055                 1.9624                 2.6245
 Frc consts  --      0.0448                 0.0896                 0.1566
 IR Inten    --      0.2065                 0.4833                 1.7662

                     16                     17                     18
                      A                      A                      A
 Frequencies --    322.6376               351.4296               375.4553
 Red. masses --      3.5509                 5.9979                 1.4243
 Frc consts  --      0.2178                 0.4364                 0.1183
 IR Inten    --      3.8302                 0.2785                 6.1217

                     19                     20                     21
                      A                      A                      A
 Frequencies --    397.2660               414.7100               422.9009
 Red. masses --      2.8331                 3.3315                 3.0663
 Frc consts  --      0.2634                 0.3376                 0.3231
 IR Inten    --      8.3639                 0.2840                 0.7666

                     22                     23                     24
                      A                      A                      A
 Frequencies --    445.4817               451.0520               452.4918
 Red. masses --      1.8419                 2.4537                 1.8322
 Frc consts  --      0.2154                 0.2941                 0.2210
 IR Inten    --      7.2722                 4.9005               115.4671

                     25                     26                     27
                      A                      A                      A
 Frequencies --    458.7880               485.8751               520.2372
 Red. masses --      1.8854                 2.3876                 2.2404
 Frc consts  --      0.2338                 0.3321                 0.3573
 IR Inten    --     20.1842                25.4478                30.6084

                     28                     29                     30
                      A                      A                      A
 Frequencies --    544.6008               574.3555               589.3574
 Red. masses --      1.9236                 2.3243                 3.0284
 Frc consts  --      0.3361                 0.4518                 0.6198
 IR Inten    --     46.5360                17.3318                16.0932

                     31                     32                     33
                      A                      A                      A
 Frequencies --    607.9590               635.5223               692.3335
 Red. masses --      3.1011                 4.0352                 1.8843
 Frc consts  --      0.6753                 0.9602                 0.5321
 IR Inten    --     36.9417                36.0220                41.5172

                     34                     35                     36
                      A                      A                      A
 Frequencies --    713.1156               738.0289               771.0184
 Red. masses --      3.2538                 2.4172                 3.1258
 Frc consts  --      0.9749                 0.7757                 1.0948
 IR Inten    --     45.0743                48.4239                73.8772

                     37                     38                     39
                      A                      A                      A
 Frequencies --    787.5806               797.4848               835.5809
 Red. masses --      2.2489                 2.1212                 1.9397
 Frc consts  --      0.8219                 0.7948                 0.7979
 IR Inten    --     47.1407               170.7054                10.5089

                     40                     41                     42
                      A                      A                      A
 Frequencies --    851.3541               858.2989               867.9017
 Red. masses --      1.8264                 1.6331                 1.5346
 Frc consts  --      0.7800                 0.7088                 0.6810
 IR Inten    --     62.3228                27.6748                 8.3768

                     43                     44                     45
                      A                      A                      A
 Frequencies --    879.6680               885.5178               903.3950
 Red. masses --      1.7153                 1.7792                 2.1274
 Frc consts  --      0.7820                 0.8220                 1.0229
 IR Inten    --     24.6212                 2.7495                 2.7305

                     46                     47                     48
                      A                      A                      A
 Frequencies --    948.6654               957.6371               968.8046
 Red. masses --      1.2986                 1.7880                 2.2067
 Frc consts  --      0.6886                 0.9661                 1.2203
 IR Inten    --      0.4143                 2.4597                 9.4358

                     49                     50                     51
                      A                      A                      A
 Frequencies --    982.5853              1002.3424              1008.6968
 Red. masses --      2.0970                 1.7376                 1.4595
 Frc consts  --      1.1929                 1.0286                 0.8749
 IR Inten    --      2.1360                 0.8685                 1.9963

                     52                     53                     54
                      A                      A                      A
 Frequencies --   1048.3984              1084.6754              1092.9903
 Red. masses --      2.2451                 1.7116                 2.1217
 Frc consts  --      1.4539                 1.1865                 1.4934
 IR Inten    --      0.2111                 0.9454                15.6196

                     55                     56                     57
                      A                      A                      A
 Frequencies --   1103.0528              1108.8846              1119.8104
 Red. masses --      2.1580                 1.0979                 2.2389
 Frc consts  --      1.5470                 0.7954                 1.6541
 IR Inten    --     13.3166                 0.1357                 0.6815

                     58                     59                     60
                      A                      A                      A
 Frequencies --   1140.3416              1143.3703              1156.4287
 Red. masses --      2.7533                 1.9044                 2.2172
 Frc consts  --      2.1095                 1.4669                 1.7470
 IR Inten    --      3.6449                 7.6774                 7.9146

                     61                     62                     63
                      A                      A                      A
 Frequencies --   1181.2063              1189.5059              1196.8151
 Red. masses --      1.2144                 2.1009                 2.1564
 Frc consts  --      0.9983                 1.7514                 1.8199
 IR Inten    --     14.4741                 4.8758                 5.1848

                     64                     65                     66
                      A                      A                      A
 Frequencies --   1247.7609              1258.0926              1267.6993
 Red. masses --      1.3511                 1.6163                 1.9360
 Frc consts  --      1.2393                 1.5073                 1.8331
 IR Inten    --     12.6317                 3.1868                73.0423

                     67                     68                     69
                      A                      A                      A
 Frequencies --   1306.6609              1318.1894              1322.5169
 Red. masses --      1.3276                 1.3186                 1.3544
 Frc consts  --      1.3355                 1.3500                 1.3958
 IR Inten    --      2.7718                 6.5229                28.8210

                     70                     71                     72
                      A                      A                      A
 Frequencies --   1331.3430              1333.3359              1336.6719
 Red. masses --      1.6395                 1.6605                 1.3347
 Frc consts  --      1.7122                 1.7393                 1.4050
 IR Inten    --     63.2672                18.7691                15.0897

                     73                     74                     75
                      A                      A                      A
 Frequencies --   1356.6251              1372.4422              1395.7279
 Red. masses --      1.2641                 2.7180                 1.3780
 Frc consts  --      1.3707                 3.0164                 1.5816
 IR Inten    --      2.5469               231.8401                 1.5153

                     76                     77                     78
                      A                      A                      A
 Frequencies --   1398.9494              1402.8507              1409.5516
 Red. masses --      1.4908                 1.3884                 1.5062
 Frc consts  --      1.7190                 1.6099                 1.7632
 IR Inten    --     25.1557                10.7571                 0.6759

                     79                     80                     81
                      A                      A                      A
 Frequencies --   1414.4413              1422.1317              1425.0922
 Red. masses --      3.3749                 1.7919                 1.6421
 Frc consts  --      3.9782                 2.1352                 1.9648
 IR Inten    --     59.0227                 9.7852                 2.1027

                     82                     83                     84
                      A                      A                      A
 Frequencies --   1440.8176              1477.7421              1507.9283
 Red. masses --      1.2508                 4.3126                 1.0949
 Frc consts  --      1.5299                 5.5487                 1.4668
 IR Inten    --      2.1099                51.0545                 0.4254

                     85                     86                     87
                      A                      A                      A
 Frequencies --   1513.6817              1519.8110              1521.4526
 Red. masses --      1.0958                 1.0865                 1.4503
 Frc consts  --      1.4792                 1.4786                 1.9780
 IR Inten    --      0.4971                 5.3723                30.8726

                     88                     89                     90
                      A                      A                      A
 Frequencies --   1527.8523              1530.8177              1532.1086
 Red. masses --      1.0531                 1.0580                 1.0939
 Frc consts  --      1.4484                 1.4607                 1.5128
 IR Inten    --      4.6365                 1.8815                 4.0927

                     91                     92                     93
                      A                      A                      A
 Frequencies --   1545.0996              1569.3015              1643.5719
 Red. masses --      1.0908                 2.7302                 5.0005
 Frc consts  --      1.5343                 3.9615                 7.9587
 IR Inten    --     35.8341               121.0392               105.7825

                     94                     95                     96
                      A                      A                      A
 Frequencies --   1646.6162              1655.4560              1692.4580
 Red. masses --      1.3042                 2.3617                 1.5892
 Frc consts  --      2.0834                 3.8133                 2.6821
 IR Inten    --    106.4944                21.6924               107.0691

                     97                     98                     99
                      A                      A                      A
 Frequencies --   1782.3688              2944.7126              2998.1724
 Red. masses --      8.0674                 1.0724                 1.0803
 Frc consts  --     15.1001                 5.4786                 5.7216
 IR Inten    --    287.4334                45.4852                 4.7093

                    100                    101                    102
                      A                      A                      A
 Frequencies --   3007.6874              3014.4971              3018.8506
 Red. masses --      1.0642                 1.0712                 1.0674
 Frc consts  --      5.6718                 5.7353                 5.7314
 IR Inten    --     25.1032                 8.0005                18.0125

                    103                    104                    105
                      A                      A                      A
 Frequencies --   3024.3488              3029.9937              3039.3195
 Red. masses --      1.0736                 1.0637                 1.0366
 Frc consts  --      5.7858                 5.7535                 5.6418
 IR Inten    --     21.9721                48.7388                43.3991

                    106                    107                    108
                      A                      A                      A
 Frequencies --   3052.8849              3062.4743              3068.4145
 Red. masses --      1.1000                 1.0911                 1.0965
 Frc consts  --      6.0404                 6.0294                 6.0823
 IR Inten    --     59.9544                 0.6397                53.0765

                    109                    110                    111
                      A                      A                      A
 Frequencies --   3072.8462              3078.9375              3103.5294
 Red. masses --      1.0929                 1.1029                 1.1015
 Frc consts  --      6.0803                 6.1600                 6.2511
 IR Inten    --     76.0242                65.7105                48.6927

                    112                    113                    114
                      A                      A                      A
 Frequencies --   3109.9630              3175.7907              3222.6738
 Red. masses --      1.1024                 1.0896                 1.0884
 Frc consts  --      6.2819                 6.4745                 6.6599
 IR Inten    --     40.9015                24.1806                 9.3517

                    115                    116                    117
                      A                      A                      A
 Frequencies --   3232.3580              3496.9890              3520.7716
 Red. masses --      1.0919                 1.0511                 1.0734
 Frc consts  --      6.7214                 7.5732                 7.8397
 IR Inten    --      1.5315                 7.0455                 9.4167

                    118                    119                    120
                      A                      A                      A
 Frequencies --   3570.5255              3610.7454              3687.4162
 Red. masses --      1.0461                 1.0938                 1.1014
 Frc consts  --      7.8579                 8.4020                 8.8236
 IR Inten    --     23.5315                12.2397                21.8788

 - Thermochemistry -
 -------------------
 Temperature   298.150 Kelvin.  Pressure   1.00000 Atm.
 Atom     1 has atomic number  6 and mass  12.00000

 Molecular mass:   261.18411 amu.
 Principal axes and moments of inertia in atomic units:
                           1         2         3
     Eigenvalues --  2591.54632********************
           X            0.99999  -0.00405   0.00244
           Y            0.00405   0.99999   0.00360
           Z           -0.00245  -0.00359   0.99999
 This molecule is an asymmetric top.
 Rotational symmetry number  1.
 Warning -- assumption of classical behavior for rotation
           may cause significant error
 Rotational temperatures (Kelvin)      0.03342     0.00723     0.00622
 Rotational constants (GHZ):           0.69640     0.15060     0.12963
 Zero-point vibrational energy     974837.6 (Joules/Mol)
                                  232.99178 (Kcal/Mol)
 Warning -- explicit consideration of  31 degrees of freedom as
           vibrations may cause significant error
 Vibrational temperatures:     28.68    47.64    71.01    93.37   148.57
          (Kelvin)            157.13   180.14   219.27   264.62   301.65
                              316.59   337.29   347.38   400.51   457.86
                              464.20   505.63   540.20   571.58   596.68
                              608.46   640.95   648.96   651.03   660.09
                              699.07   748.51   783.56   826.37   847.95
                              874.72   914.37   996.11  1026.01  1061.86
                             1109.32  1133.15  1147.40  1202.21  1224.91
                             1234.90  1248.72  1265.65  1274.06  1299.78
                             1364.92  1377.83  1393.89  1413.72  1442.15
                             1451.29  1508.41  1560.61  1572.57  1587.05
                             1595.44  1611.16  1640.70  1645.05  1663.84
                             1699.49  1711.43  1721.95  1795.25  1810.11
                             1823.94  1879.99  1896.58  1902.81  1915.51
                             1918.37  1923.17  1951.88  1974.64  2008.14
                             2012.78  2018.39  2028.03  2035.07  2046.13
                             2050.39  2073.02  2126.14  2169.57  2177.85
                             2186.67  2189.03  2198.24  2202.51  2204.36
                             2223.05  2257.87  2364.73  2369.11  2381.83
                             2435.07  2564.43  4236.78  4313.70  4327.39
                             4337.19  4343.45  4351.36  4359.49  4372.90
                             4392.42  4406.22  4414.76  4421.14  4429.90
                             4465.29  4474.54  4569.25  4636.71  4650.64
                             5031.39  5065.61  5137.19  5195.06  5305.37

 Zero-point correction=                           0.371296 (Hartree/Particle)
 Thermal correction to Energy=                    0.389869
 Thermal correction to Enthalpy=                  0.390813
 Thermal correction to Gibbs Free Energy=         0.323759
 Sum of electronic and zero-point Energies=           -824.672896
 Sum of electronic and thermal Energies=              -824.654324
 Sum of electronic and thermal Enthalpies=            -824.653380
 Sum of electronic and thermal Free Energies=         -824.720433

                     E (Thermal)             CV                S
                      KCal/Mol        Cal/Mol-Kelvin    Cal/Mol-Kelvin
 Total                  244.646             73.257            141.127
 Electronic               0.000              0.000              0.000
 Translational            0.889              2.981             42.580
 Rotational               0.889              2.981             34.424
 Vibrational            242.869             67.295             64.123
 Vibration     1          0.593              1.986              6.641
 Vibration     2          0.594              1.983              5.634
 Vibration     3          0.595              1.978              4.843
 Vibration     4          0.597              1.971              4.302
 Vibration     5          0.605              1.947              3.392
 Vibration     6          0.606              1.942              3.283
 Vibration     7          0.610              1.928              3.018
 Vibration     8          0.619              1.900              2.642
 Vibration     9          0.631              1.862              2.288
 Vibration    10          0.642              1.826              2.047
 Vibration    11          0.647              1.811              1.959
 Vibration    12          0.654              1.788              1.845
 Vibration    13          0.658              1.777              1.792
 Vibration    14          0.679              1.714              1.544
 Vibration    15          0.705              1.639              1.319
 Vibration    16          0.708              1.630              1.297
 Vibration    17          0.728              1.572              1.160
 Vibration    18          0.746              1.522              1.057
 Vibration    19          0.764              1.476              0.973
 Vibration    20          0.778              1.438              0.910
 Vibration    21          0.785              1.420              0.882
 Vibration    22          0.805              1.371              0.810
 Vibration    23          0.810              1.359              0.793
 Vibration    24          0.811              1.355              0.788
 Vibration    25          0.817              1.341              0.770
 Vibration    26          0.842              1.281              0.694
 Vibration    27          0.875              1.205              0.609
 Vibration    28          0.900              1.152              0.555
 Vibration    29          0.931              1.087              0.496
 Vibration    30          0.947              1.054              0.468
 Vibration    31          0.967              1.015              0.436

 Optimization completed.
    -- Stationary point found.
 Normal termination of Gaussian 16 at Mon Dec 14 17:09:43 2020.

 ----------------------------------------------------------------------
 # B3LYP/6-311++G(d,p) empiricaldispersion=gd3bj scf=xqc pop=npa geom=c
 heck
 ----------------------------------------------------------------------

 ---------------------------------------
 CID_114129526_JID_9397_Energie_neutraal
 ---------------------------------------
 Structure from the checkpoint file:  "JID_9397.chk"
 Charge =  0 Multiplicity = 1

 SCF Done:  E(RB3LYP) =  -825.285258367     A.U. after   16 cycles
 Normal termination of Gaussian 16 at Mon Dec 14 17:21:04 2020.

 ----------------------------------------------------------------------
 # B3LYP/6-311++G(d,p) empiricaldispersion=gd3bj scf=xqc pop=npa geom=c
 heck
 ----------------------------------------------------------------------

 -------------------------------------
 CID_114129526_JID_9397_Energie_kation
 -------------------------------------
 Structure from the checkpoint file:  "JID_9397.chk"
 Charge =  1 Multiplicity = 2

 SCF Done:  E(UB3LYP) =  -825.017609587     A.U. after   24 cycles
 Normal termination of Gaussian 16 at Mon Dec 14 17:45:24 2020.
 Gaussian 16:  ES64L-G16RevA.03 25-Dec-2016

 ----------------------------------------------------------------------
 # B3LYP/6-311++G(d,p) empiricaldispersion=gd3bj scf=xqc pop=npa geom=c
 heck
 ----------------------------------------------------------------------

 ------------------------------------
 CID_114129526_JID_9397_Energie_anion
 ------------------------------------
 Structure from the checkpoint file:  "JID_9397.chk"
 Charge = -1 Multiplicity = 2

                         Standard orientation:
 ---------------------------------------------------------------------
 Center     Atomic      Atomic             Coordinates (Angstroms)
 Number     Number       Type             X           Y           Z
 ---------------------------------------------------------------------
      1          6           0        5.116997    1.369274    1.381091
      2          6           0        4.466827    0.522198    0.284676
      3          6           0        5.100536   -0.873987    0.194826
      4          6           0        4.434708   -1.732077   -0.886657
      5          6           0        2.921279   -1.831754   -0.665196
      6          6           0        2.259452   -0.446757   -0.584543
      7          6           0        2.948137    0.406182    0.494805
      8          6           0        0.753698   -0.594327   -0.345736
      9          7           0        0.059976    0.679893   -0.452100
     10          6           0       -1.328757    0.728766   -0.246374
     11          6           0       -1.930576    2.013463   -0.273391
     12          6           0       -3.308415    2.132828   -0.088904
     13          6           0       -4.102388    1.004894    0.100227
     14          6           0       -3.524091   -0.265238    0.110726
     15          6           0       -2.134921   -0.393069   -0.063568
     16          6           0       -4.424567   -1.437137    0.317324
     17          8           0       -5.639297   -1.373217    0.165728
     18          7           0       -3.808882   -2.625665    0.667852
     19          7           0       -1.086953    3.120833   -0.449326
     20          1           0        4.977625    0.905090    2.365711
     21          1           0        6.194863    1.476476    1.212965
     22          1           0        4.680300    2.374173    1.421663
     23          1           0        4.630263    1.024979   -0.681714
     24          1           0        6.177143   -0.783273    0.001759
     25          1           0        4.998265   -1.372891    1.170636
     26          1           0        4.879456   -2.734431   -0.905733
     27          1           0        4.626446   -1.285155   -1.872675
     28          1           0        2.727969   -2.374220    0.272663
     29          1           0        2.457252   -2.418555   -1.468215
     30          1           0        2.390567    0.055126   -1.554751
     31          1           0        2.756050   -0.044706    1.481167
     32          1           0        2.520583    1.417737    0.527226
     33          1           0        0.336707   -1.267571   -1.104479
     34          1           0        0.584944   -1.077863    0.634920
     35          1           0        0.522376    1.416745    0.073595
     36          1           0       -3.761130    3.121634   -0.111938
     37          1           0       -5.175643    1.088785    0.227149
     38          1           0       -1.684042   -1.377972   -0.089743
     39          1           0       -2.937521   -2.589264    1.178110
     40          1           0       -4.451946   -3.351806    0.956376
     41          1           0       -1.589175    3.981782   -0.635752
     42          1           0       -0.383480    2.955937   -1.165588
 ---------------------------------------------------------------------

 SCF Done:  E(UB3LYP) =  -825.278794061     A.U. after   33 cycles
 SCF Done:  E(UB3LYP) =  -825.278794061     a.u. after    1 cycles

 The electronic state is 2-A.
 Alpha  occ. eigenvalues --  -18.98147 -14.23335 -14.22571 -14.21942 -10.16459
 Alpha  occ. eigenvalues --  -10.11059 -10.10851 -10.10569 -10.08774 -10.08547
 Alpha  occ. eigenvalues --  -10.08304 -10.08104 -10.07971 -10.07796 -10.07232
 Alpha  occ. eigenvalues --  -10.06997 -10.06846 -10.06794 -10.06561  -0.93240
 Alpha  occ. eigenvalues --   -0.85168  -0.80831  -0.80520  -0.75630  -0.73685
 Alpha  occ. eigenvalues --   -0.69122  -0.67083  -0.64216  -0.63150  -0.59564
 Alpha  occ. eigenvalues --   -0.58415  -0.53550  -0.52265  -0.50565  -0.49000
 Alpha  occ. eigenvalues --   -0.47449  -0.47158  -0.45081  -0.42895  -0.41274
 Alpha  occ. eigenvalues --   -0.39348  -0.39177  -0.38600  -0.37066  -0.36456
 Alpha  occ. eigenvalues --   -0.35763  -0.34595  -0.33368  -0.33251  -0.32608
 Alpha  occ. eigenvalues --   -0.32009  -0.31564  -0.30847  -0.30319  -0.29106
 Alpha  occ. eigenvalues --   -0.28821  -0.28147  -0.26842  -0.26308  -0.25733
 Alpha  occ. eigenvalues --   -0.24973  -0.24730  -0.23491  -0.21819  -0.21610
 Alpha  occ. eigenvalues --   -0.21310  -0.19766  -0.18362  -0.15640  -0.13684
 Alpha  occ. eigenvalues --   -0.10122   0.03826
 Alpha virt. eigenvalues --    0.05216   0.05973   0.06236   0.06770   0.07152
 Alpha virt. eigenvalues --    0.07820   0.08830   0.09221   0.09418   0.09603
 Alpha virt. eigenvalues --    0.09871   0.10199   0.10381   0.11161   0.11768

  Beta  occ. eigenvalues --  -18.98049 -14.23323 -14.22566 -14.21877 -10.16363
  Beta  occ. eigenvalues --  -10.11054 -10.10886 -10.10434 -10.08768 -10.08536
  Beta  occ. eigenvalues --  -10.08302 -10.08090 -10.07961 -10.07782 -10.07211
  Beta  occ. eigenvalues --  -10.06917 -10.06850 -10.06739 -10.06540  -0.93058
  Beta  occ. eigenvalues --   -0.85123  -0.80741  -0.80447  -0.75606  -0.73587
  Beta  occ. eigenvalues --   -0.69098  -0.67057  -0.64062  -0.63051  -0.59525
  Beta  occ. eigenvalues --   -0.58363  -0.53316  -0.52212  -0.50512  -0.48949
  Beta  occ. eigenvalues --   -0.47368  -0.47107  -0.45037  -0.42826  -0.41180
  Beta  occ. eigenvalues --   -0.39317  -0.39127  -0.38523  -0.36996  -0.36406
  Beta  occ. eigenvalues --   -0.35735  -0.34559  -0.33327  -0.33156  -0.32549
  Beta  occ. eigenvalues --   -0.31899  -0.31370  -0.30580  -0.30300  -0.28926
  Beta  occ. eigenvalues --   -0.28771  -0.28115  -0.26699  -0.26273  -0.25688
  Beta  occ. eigenvalues --   -0.24927  -0.24691  -0.23458  -0.21783  -0.21579
  Beta  occ. eigenvalues --   -0.21027  -0.19709  -0.18051  -0.15525  -0.13362
  Beta  occ. eigenvalues --   -0.09768
  Beta virt. eigenvalues --    0.05688   0.06160   0.06696   0.06817   0.07180
  Beta virt. eigenvalues --    0.07460   0.08137   0.09066   0.09379   0.09509
  Beta virt. eigenvalues --    0.09759   0.10046   0.10320   0.10613   0.11348

 Mulliken charges and spin densities:
               1          2
     1  C    0.144822  -0.821600
     2  C   -0.803528   1.386042
     3  C   -0.186094  -0.266472
     4  C    0.351131  -0.739309
     5  C   -0.346646  -0.079648
     6  C    0.141559   0.342587
     7  C    0.349355  -1.162280
     8  C   -0.259262  -0.620054
     9  N    0.133944  -0.010145
    10  C   -0.162966   0.020538
    11  C    0.084032  -0.131085
    12  C   -0.022363  -0.228865
    13  C   -0.420841  -0.215279
    14  C    0.772934   0.000395
    15  C   -0.366874   0.279438
    16  C   -0.054527   0.059904
    17  O   -0.378513   0.035018
    18  N   -0.349021  -0.001707
    19  N   -0.315353  -0.026449
    20  H    0.084021   0.037846
    21  H   -0.250078   0.403313
    22  H   -0.180259   0.327533
    23  H   -0.266381   0.446999
    24  H   -0.248504   0.411089
    25  H    0.095995   0.025377
    26  H   -0.073704   0.244867
    27  H    0.005517   0.134442
    28  H    0.160580  -0.037881
    29  H    0.012685   0.126796
    30  H   -0.019112   0.217689
    31  H    0.077971   0.077797
    32  H    0.326594  -0.283772
    33  H    0.177513   0.036152
    34  H    0.164122  -0.002363
    35  H    0.236026   0.044400
    36  H   -0.000791   0.132009
    37  H    0.170878  -0.007791
    38  H    0.033093   0.010636
    39  H    0.183248   0.025894
    40  H    0.284710   0.005804
    41  H   -0.148646   0.402085
    42  H   -0.137268   0.400053
 Sum of Mulliken charges =  -1.00000   1.00000

 Dipole moment (field-independent basis, Debye):
    X=             -0.0454    Y=             -4.6105    Z=              3.4273  Tot=              5.7450
 Quadrupole moment (field-independent basis, Debye-Ang):
   XX=           -256.0098   YY=           -156.1806   ZZ=           -141.7041
   XY=             -9.6803   XZ=             -0.0503   YZ=             -1.0546

 Summary of Natural Population Analysis:

                                       Natural Population
                Natural  -----------------------------------------------
    Atom  No    Charge         Core      Valence    Rydberg      Total
 -----------------------------------------------------------------------
      C    1   -0.28197      0.99965     2.27590    0.00641     3.28197
      C    2   -0.11237      0.99960     2.10305    0.00972     3.11237
      C    3   -0.18691      0.99961     2.17821    0.00909     3.18691
      C    4   -0.18861      0.99963     2.18038    0.00859     3.18861
      C    5   -0.18584      0.99961     2.17781    0.00842     3.18584
      C    6   -0.11410      0.99958     2.10439    0.01013     3.11410
      C    7   -0.18785      0.99960     2.17890    0.00936     3.18785
      C    8   -0.08111      0.99960     2.07040    0.01111     3.08111
      N    9   -0.32405      0.99968     2.81409    0.01028     3.82405
      C   10    0.06592      0.99946     1.92406    0.01056     2.93408
      C   11    0.10088      0.99946     1.88874    0.01093     2.89912
      C   12   -0.12872      0.99953     2.11961    0.00958     3.12872
      C   13   -0.08211      0.99954     2.07296    0.00961     3.08211
      C   14   -0.07788      0.99947     2.06790    0.01051     3.07788
      C   15   -0.10533      0.99951     2.09695    0.00887     3.10533
      C   16    0.34500      0.99966     1.63426    0.02108     2.65500
      O   17   -0.31811      0.99988     3.31228    0.00595     4.31811
      N   18   -0.41065      0.99972     2.90368    0.00725     3.91065
      N   19   -0.40187      0.99972     2.89154    0.01061     3.90187
      H   20    0.09370      0.00000     0.40548    0.00081     0.40630
      H   21    0.10058      0.00000     0.39846    0.00096     0.39942
      H   22    0.10061      0.00000     0.39850    0.00089     0.39939
      H   23    0.09538      0.00000     0.40230    0.00232     0.40462
      H   24    0.10140      0.00000     0.39751    0.00109     0.39860
      H   25    0.09021      0.00000     0.40871    0.00108     0.40979
      H   26    0.09695      0.00000     0.40226    0.00079     0.40305
      H   27    0.09585      0.00000     0.40285    0.00130     0.40415
      H   28    0.09134      0.00000     0.40754    0.00112     0.40866
      H   29    0.09937      0.00000     0.39976    0.00087     0.40063
      H   30    0.09993      0.00000     0.39799    0.00208     0.40007
      H   31    0.09204      0.00000     0.40681    0.00115     0.40796
      H   32    0.09917      0.00000     0.39960    0.00123     0.40083
      H   33    0.09622      0.00000     0.40254    0.00125     0.40378
      H   34    0.08026      0.00000     0.41821    0.00153     0.41974
      H   35    0.18649      0.00000     0.31017    0.00335     0.31351
      H   36    0.09713      0.00000     0.40204    0.00083     0.40287
      H   37    0.10862      0.00000     0.39048    0.00090     0.39138
      H   38    0.09922      0.00000     0.39955    0.00123     0.40078
      H   39    0.18861      0.00000     0.31009    0.00130     0.31139
      H   40    0.18682      0.00000     0.31008    0.00310     0.31318
      H   41    0.18492      0.00000     0.31268    0.00240     0.31508
      H   42    0.19084      0.00000     0.30527    0.00389     0.30916
 =======================================================================
   * Total *   -0.00000     18.99250    51.78395    0.22355    71.00000

 Normal termination of Gaussian 16 at Mon Dec 14 18:20:14 2020.
