 Gaussian 16, Revision A.03,

 -----------------------------------------------------------
 # opt freq B3LYP/6-31G(d) empiricaldispersion=gd3bj scf=xqc
 -----------------------------------------------------------

 -------------------------------
 CID_147685755_JID_6519_neutraal
 -------------------------------
 Symbolic Z-matrix:
 Charge =  0 Multiplicity = 1

 SCF Done:  E(RB3LYP) =  -712.048014265     A.U. after   14 cycles
 SCF Done:  E(RB3LYP) =  -712.053188243     A.U. after   12 cycles
 SCF Done:  E(RB3LYP) =  -712.053029677     A.U. after   12 cycles
 SCF Done:  E(RB3LYP) =  -712.054329016     A.U. after   12 cycles
 SCF Done:  E(RB3LYP) =  -712.054715606     A.U. after   11 cycles
 SCF Done:  E(RB3LYP) =  -712.054943187     A.U. after   12 cycles
 SCF Done:  E(RB3LYP) =  -712.055062819     A.U. after   10 cycles
 SCF Done:  E(RB3LYP) =  -712.055107116     A.U. after    9 cycles
 SCF Done:  E(RB3LYP) =  -712.055123666     A.U. after   10 cycles
 SCF Done:  E(RB3LYP) =  -712.055128130     A.U. after    9 cycles
 SCF Done:  E(RB3LYP) =  -712.055133255     A.U. after    9 cycles
 SCF Done:  E(RB3LYP) =  -712.055134188     A.U. after    9 cycles
 SCF Done:  E(RB3LYP) =  -712.055134393     A.U. after    9 cycles
 SCF Done:  E(RB3LYP) =  -712.055134436     A.U. after    7 cycles
 SCF Done:  E(RB3LYP) =  -712.055134445     A.U. after    6 cycles
 Optimization completed.
    -- Stationary point found.
 Normal termination of Gaussian 16 at Thu Dec 10 23:33:28 2020.

 --------------------------------------------------------------------
 #N Geom=AllCheck Guess=TCheck SCRF=Check GenChk RB3LYP/6-31G(d) Freq
 --------------------------------------------------------------------

 Structure from the checkpoint file:  "JID_6519.chk"
 -------------------------------
 CID_147685755_JID_6519_neutraal
 -------------------------------
 Charge =  0 Multiplicity = 1

 SCF Done:  E(RB3LYP) =  -712.055134445     A.U. after    1 cycles

  Exact polarizability: 150.498 -16.667 145.738  16.941  11.821 127.780
 Approx polarizability: 209.836 -28.376 224.871  34.336  24.724 203.729

                      1                      2                      3
                      A                      A                      A
 Frequencies --     25.1705                27.5389                47.8823
 Red. masses --      1.3950                 1.9577                 3.4387
 Frc consts  --      0.0005                 0.0009                 0.0046
 IR Inten    --      0.1408                 0.2854                 0.0818

                      4                      5                      6
                      A                      A                      A
 Frequencies --     77.7610                90.8115               135.3741
 Red. masses --      3.8447                 3.5909                 1.9730
 Frc consts  --      0.0137                 0.0174                 0.0213
 IR Inten    --      0.9983                 0.3250                 2.7466

                      7                      8                      9
                      A                      A                      A
 Frequencies --    163.5559               184.1891               212.8349
 Red. masses --      2.8792                 4.2286                 1.4379
 Frc consts  --      0.0454                 0.0845                 0.0384
 IR Inten    --      0.7982                 2.6750                 4.8136

                     10                     11                     12
                      A                      A                      A
 Frequencies --    218.4333               241.4351               287.1616
 Red. masses --      3.1747                 3.0082                 3.0230
 Frc consts  --      0.0892                 0.1033                 0.1469
 IR Inten    --      0.6226                 0.1685                 1.5772

                     13                     14                     15
                      A                      A                      A
 Frequencies --    311.0494               330.9423               358.9049
 Red. masses --      3.5410                 2.6045                 3.2039
 Frc consts  --      0.2019                 0.1681                 0.2432
 IR Inten    --     13.7174                 5.7791                 1.4628

                     16                     17                     18
                      A                      A                      A
 Frequencies --    389.7537               407.6633               454.0191
 Red. masses --      3.5120                 2.5930                 1.9680
 Frc consts  --      0.3143                 0.2539                 0.2390
 IR Inten    --      6.9656                11.5067                37.5540

                     19                     20                     21
                      A                      A                      A
 Frequencies --    468.4194               474.6383               527.0937
 Red. masses --      2.6939                 2.2458                 2.2300
 Frc consts  --      0.3483                 0.2981                 0.3650
 IR Inten    --     26.1486                47.1312                 1.7306

                     22                     23                     24
                      A                      A                      A
 Frequencies --    534.6396               584.2902               597.7542
 Red. masses --      4.4271                 4.0632                 4.1857
 Frc consts  --      0.7456                 0.8173                 0.8812
 IR Inten    --      1.0008                 9.1430                 3.0290

                     25                     26                     27
                      A                      A                      A
 Frequencies --    628.1350               690.6950               725.8820
 Red. masses --      4.0238                 4.5705                 2.6092
 Frc consts  --      0.9354                 1.2847                 0.8100
 IR Inten    --     27.8269                 3.5255                 9.0885

                     28                     29                     30
                      A                      A                      A
 Frequencies --    768.4258               794.6416               819.6218
 Red. masses --      3.3680                 1.7002                 1.9029
 Frc consts  --      1.1717                 0.6326                 0.7532
 IR Inten    --     41.2312                31.9672                 2.4480

                     31                     32                     33
                      A                      A                      A
 Frequencies --    853.8101               902.1924               913.3829
 Red. masses --      3.5535                 2.1214                 1.2974
 Frc consts  --      1.5263                 1.0173                 0.6377
 IR Inten    --      0.1951                 2.8605                 0.0960

                     34                     35                     36
                      A                      A                      A
 Frequencies --    931.5567               943.9457               960.4035
 Red. masses --      1.4245                 2.6719                 1.4297
 Frc consts  --      0.7283                 1.4027                 0.7770
 IR Inten    --     16.6993                11.2035                 8.7932

                     37                     38                     39
                      A                      A                      A
 Frequencies --    975.5363               979.9123               992.2258
 Red. masses --      1.3085                 2.1522                 2.8501
 Frc consts  --      0.7337                 1.2176                 1.6532
 IR Inten    --      0.1745                 5.8216                20.6159

                     40                     41                     42
                      A                      A                      A
 Frequencies --   1021.9333              1031.9500              1051.9095
 Red. masses --      5.9758                 1.5141                 3.1460
 Frc consts  --      3.6770                 0.9500                 2.0510
 IR Inten    --      0.5190                 5.2238                54.4728

                     43                     44                     45
                      A                      A                      A
 Frequencies --   1077.0265              1094.9705              1114.0734
 Red. masses --      1.5247                 3.5975                 2.3545
 Frc consts  --      1.0421                 2.5413                 1.7218
 IR Inten    --      7.3683                42.8761                29.1917

                     46                     47                     48
                      A                      A                      A
 Frequencies --   1134.3346              1135.7461              1151.2999
 Red. masses --      2.4919                 2.4312                 2.3381
 Frc consts  --      1.8892                 1.8477                 1.8260
 IR Inten    --     17.3010                56.0533                49.9323

                     49                     50                     51
                      A                      A                      A
 Frequencies --   1171.4848              1178.1623              1191.0275
 Red. masses --      2.2847                 1.7638                 1.4408
 Frc consts  --      1.8474                 1.4424                 1.2042
 IR Inten    --     29.0462                49.3309                 6.2039

                     52                     53                     54
                      A                      A                      A
 Frequencies --   1206.4764              1216.9990              1241.8047
 Red. masses --      1.1192                 1.4399                 1.6655
 Frc consts  --      0.9598                 1.2565                 1.5132
 IR Inten    --      0.4737                17.4992                35.6173

                     55                     56                     57
                      A                      A                      A
 Frequencies --   1261.3608              1272.4604              1281.6658
 Red. masses --      1.9840                 1.3845                 1.6306
 Frc consts  --      1.8598                 1.3208                 1.5781
 IR Inten    --     35.5833                 4.0166                 6.1129

                     58                     59                     60
                      A                      A                      A
 Frequencies --   1287.7957              1320.9868              1345.1104
 Red. masses --      1.5487                 1.3598                 1.4764
 Frc consts  --      1.5132                 1.3981                 1.5739
 IR Inten    --     29.6379                13.2463                20.4506

                     61                     62                     63
                      A                      A                      A
 Frequencies --   1362.7457              1364.6560              1368.6629
 Red. masses --      1.8722                 1.2909                 1.8275
 Frc consts  --      2.0485                 1.4165                 2.0169
 IR Inten    --      3.6908                 0.2887                12.3775

                     64                     65                     66
                      A                      A                      A
 Frequencies --   1386.7299              1410.1322              1436.6957
 Red. masses --      1.3270                 1.2830                 1.3205
 Frc consts  --      1.5035                 1.5032                 1.6059
 IR Inten    --     11.1931                 3.6957                14.0809

                     67                     68                     69
                      A                      A                      A
 Frequencies --   1442.1115              1450.2251              1485.7699
 Red. masses --      1.2494                 1.6733                 1.9421
 Frc consts  --      1.5309                 2.0735                 2.5260
 IR Inten    --      4.0857                54.6457                 3.6957

                     70                     71                     72
                      A                      A                      A
 Frequencies --   1507.5081              1518.1240              1518.4876
 Red. masses --      1.1467                 1.0523                 1.0761
 Frc consts  --      1.5354                 1.4289                 1.4619
 IR Inten    --      0.6273                 5.7292                 2.0919

                     73                     74                     75
                      A                      A                      A
 Frequencies --   1524.5623              1524.9725              1535.7612
 Red. masses --      1.3321                 1.1104                 1.0796
 Frc consts  --      1.8242                 1.5214                 1.5003
 IR Inten    --      5.7691                 5.1244                11.5223

                     76                     77                     78
                      A                      A                      A
 Frequencies --   1540.6677              1543.0348              1550.3671
 Red. masses --      1.5453                 1.2153                 1.0927
 Frc consts  --      2.1612                 1.7048                 1.5475
 IR Inten    --      3.7447                 9.6766                 5.5630

                     79                     80                     81
                      A                      A                      A
 Frequencies --   1649.1611              1667.8691              2993.3277
 Red. masses --      5.3966                 5.7959                 1.0845
 Frc consts  --      8.6476                 9.4995                 5.7252
 IR Inten    --      2.7662                11.8201                49.3908

                     82                     83                     84
                      A                      A                      A
 Frequencies --   3020.2606              3027.4383              3042.2206
 Red. masses --      1.0356                 1.0755                 1.0407
 Frc consts  --      5.5657                 5.8080                 5.6748
 IR Inten    --     33.8103                60.0605                29.6264

                     85                     86                     87
                      A                      A                      A
 Frequencies --   3052.3098              3066.0426              3072.5081
 Red. masses --      1.0637                 1.0868                 1.0934
 Frc consts  --      5.8389                 6.0194                 6.0814
 IR Inten    --     42.9603                19.6681                23.9348

                     88                     89                     90
                      A                      A                      A
 Frequencies --   3079.5527              3094.2031              3099.2205
 Red. masses --      1.0662                 1.1019                 1.0958
 Frc consts  --      5.9573                 6.2160                 6.2014
 IR Inten    --     39.8844                48.7651                22.4740

                     91                     92                     93
                      A                      A                      A
 Frequencies --   3127.7178              3128.4414              3134.2560
 Red. masses --      1.1054                 1.1024                 1.1007
 Frc consts  --      6.3712                 6.3569                 6.3710
 IR Inten    --     43.7905                15.8487                38.4466

                     94                     95                     96
                      A                      A                      A
 Frequencies --   3155.5301              3175.3350              3183.5657
 Red. masses --      1.0898                 1.0856                 1.0902
 Frc consts  --      6.3934                 6.4494                 6.5098
 IR Inten    --     11.7519                 0.6865                25.1615

                     97                     98                     99
                      A                      A                      A
 Frequencies --   3201.4785              3211.2323              3713.2149
 Red. masses --      1.0961                 1.0897                 1.0646
 Frc consts  --      6.6190                 6.6204                 8.6486
 IR Inten    --     26.4734                 2.7885                18.9385

 - Thermochemistry -
 -------------------
 Temperature   298.150 Kelvin.  Pressure   1.00000 Atm.
 Atom     1 has atomic number  6 and mass  12.00000

 Molecular mass:   221.14158 amu.
 Principal axes and moments of inertia in atomic units:
                           1         2         3
     Eigenvalues --  2574.418054241.514615226.77566
           X            0.99970  -0.01491   0.01933
           Y            0.01456   0.99974   0.01781
           Z           -0.01959  -0.01752   0.99965
 This molecule is an asymmetric top.
 Rotational symmetry number  1.
 Warning -- assumption of classical behavior for rotation
           may cause significant error
 Rotational temperatures (Kelvin)      0.03364     0.02042     0.01657
 Rotational constants (GHZ):           0.70103     0.42549     0.34529
 Zero-point vibrational energy     802612.7 (Joules/Mol)
                                  191.82903 (Kcal/Mol)
 Warning -- explicit consideration of  24 degrees of freedom as
           vibrations may cause significant error
 Vibrational temperatures:     36.21    39.62    68.89   111.88   130.66
          (Kelvin)            194.77   235.32   265.01   306.22   314.28
                              347.37   413.16   447.53   476.15   516.38
                              560.77   586.54   653.23   673.95   682.90
                              758.37   769.23   840.66   860.03   903.75
                              993.76  1044.38  1105.59  1143.31  1179.25
                             1228.44  1298.05  1314.15  1340.30  1358.13
                             1381.81  1403.58  1409.88  1427.59  1470.33
                             1484.75  1513.46  1549.60  1575.42  1602.90
                             1632.05  1634.09  1656.46  1685.51  1695.11
                             1713.62  1735.85  1750.99  1786.68  1814.82
                             1830.79  1844.03  1852.85  1900.61  1935.31
                             1960.69  1963.44  1969.20  1995.20  2028.87
                             2067.08  2074.88  2086.55  2137.69  2168.97
                             2184.24  2184.76  2193.51  2194.10  2209.62
                             2216.68  2220.08  2230.63  2372.77  2399.69
                             4306.73  4345.48  4355.81  4377.08  4391.59
                             4411.35  4420.65  4430.79  4451.87  4459.09
                             4500.09  4501.13  4509.50  4540.10  4568.60
                             4580.44  4606.21  4620.25  5342.49

 Zero-point correction=                           0.305699 (Hartree/Particle)
 Thermal correction to Energy=                    0.321349
 Thermal correction to Enthalpy=                  0.322293
 Thermal correction to Gibbs Free Energy=         0.261417
 Sum of electronic and zero-point Energies=           -711.749435
 Sum of electronic and thermal Energies=              -711.733785
 Sum of electronic and thermal Enthalpies=            -711.732841
 Sum of electronic and thermal Free Energies=         -711.793718

                     E (Thermal)             CV                S
                      KCal/Mol        Cal/Mol-Kelvin    Cal/Mol-Kelvin
 Total                  201.650             59.829            128.126
 Electronic               0.000              0.000              0.000
 Translational            0.889              2.981             42.084
 Rotational               0.889              2.981             32.412
 Vibrational            199.872             53.868             53.630
 Vibration     1          0.593              1.985              6.178
 Vibration     2          0.593              1.984              5.999
 Vibration     3          0.595              1.978              4.903
 Vibration     4          0.599              1.964              3.947
 Vibration     5          0.602              1.956              3.643
 Vibration     6          0.613              1.918              2.868
 Vibration     7          0.623              1.887              2.508
 Vibration     8          0.631              1.861              2.286
 Vibration     9          0.644              1.821              2.019
 Vibration    10          0.646              1.813              1.972
 Vibration    11          0.658              1.777              1.792
 Vibration    12          0.684              1.698              1.491
 Vibration    13          0.700              1.653              1.357
 Vibration    14          0.713              1.614              1.255
 Vibration    15          0.734              1.557              1.127
 Vibration    16          0.758              1.492              1.001
 Vibration    17          0.772              1.454              0.935
 Vibration    18          0.812              1.352              0.784
 Vibration    19          0.826              1.320              0.742
 Vibration    20          0.831              1.306              0.725
 Vibration    21          0.882              1.190              0.594
 Vibration    22          0.890              1.173              0.577
 Vibration    23          0.941              1.065              0.477
 Vibration    24          0.956              1.037              0.454

 Optimization completed.
    -- Stationary point found.
 Normal termination of Gaussian 16 at Thu Dec 10 23:46:31 2020.

 ----------------------------------------------------------------------
 # B3LYP/6-311++G(d,p) empiricaldispersion=gd3bj scf=xqc pop=npa geom=c
 heck
 ----------------------------------------------------------------------

 ---------------------------------------
 CID_147685755_JID_6519_Energie_neutraal
 ---------------------------------------
 Structure from the checkpoint file:  "JID_6519.chk"
 Charge =  0 Multiplicity = 1

 SCF Done:  E(RB3LYP) =  -712.258323293     A.U. after   14 cycles
 Normal termination of Gaussian 16 at Thu Dec 10 23:51:50 2020.

 ----------------------------------------------------------------------
 # B3LYP/6-311++G(d,p) empiricaldispersion=gd3bj scf=xqc pop=npa geom=c
 heck
 ----------------------------------------------------------------------

 -------------------------------------
 CID_147685755_JID_6519_Energie_kation
 -------------------------------------
 Structure from the checkpoint file:  "JID_6519.chk"
 Charge =  1 Multiplicity = 2

 SCF Done:  E(UB3LYP) =  -711.969658083     A.U. after   27 cycles
 Normal termination of Gaussian 16 at Fri Dec 11 00:05:55 2020.
 Gaussian 16:  ES64L-G16RevA.03 25-Dec-2016

 ----------------------------------------------------------------------
 # B3LYP/6-311++G(d,p) empiricaldispersion=gd3bj scf=xqc pop=npa geom=c
 heck
 ----------------------------------------------------------------------

 ------------------------------------
 CID_147685755_JID_6519_Energie_anion
 ------------------------------------
 Structure from the checkpoint file:  "JID_6519.chk"
 Charge = -1 Multiplicity = 2

                         Standard orientation:
 ---------------------------------------------------------------------
 Center     Atomic      Atomic             Coordinates (Angstroms)
 Number     Number       Type             X           Y           Z
 ---------------------------------------------------------------------
      1          6           0        3.714642   -0.463120    1.625614
      2          6           0        2.731130   -0.470674    0.480232
      3          6           0        1.877500    0.615461    0.265859
      4          6           0        0.938286    0.614096   -0.771841
      5          6           0        0.895784   -0.480637   -1.641919
      6          6           0        1.742222   -1.571893   -1.443010
      7          6           0        2.645303   -1.571839   -0.382266
      8          6           0       -0.079530    1.731762   -0.923004
      9          7           0       -1.321557    1.559099   -0.159108
     10          6           0       -1.160717    1.337096    1.296868
     11          6           0       -1.510340   -0.131879    1.534897
     12          6           0       -2.671285   -0.322682    0.547184
     13          6           0       -2.239662    0.527249   -0.676316
     14          8           0       -3.061822   -1.645798    0.222609
     15          6           0       -2.019253   -2.553343   -0.085205
     16          8           0        0.527419    2.944806   -0.528322
     17          1           0        3.931311    0.557203    1.957003
     18          1           0        3.320074   -1.012579    2.490536
     19          1           0        4.660922   -0.938236    1.345163
     20          1           0        1.957748    1.493902    0.897644
     21          1           0        0.214556   -0.471931   -2.488768
     22          1           0        1.706374   -2.416709   -2.125492
     23          1           0        3.306288   -2.422311   -0.232936
     24          1           0       -0.394622    1.770841   -1.977491
     25          1           0       -1.861166    1.989963    1.836017
     26          1           0       -0.154120    1.606884    1.616997
     27          1           0       -0.655962   -0.756908    1.256197
     28          1           0       -1.789790   -0.359503    2.568179
     29          1           0       -3.575768    0.116022    0.982898
     30          1           0       -1.744409   -0.123472   -1.404984
     31          1           0       -3.106636    0.978251   -1.173092
     32          1           0       -1.309304   -2.155517   -0.822787
     33          1           0       -1.452270   -2.849193    0.808469
     34          1           0       -2.501264   -3.440934   -0.503396
     35          1           0       -0.210301    3.570893   -0.433252
 ---------------------------------------------------------------------

 SCF Done:  E(UB3LYP) =  -712.244841961     A.U. after   33 cycles
 SCF Done:  E(UB3LYP) =  -712.244841961     a.u. after    1 cycles

 The electronic state is 2-A.
 Alpha  occ. eigenvalues --  -19.03278 -19.03255 -14.21485 -10.15963 -10.12962
 Alpha  occ. eigenvalues --  -10.11433 -10.09865 -10.09748 -10.08960 -10.08537
 Alpha  occ. eigenvalues --  -10.08028 -10.07881 -10.07649 -10.07460 -10.07394
 Alpha  occ. eigenvalues --  -10.07093  -0.94742  -0.94333  -0.83124  -0.76621
 Alpha  occ. eigenvalues --   -0.69433  -0.67656  -0.65812  -0.63957  -0.59619
 Alpha  occ. eigenvalues --   -0.59437  -0.57100  -0.50931  -0.50490  -0.48069
 Alpha  occ. eigenvalues --   -0.47217  -0.43330  -0.42321  -0.41411  -0.39710
 Alpha  occ. eigenvalues --   -0.37738  -0.36377  -0.35958  -0.35111  -0.34502
 Alpha  occ. eigenvalues --   -0.33911  -0.32753  -0.32325  -0.31548  -0.30227
 Alpha  occ. eigenvalues --   -0.29440  -0.28712  -0.27854  -0.27192  -0.26795
 Alpha  occ. eigenvalues --   -0.26466  -0.25411  -0.24815  -0.24547  -0.21437
 Alpha  occ. eigenvalues --   -0.19701  -0.16761  -0.15998  -0.15169  -0.12580
 Alpha  occ. eigenvalues --    0.04183
 Alpha virt. eigenvalues --    0.06056   0.06538   0.07214   0.07413   0.07829
 Alpha virt. eigenvalues --    0.08203   0.08528   0.08858   0.09296   0.10218
 Alpha virt. eigenvalues --    0.10680   0.10939   0.11731   0.11907   0.12045

  Beta  occ. eigenvalues --  -19.03263 -19.03251 -14.21486 -10.15954 -10.12956
  Beta  occ. eigenvalues --  -10.11413 -10.09855 -10.09727 -10.08955 -10.08539
  Beta  occ. eigenvalues --  -10.08013 -10.07868 -10.07634 -10.07447 -10.07366
  Beta  occ. eigenvalues --  -10.07079  -0.94713  -0.94319  -0.83111  -0.76600
  Beta  occ. eigenvalues --   -0.69409  -0.67629  -0.65786  -0.63927  -0.59578
  Beta  occ. eigenvalues --   -0.59400  -0.57063  -0.50895  -0.50449  -0.48040
  Beta  occ. eigenvalues --   -0.47178  -0.43305  -0.42290  -0.41367  -0.39676
  Beta  occ. eigenvalues --   -0.37721  -0.36348  -0.35927  -0.35091  -0.34473
  Beta  occ. eigenvalues --   -0.33890  -0.32715  -0.32302  -0.31515  -0.30204
  Beta  occ. eigenvalues --   -0.29410  -0.28681  -0.27834  -0.27168  -0.26768
  Beta  occ. eigenvalues --   -0.26442  -0.25388  -0.24787  -0.24523  -0.21417
  Beta  occ. eigenvalues --   -0.19681  -0.16748  -0.15980  -0.15135  -0.12568
  Beta virt. eigenvalues --    0.06236   0.06926   0.07221   0.07514   0.07676
  Beta virt. eigenvalues --    0.07951   0.08757   0.08928   0.09391   0.09670
  Beta virt. eigenvalues --    0.10522   0.10994   0.11406   0.12008   0.12324

 Mulliken charges and spin densities:
               1          2
     1  C    1.349232  -1.920632
     2  C   -0.616068   0.906999
     3  C   -0.528088   0.294579
     4  C    0.248066   0.432014
     5  C   -0.679992   0.465376
     6  C    0.429574  -0.660722
     7  C    0.503332  -0.972754
     8  C    0.159751  -1.101499
     9  N    0.081996   0.073386
    10  C    0.306347  -0.292576
    11  C    0.240935  -0.453072
    12  C   -1.212376   0.425376
    13  C    0.465700  -0.633364
    14  O   -0.078993   0.018854
    15  C    0.227896  -0.520269
    16  O   -0.196259   0.024722
    17  H   -0.100996   0.241509
    18  H   -0.268991   0.457794
    19  H   -0.091774   0.231838
    20  H    0.189556   0.031070
    21  H   -0.188923   0.337869
    22  H   -0.618816   0.805227
    23  H   -0.528722   0.702635
    24  H   -0.114265   0.315442
    25  H   -0.264752   0.448520
    26  H   -0.127072   0.250384
    27  H    0.858420  -0.714912
    28  H   -0.192253   0.387842
    29  H    0.036204   0.169434
    30  H    0.208967  -0.072900
    31  H   -0.194006   0.355822
    32  H    0.034698   0.074824
    33  H   -0.258812   0.400003
    34  H   -0.101106   0.257122
    35  H    0.021589   0.234056
 Sum of Mulliken charges =  -1.00000   1.00000

 Dipole moment (field-independent basis, Debye):
    X=             -1.6002    Y=              2.1937    Z=             -0.4422  Tot=              2.7511
 Quadrupole moment (field-independent basis, Debye-Ang):
   XX=           -160.3021   YY=           -153.8526   ZZ=           -140.9228
   XY=              6.8752   XZ=              0.2465   YZ=             -1.4377

 Summary of Natural Population Analysis:

                                       Natural Population
                Natural  -----------------------------------------------
    Atom  No    Charge         Core      Valence    Rydberg      Total
 -----------------------------------------------------------------------
      C    1   -0.29274      0.99964     2.28733    0.00578     3.29274
      C    2   -0.01323      0.99952     2.00413    0.00958     3.01323
      C    3   -0.09925      0.99946     2.09062    0.00917     3.09925
      C    4   -0.03205      0.99947     2.02081    0.01177     3.03205
      C    5   -0.10848      0.99951     2.09849    0.01048     3.10848
      C    6   -0.09500      0.99956     2.08447    0.01097     3.09500
      C    7   -0.10139      0.99951     2.09164    0.01024     3.10139
      C    8    0.16055      0.99951     1.82287    0.01707     2.83945
      N    9   -0.29156      0.99972     2.77661    0.01522     3.79156
      C   10   -0.08737      0.99961     2.07643    0.01132     3.08737
      C   11   -0.21485      0.99961     2.20777    0.00748     3.21485
      C   12    0.06801      0.99952     1.91821    0.01426     2.93199
      C   13   -0.09805      0.99959     2.08747    0.01099     3.09805
      O   14   -0.29891      0.99988     3.28928    0.00976     4.29891
      C   15   -0.10241      0.99960     2.09340    0.00942     3.10241
      O   16   -0.37049      0.99989     3.36432    0.00628     4.37049
      H   17    0.10182      0.00000     0.39730    0.00088     0.39818
      H   18    0.10749      0.00000     0.39124    0.00127     0.39251
      H   19    0.10300      0.00000     0.39605    0.00095     0.39700
      H   20    0.10761      0.00000     0.39090    0.00149     0.39239
      H   21    0.10134      0.00000     0.39724    0.00142     0.39866
      H   22    0.10279      0.00000     0.39566    0.00155     0.39721
      H   23    0.10165      0.00000     0.39689    0.00146     0.39835
      H   24    0.08041      0.00000     0.41749    0.00210     0.41959
      H   25    0.09192      0.00000     0.40642    0.00166     0.40808
      H   26    0.10562      0.00000     0.39292    0.00146     0.39438
      H   27    0.10418      0.00000     0.39303    0.00279     0.39582
      H   28    0.10343      0.00000     0.39548    0.00109     0.39657
      H   29    0.08936      0.00000     0.40893    0.00171     0.41064
      H   30    0.09495      0.00000     0.40308    0.00197     0.40505
      H   31    0.09509      0.00000     0.40351    0.00139     0.40491
      H   32    0.08326      0.00000     0.41500    0.00175     0.41674
      H   33    0.08135      0.00000     0.41736    0.00129     0.41865
      H   34    0.08919      0.00000     0.40984    0.00097     0.41081
      H   35    0.23272      0.00000     0.26345    0.00382     0.26728
 =======================================================================
   * Total *    0.00000     15.99359    43.80564    0.20077    60.00000

 Normal termination of Gaussian 16 at Fri Dec 11 00:22:30 2020.
