 Gaussian 16, Revision A.03,

 -----------------------------------------------------------
 # opt freq B3LYP/6-31G(d) empiricaldispersion=gd3bj scf=xqc
 -----------------------------------------------------------

 -------------------------------
 CID_118327878_JID_1774_neutraal
 -------------------------------
 Symbolic Z-matrix:
 Charge =  0 Multiplicity = 1

 SCF Done:  E(RB3LYP) =  -552.385856566     A.U. after   13 cycles
 SCF Done:  E(RB3LYP) =  -552.393037837     A.U. after   13 cycles
 SCF Done:  E(RB3LYP) =  -552.389984952     A.U. after   14 cycles
 SCF Done:  E(RB3LYP) =  -552.390208717     A.U. after   13 cycles
 SCF Done:  E(RB3LYP) =  -552.394536807     A.U. after   11 cycles
 SCF Done:  E(RB3LYP) =  -552.396471509     A.U. after   12 cycles
 SCF Done:  E(RB3LYP) =  -552.397073541     A.U. after   11 cycles
 SCF Done:  E(RB3LYP) =  -552.397302545     A.U. after   11 cycles
 SCF Done:  E(RB3LYP) =  -552.397444848     A.U. after   11 cycles
 SCF Done:  E(RB3LYP) =  -552.397548532     A.U. after   11 cycles
 SCF Done:  E(RB3LYP) =  -552.398205399     A.U. after   10 cycles
 SCF Done:  E(RB3LYP) =  -552.398213325     A.U. after   10 cycles
 SCF Done:  E(RB3LYP) =  -552.398214284     A.U. after    8 cycles
 SCF Done:  E(RB3LYP) =  -552.398214962     A.U. after    8 cycles
 SCF Done:  E(RB3LYP) =  -552.398215103     A.U. after    8 cycles
 SCF Done:  E(RB3LYP) =  -552.398215223     A.U. after    7 cycles
 Optimization completed.
    -- Stationary point found.
 Normal termination of Gaussian 16 at Tue Dec  8 21:20:28 2020.

 --------------------------------------------------------------------
 #N Geom=AllCheck Guess=TCheck SCRF=Check GenChk RB3LYP/6-31G(d) Freq
 --------------------------------------------------------------------

 Structure from the checkpoint file:  "JID_1774.chk"
 -------------------------------
 CID_118327878_JID_1774_neutraal
 -------------------------------
 Charge =  0 Multiplicity = 1

 SCF Done:  E(RB3LYP) =  -552.398215223     A.U. after    1 cycles

  Exact polarizability: 104.626  -3.870 102.198  -0.034   4.706  69.201
 Approx polarizability: 129.411  -3.778 145.189  -2.534  11.133 105.116

                      1                      2                      3
                      A                      A                      A
 Frequencies --     53.7444                72.0767                94.5386
 Red. masses --      4.6198                 3.5759                 4.1656
 Frc consts  --      0.0079                 0.0109                 0.0219
 IR Inten    --      0.7207                 1.5559                 1.4995

                      4                      5                      6
                      A                      A                      A
 Frequencies --    134.3368               169.6292               175.6864
 Red. masses --      3.6038                 3.6656                 4.2487
 Frc consts  --      0.0383                 0.0621                 0.0773
 IR Inten    --      1.4294                 2.4394                 9.7277

                      7                      8                      9
                      A                      A                      A
 Frequencies --    205.9611               249.1804               282.0745
 Red. masses --      2.6353                 1.0966                 2.5539
 Frc consts  --      0.0659                 0.0401                 0.1197
 IR Inten    --      4.8581                 0.4519                 3.3140

                     10                     11                     12
                      A                      A                      A
 Frequencies --    324.1705               368.0489               374.6691
 Red. masses --      2.4801                 2.3165                 1.1788
 Frc consts  --      0.1536                 0.1849                 0.0975
 IR Inten    --      7.0054                10.3208                56.0632

                     13                     14                     15
                      A                      A                      A
 Frequencies --    403.7946               449.4694               469.6296
 Red. masses --      2.4983                 1.9166                 1.7724
 Frc consts  --      0.2400                 0.2281                 0.2303
 IR Inten    --      7.7742                23.3604                27.4366

                     16                     17                     18
                      A                      A                      A
 Frequencies --    502.2822               525.0575               560.7884
 Red. masses --      2.2281                 2.6697                 2.8646
 Frc consts  --      0.3312                 0.4336                 0.5308
 IR Inten    --     13.5156                 3.5526                19.2133

                     19                     20                     21
                      A                      A                      A
 Frequencies --    628.4166               632.3833               675.8460
 Red. masses --      2.9126                 1.3859                 2.6751
 Frc consts  --      0.6777                 0.3265                 0.7199
 IR Inten    --    102.1124               199.6698                44.6998

                     22                     23                     24
                      A                      A                      A
 Frequencies --    777.0008               817.6698               853.3429
 Red. masses --      1.7740                 1.7048                 2.5044
 Frc consts  --      0.6310                 0.6715                 1.0745
 IR Inten    --     17.2954               182.5723                60.4839

                     25                     26                     27
                      A                      A                      A
 Frequencies --    869.3604               886.2903               918.6554
 Red. masses --      2.1151                 2.1921                 1.9809
 Frc consts  --      0.9418                 1.0145                 0.9849
 IR Inten    --     27.7649                36.7035                25.4294

                     28                     29                     30
                      A                      A                      A
 Frequencies --    949.8856              1016.2879              1057.3401
 Red. masses --      1.9106                 2.4213                 2.8654
 Frc consts  --      1.0157                 1.4734                 1.8874
 IR Inten    --    139.3933                50.8699                18.3991

                     31                     32                     33
                      A                      A                      A
 Frequencies --   1066.5030              1089.8093              1101.8165
 Red. masses --      2.3590                 1.8423                 2.2069
 Frc consts  --      1.5809                 1.2892                 1.5785
 IR Inten    --     37.6868                31.0666                51.1887

                     34                     35                     36
                      A                      A                      A
 Frequencies --   1121.7779              1134.4185              1140.0564
 Red. masses --      1.8509                 1.6660                 2.8031
 Frc consts  --      1.3723                 1.2632                 2.1466
 IR Inten    --     65.4381                53.4953               123.0904

                     37                     38                     39
                      A                      A                      A
 Frequencies --   1167.6303              1242.9946              1275.1639
 Red. masses --      2.2702                 1.3554                 1.3148
 Frc consts  --      1.8235                 1.2338                 1.2596
 IR Inten    --     38.4783                20.4058                 6.4670

                     40                     41                     42
                      A                      A                      A
 Frequencies --   1301.1854              1334.5451              1357.8246
 Red. masses --      1.3883                 1.1129                 1.3486
 Frc consts  --      1.3849                 1.1678                 1.4650
 IR Inten    --     13.5784                 6.3072                 3.2599

                     43                     44                     45
                      A                      A                      A
 Frequencies --   1366.5350              1381.2385              1416.7239
 Red. masses --      1.2981                 1.2169                 1.3481
 Frc consts  --      1.4282                 1.3678                 1.5942
 IR Inten    --      5.0152                42.2282                23.0581

                     46                     47                     48
                      A                      A                      A
 Frequencies --   1430.5730              1434.1010              1450.2679
 Red. masses --      1.3680                 2.1265                 1.4050
 Frc consts  --      1.6496                 2.5768                 1.7411
 IR Inten    --     38.5886                69.4859                17.7085

                     49                     50                     51
                      A                      A                      A
 Frequencies --   1471.1082              1516.4241              1517.9902
 Red. masses --      1.2128                 1.0802                 1.0493
 Frc consts  --      1.5464                 1.4635                 1.4246
 IR Inten    --     46.0657                 5.6898                 0.6963

                     52                     53                     54
                      A                      A                      A
 Frequencies --   1522.4836              1533.0363              1557.7472
 Red. masses --      1.0586                 1.0901                 1.0898
 Frc consts  --      1.4457                 1.5095                 1.5580
 IR Inten    --      5.0043                 1.5450                13.2588

                     55                     56                     57
                      A                      A                      A
 Frequencies --   1665.2066              1721.5367              1768.0055
 Red. masses --      1.1915                 1.1894                 4.1410
 Frc consts  --      1.9466                 2.0769                 7.6264
 IR Inten    --     66.2722                62.1216               302.2272

                     58                     59                     60
                      A                      A                      A
 Frequencies --   3032.9239              3036.4063              3056.6354
 Red. masses --      1.0637                 1.0603                 1.0649
 Frc consts  --      5.7651                 5.7598                 5.8620
 IR Inten    --     20.7257                44.9287                22.0663

                     61                     62                     63
                      A                      A                      A
 Frequencies --   3060.2023              3064.2920              3075.1018
 Red. masses --      1.0498                 1.0720                 1.0991
 Frc consts  --      5.7922                 5.9306                 6.1234
 IR Inten    --     12.1717                56.4497                18.8958

                     64                     65                     66
                      A                      A                      A
 Frequencies --   3089.6921              3101.1407              3133.0569
 Red. masses --      1.1048                 1.1025                 1.0997
 Frc consts  --      6.2139                 6.2471                 6.3600
 IR Inten    --     35.8402                57.5019                36.6714

                     67                     68                     69
                      A                      A                      A
 Frequencies --   3152.3556              3424.4538              3518.2580
 Red. masses --      1.1041                 1.0604                 1.0494
 Frc consts  --      6.4644                 7.3264                 7.6530
 IR Inten    --     17.1647               229.3555                 6.8321

                     70                     71                     72
                      A                      A                      A
 Frequencies --   3570.9038              3624.0797              3642.3467
 Red. masses --      1.0868                 1.0949                 1.0660
 Frc consts  --      8.1651                 8.4726                 8.3326
 IR Inten    --     38.7171                11.9834                95.9314

 - Thermochemistry -
 -------------------
 Temperature   298.150 Kelvin.  Pressure   1.00000 Atm.
 Atom     1 has atomic number  6 and mass  12.00000

 Molecular mass:   161.11643 amu.
 Principal axes and moments of inertia in atomic units:
                           1         2         3
     Eigenvalues --  1157.922722538.323653161.02889
           X            0.99997   0.00460   0.00640
           Y           -0.00468   0.99992   0.01165
           Z           -0.00635  -0.01168   0.99991
 This molecule is an asymmetric top.
 Rotational symmetry number  1.
 Warning -- assumption of classical behavior for rotation
           may cause significant error
 Rotational temperatures (Kelvin)      0.07480     0.03412     0.02740
 Rotational constants (GHZ):           1.55860     0.71100     0.57093
 Zero-point vibrational energy     605108.1 (Joules/Mol)
                                  144.62430 (Kcal/Mol)
 Warning -- explicit consideration of  18 degrees of freedom as
           vibrations may cause significant error
 Vibrational temperatures:     77.33   103.70   136.02   193.28   244.06
          (Kelvin)            252.77   296.33   358.52   405.84   466.41
                              529.54   539.07   580.97   646.69   675.69
                              722.67   755.44   806.85   904.15   909.86
                              972.39  1117.93  1176.44  1227.77  1250.82
                             1275.17  1321.74  1366.67  1462.21  1521.28
                             1534.46  1567.99  1585.27  1613.99  1632.18
                             1640.29  1679.96  1788.39  1834.68  1872.12
                             1920.11  1953.61  1966.14  1987.29  2038.35
                             2058.28  2063.35  2086.61  2116.60  2181.80
                             2184.05  2190.51  2205.70  2241.25  2395.86
                             2476.91  2543.77  4363.70  4368.71  4397.82
                             4402.95  4408.83  4424.39  4445.38  4461.85
                             4507.77  4535.54  4927.03  5061.99  5137.73
                             5214.24  5240.52

 Zero-point correction=                           0.230473 (Hartree/Particle)
 Thermal correction to Energy=                    0.242733
 Thermal correction to Enthalpy=                  0.243678
 Thermal correction to Gibbs Free Energy=         0.192375
 Sum of electronic and zero-point Energies=           -552.167742
 Sum of electronic and thermal Energies=              -552.155482
 Sum of electronic and thermal Enthalpies=            -552.154538
 Sum of electronic and thermal Free Energies=         -552.205840

                     E (Thermal)             CV                S
                      KCal/Mol        Cal/Mol-Kelvin    Cal/Mol-Kelvin
 Total                  152.318             46.301            107.976
 Electronic               0.000              0.000              0.000
 Translational            0.889              2.981             41.140
 Rotational               0.889              2.981             30.608
 Vibrational            150.540             40.340             36.227
 Vibration     1          0.596              1.976              4.675
 Vibration     2          0.598              1.967              4.096
 Vibration     3          0.603              1.953              3.564
 Vibration     4          0.613              1.919              2.883
 Vibration     5          0.625              1.880              2.440
 Vibration     6          0.628              1.872              2.374
 Vibration     7          0.640              1.831              2.079
 Vibration     8          0.662              1.764              1.736
 Vibration     9          0.681              1.707              1.521
 Vibration    10          0.709              1.627              1.289
 Vibration    11          0.741              1.538              1.088
 Vibration    12          0.746              1.524              1.061
 Vibration    13          0.769              1.462              0.949
 Vibration    14          0.808              1.362              0.797
 Vibration    15          0.827              1.317              0.739
 Vibration    16          0.858              1.245              0.652
 Vibration    17          0.880              1.195              0.598
 Vibration    18          0.916              1.116              0.522

 Optimization completed.
    -- Stationary point found.
 Normal termination of Gaussian 16 at Tue Dec  8 21:26:52 2020.

 ----------------------------------------------------------------------
 # B3LYP/6-311++G(d,p) empiricaldispersion=gd3bj scf=xqc pop=npa geom=c
 heck
 ----------------------------------------------------------------------

 ---------------------------------------
 CID_118327878_JID_1774_Energie_neutraal
 ---------------------------------------
 Structure from the checkpoint file:  "JID_1774.chk"
 Charge =  0 Multiplicity = 1

 SCF Done:  E(RB3LYP) =  -552.582634367     A.U. after   13 cycles
 Normal termination of Gaussian 16 at Tue Dec  8 21:29:55 2020.

 ----------------------------------------------------------------------
 # B3LYP/6-311++G(d,p) empiricaldispersion=gd3bj scf=xqc pop=npa geom=c
 heck
 ----------------------------------------------------------------------

 -------------------------------------
 CID_118327878_JID_1774_Energie_kation
 -------------------------------------
 Structure from the checkpoint file:  "JID_1774.chk"
 Charge =  1 Multiplicity = 2

 SCF Done:  E(UB3LYP) =  -552.277640941     A.U. after   23 cycles
 Normal termination of Gaussian 16 at Tue Dec  8 21:36:31 2020.
 Gaussian 16:  ES64L-G16RevA.03 25-Dec-2016

 ----------------------------------------------------------------------
 # B3LYP/6-311++G(d,p) empiricaldispersion=gd3bj scf=xqc pop=npa geom=c
 heck
 ----------------------------------------------------------------------

 ------------------------------------
 CID_118327878_JID_1774_Energie_anion
 ------------------------------------
 Structure from the checkpoint file:  "JID_1774.chk"
 Charge = -1 Multiplicity = 2

                         Standard orientation:
 ---------------------------------------------------------------------
 Center     Atomic      Atomic             Coordinates (Angstroms)
 Number     Number       Type             X           Y           Z
 ---------------------------------------------------------------------
      1          6           0       -2.777395   -1.592542   -0.439421
      2          6           0       -2.320076   -0.297920    0.213783
      3          8           0       -1.694750   -0.511386    1.456538
      4          8           0       -1.454642    0.343849   -0.714227
      5          6           0       -1.163950    1.731516   -0.465463
      6          6           0        0.343438    1.956986   -0.524579
      7          6           0        1.088627    1.382964    0.713812
      8          7           0        2.291634    0.621212    0.410739
      9          6           0        2.150689   -0.574352   -0.021662
     10          7           0        0.943136   -1.268550   -0.223168
     11          7           0        3.283995   -1.330216   -0.354091
     12          1           0       -1.913652   -2.234808   -0.647413
     13          1           0       -3.291661   -1.390290   -1.383307
     14          1           0       -3.452585   -2.127791    0.233647
     15          1           0       -3.172371    0.356059    0.435136
     16          1           0       -0.910984   -1.070676    1.293188
     17          1           0       -1.680979    2.321508   -1.233281
     18          1           0       -1.556183    2.020290    0.516753
     19          1           0        0.729773    1.499644   -1.443096
     20          1           0        0.532203    3.033121   -0.618380
     21          1           0        1.388655    2.216042    1.358147
     22          1           0        0.378902    0.784814    1.302751
     23          1           0        1.052252   -2.034812   -0.880921
     24          1           0        0.178072   -0.664586   -0.530755
     25          1           0        4.117287   -0.872116   -0.000351
     26          1           0        3.237053   -2.293134   -0.033784
 ---------------------------------------------------------------------

 SCF Done:  E(UB3LYP) =  -552.568329162     A.U. after   31 cycles

 The electronic state is 2-A.
 Alpha  occ. eigenvalues --  -19.03885 -19.02992 -14.21216 -14.20777 -14.16566
 Alpha  occ. eigenvalues --  -10.17618 -10.15702 -10.12517 -10.08558 -10.07258
 Alpha  occ. eigenvalues --  -10.06302  -0.97465  -0.90965  -0.86739  -0.76367
 Alpha  occ. eigenvalues --   -0.75967  -0.68595  -0.64138  -0.57880  -0.53209
 Alpha  occ. eigenvalues --   -0.50736  -0.47277  -0.43752  -0.42155  -0.41704
 Alpha  occ. eigenvalues --   -0.39154  -0.37548  -0.35948  -0.34344  -0.34140
 Alpha  occ. eigenvalues --   -0.33010  -0.30925  -0.30685  -0.29097  -0.28321
 Alpha  occ. eigenvalues --   -0.26778  -0.25357  -0.25082  -0.22411  -0.20608
 Alpha  occ. eigenvalues --   -0.18423  -0.17332  -0.14531  -0.12444   0.04627
 Alpha virt. eigenvalues --    0.06330   0.07377   0.08555   0.08860   0.09800
 Alpha virt. eigenvalues --    0.10511   0.11023   0.11293   0.11837   0.12620
 Alpha virt. eigenvalues --    0.13320   0.14086   0.14939   0.15396   0.16056

  Beta  occ. eigenvalues --  -19.03871 -19.02983 -14.21167 -14.20719 -14.16558
  Beta  occ. eigenvalues --  -10.17606 -10.15699 -10.12502 -10.08554 -10.07250
  Beta  occ. eigenvalues --  -10.06259  -0.97446  -0.90945  -0.86695  -0.76298
  Beta  occ. eigenvalues --   -0.75904  -0.68566  -0.64094  -0.57837  -0.53146
  Beta  occ. eigenvalues --   -0.50697  -0.47222  -0.43723  -0.42101  -0.41614
  Beta  occ. eigenvalues --   -0.39112  -0.37494  -0.35898  -0.34308  -0.34085
  Beta  occ. eigenvalues --   -0.32982  -0.30896  -0.30653  -0.29055  -0.28286
  Beta  occ. eigenvalues --   -0.26737  -0.25339  -0.25054  -0.22360  -0.20583
  Beta  occ. eigenvalues --   -0.18395  -0.17277  -0.14510  -0.12418
  Beta virt. eigenvalues --    0.06909   0.07811   0.08022   0.08971   0.09390
  Beta virt. eigenvalues --    0.10573   0.10907   0.11385   0.11513   0.12350
  Beta virt. eigenvalues --    0.13162   0.13674   0.14184   0.15285   0.15503

 Mulliken charges and spin densities:
               1          2
     1  C    1.753970  -2.116425
     2  C   -1.053392   0.688197
     3  O   -0.180999   0.003556
     4  O   -0.123625   0.006986
     5  C    0.258610  -0.495126
     6  C   -0.322172   0.098658
     7  C    0.174382  -0.606038
     8  N   -0.134666  -0.028909
     9  C    0.401697  -0.521251
    10  N   -0.306215  -0.122949
    11  N   -0.356492   0.098904
    12  H   -0.479686   0.620667
    13  H   -0.290632   0.461890
    14  H   -0.198576   0.355055
    15  H   -0.427192   0.575993
    16  H    0.318194  -0.042283
    17  H   -0.399296   0.569707
    18  H    0.170696  -0.032927
    19  H    0.133515   0.084071
    20  H   -0.044954   0.172681
    21  H    0.167262   0.012901
    22  H   -0.068022   0.191598
    23  H   -0.301205   0.570390
    24  H    0.719492  -0.453321
    25  H    0.050522   0.199279
    26  H   -0.461216   0.708696
 Sum of Mulliken charges =  -1.00000   1.00000

 Dipole moment (field-independent basis, Debye):
    X=             -0.5466    Y=              5.3646    Z=              1.7028  Tot=              5.6548
 Quadrupole moment (field-independent basis, Debye-Ang):
   XX=           -133.7498   YY=           -115.7329   ZZ=            -98.0889
   XY=              5.9770   XZ=             -3.5499   YZ=             -1.8707

 Summary of Natural Population Analysis:

                                       Natural Population
                Natural  -----------------------------------------------
    Atom  No    Charge         Core      Valence    Rydberg      Total
 -----------------------------------------------------------------------
      C    1   -0.30126      0.99963     2.29528    0.00635     3.30126
      C    2    0.21688      0.99962     1.76463    0.01887     2.78312
      O    3   -0.37658      0.99989     3.37067    0.00601     4.37658
      O    4   -0.31896      0.99987     3.30823    0.01086     4.31896
      C    5   -0.00815      0.99957     1.99658    0.01200     3.00815
      C    6   -0.21024      0.99962     2.20234    0.00829     3.21024
      C    7   -0.10586      0.99961     2.09454    0.01171     3.10586
      N    8   -0.30594      0.99964     2.79552    0.01078     3.80594
      C    9    0.30587      0.99962     1.67717    0.01735     2.69413
      N   10   -0.43941      0.99970     2.92790    0.01181     3.93941
      N   11   -0.40929      0.99972     2.89895    0.01061     3.90929
      H   12    0.10374      0.00000     0.39424    0.00202     0.39626
      H   13    0.10632      0.00000     0.39182    0.00186     0.39368
      H   14    0.10353      0.00000     0.39528    0.00119     0.39647
      H   15    0.07415      0.00000     0.42435    0.00151     0.42585
      H   16    0.23791      0.00000     0.25867    0.00341     0.26209
      H   17    0.08659      0.00000     0.41206    0.00135     0.41341
      H   18    0.08538      0.00000     0.41312    0.00150     0.41462
      H   19    0.10333      0.00000     0.39542    0.00124     0.39667
      H   20    0.09929      0.00000     0.39969    0.00101     0.40071
      H   21    0.09093      0.00000     0.40775    0.00132     0.40907
      H   22    0.09087      0.00000     0.40701    0.00212     0.40913
      H   23    0.19319      0.00000     0.30259    0.00422     0.30681
      H   24    0.20039      0.00000     0.29592    0.00369     0.29961
      H   25    0.18874      0.00000     0.30862    0.00264     0.31126
      H   26    0.18860      0.00000     0.30271    0.00869     0.31140
 =======================================================================
   * Total *    0.00000     10.99649    32.84108    0.16242    44.00000

 Normal termination of Gaussian 16 at Tue Dec  8 21:44:52 2020.
