 Gaussian 16, Revision A.03,

 -----------------------------------------------------------
 # opt freq B3LYP/6-31G(d) empiricaldispersion=gd3bj scf=xqc
 -----------------------------------------------------------

 -------------------------------
 CID_130821117_JID_4174_neutraal
 -------------------------------
 Symbolic Z-matrix:
 Charge =  0 Multiplicity = 1

 SCF Done:  E(RB3LYP) =  -991.094826365     A.U. after   15 cycles
 SCF Done:  E(RB3LYP) =  -991.103607794     A.U. after   13 cycles
 SCF Done:  E(RB3LYP) =  -991.104833864     A.U. after   12 cycles
 SCF Done:  E(RB3LYP) =  -991.105493031     A.U. after   12 cycles
 SCF Done:  E(RB3LYP) =  -991.105941806     A.U. after   12 cycles
 SCF Done:  E(RB3LYP) =  -991.106378153     A.U. after   12 cycles
 SCF Done:  E(RB3LYP) =  -991.106867416     A.U. after   13 cycles
 SCF Done:  E(RB3LYP) =  -991.106989099     A.U. after   13 cycles
 SCF Done:  E(RB3LYP) =  -991.107441528     A.U. after   11 cycles
 SCF Done:  E(RB3LYP) =  -991.108604030     A.U. after   13 cycles
 SCF Done:  E(RB3LYP) =  -991.110266954     A.U. after   12 cycles
 SCF Done:  E(RB3LYP) =  -991.110320914     A.U. after   11 cycles
 SCF Done:  E(RB3LYP) =  -991.110323341     A.U. after   11 cycles
 SCF Done:  E(RB3LYP) =  -991.110327095     A.U. after   10 cycles
 SCF Done:  E(RB3LYP) =  -991.110327390     A.U. after    8 cycles
 Optimization completed.
    -- Stationary point found.
 Normal termination of Gaussian 16 at Thu Dec 10 09:21:38 2020.

 --------------------------------------------------------------------
 #N Geom=AllCheck Guess=TCheck SCRF=Check GenChk RB3LYP/6-31G(d) Freq
 --------------------------------------------------------------------

 Structure from the checkpoint file:  "JID_4174.chk"
 -------------------------------
 CID_130821117_JID_4174_neutraal
 -------------------------------
 Charge =  0 Multiplicity = 1

 SCF Done:  E(RB3LYP) =  -991.110327389     A.U. after    1 cycles

  Exact polarizability: 193.923  11.951 152.301   9.802  -1.834  65.050
 Approx polarizability: 312.090  25.212 259.235  21.791  -6.811  99.568

                      1                      2                      3
                      A                      A                      A
 Frequencies --     31.8106                83.8184               118.9569
 Red. masses --      3.9728                 4.0872                 5.3681
 Frc consts  --      0.0024                 0.0169                 0.0448
 IR Inten    --      0.8490                 0.0909                 2.9612

                      4                      5                      6
                      A                      A                      A
 Frequencies --    130.6284               181.1770               201.9629
 Red. masses --      4.5264                 1.7703                 1.0576
 Frc consts  --      0.0455                 0.0342                 0.0254
 IR Inten    --      1.1315                 5.0319                84.2163

                      7                      8                      9
                      A                      A                      A
 Frequencies --    222.6447               238.6417               253.7278
 Red. masses --      1.6269                 4.8114                 5.9861
 Frc consts  --      0.0475                 0.1614                 0.2271
 IR Inten    --      0.3796                 0.6989                 0.7721

                     10                     11                     12
                      A                      A                      A
 Frequencies --    275.5592               320.6406               327.0544
 Red. masses --      4.0943                 4.6213                 2.9307
 Frc consts  --      0.1832                 0.2799                 0.1847
 IR Inten    --      0.8741                 5.0976                 1.0150

                     13                     14                     15
                      A                      A                      A
 Frequencies --    339.3952               428.1412               450.9676
 Red. masses --      6.3587                 5.6774                 3.6433
 Frc consts  --      0.4316                 0.6132                 0.4366
 IR Inten    --      7.8393                 2.9421                 0.9092

                     16                     17                     18
                      A                      A                      A
 Frequencies --    465.0467               480.6524               503.2866
 Red. masses --      1.1320                 6.1990                 4.5132
 Frc consts  --      0.1442                 0.8438                 0.6735
 IR Inten    --     89.1370                 3.0157                20.6228

                     19                     20                     21
                      A                      A                      A
 Frequencies --    525.0684               566.2784               576.2834
 Red. masses --     12.1909                 5.4232                 6.1256
 Frc consts  --      1.9802                 1.0246                 1.1986
 IR Inten    --      3.0561                 3.6813                 1.8276

                     22                     23                     24
                      A                      A                      A
 Frequencies --    604.7104               644.6927               712.4691
 Red. masses --      6.1729                 4.4512                 4.5829
 Frc consts  --      1.3300                 1.0900                 1.3707
 IR Inten    --     12.7303                 8.4013                 7.3471

                     25                     26                     27
                      A                      A                      A
 Frequencies --    725.8438               762.0356               791.5924
 Red. masses --      6.1825                 1.3851                 1.4422
 Frc consts  --      1.9191                 0.4739                 0.5325
 IR Inten    --      6.0516                43.3711               356.5740

                     28                     29                     30
                      A                      A                      A
 Frequencies --    822.8639               857.1617               861.2010
 Red. masses --      1.1953                 3.4542                 1.3617
 Frc consts  --      0.4768                 1.4953                 0.5950
 IR Inten    --      3.3165                 6.6791                 0.5014

                     31                     32                     33
                      A                      A                      A
 Frequencies --    879.4449               938.0733               947.9170
 Red. masses --      4.1920                 1.2465                 2.8677
 Frc consts  --      1.9102                 0.6463                 1.5182
 IR Inten    --     56.8817                 1.1628                21.9968

                     34                     35                     36
                      A                      A                      A
 Frequencies --   1058.2069              1080.8480              1108.6253
 Red. masses --      3.9063                 4.6247                 1.8336
 Frc consts  --      2.5773                 3.1832                 1.3277
 IR Inten    --     26.7673               108.2208                 5.2797

                     37                     38                     39
                      A                      A                      A
 Frequencies --   1129.8019              1194.5451              1204.6497
 Red. masses --      2.1086                 1.3634                 2.2455
 Frc consts  --      1.5858                 1.1463                 1.9199
 IR Inten    --     72.0359                 3.4491                18.9791

                     40                     41                     42
                      A                      A                      A
 Frequencies --   1206.5330              1233.6594              1279.0115
 Red. masses --      1.7360                 2.7164                 2.0308
 Frc consts  --      1.4889                 2.4358                 1.9574
 IR Inten    --      8.4600                33.7182               214.4451

                     43                     44                     45
                      A                      A                      A
 Frequencies --   1298.6726              1336.5929              1361.1426
 Red. masses --      2.2171                 1.1992                 1.8981
 Frc consts  --      2.2031                 1.2623                 2.0719
 IR Inten    --      9.5866                38.0577                96.5551

                     46                     47                     48
                      A                      A                      A
 Frequencies --   1391.0131              1417.9922              1435.4253
 Red. masses --      6.5575                 1.3404                 2.0326
 Frc consts  --      7.4757                 1.5879                 2.4676
 IR Inten    --      4.3794                 5.2059               152.7591

                     49                     50                     51
                      A                      A                      A
 Frequencies --   1444.2006              1483.4959              1515.8777
 Red. masses --      1.2979                 3.0218                 1.0439
 Frc consts  --      1.5950                 3.9182                 1.4133
 IR Inten    --     46.2025               134.5262                 7.7620

                     52                     53                     54
                      A                      A                      A
 Frequencies --   1523.7827              1531.8235              1547.4906
 Red. masses --      3.1224                 1.0736                 1.0941
 Frc consts  --      4.2716                 1.4843                 1.5437
 IR Inten    --      8.3041                 0.6833                 4.8759

                     55                     56                     57
                      A                      A                      A
 Frequencies --   1608.3985              1644.0999              1675.6288
 Red. masses --      5.4954                 6.9099                 1.3077
 Frc consts  --      8.3760                11.0047                 2.1632
 IR Inten    --     80.5936                 0.3235                15.0179

                     58                     59                     60
                      A                      A                      A
 Frequencies --   1703.8116              3062.2771              3063.5847
 Red. masses --      3.4807                 1.0648                 1.0370
 Frc consts  --      5.9534                 5.8831                 5.7344
 IR Inten    --    112.5908                41.8750                15.3046

                     61                     62                     63
                      A                      A                      A
 Frequencies --   3118.6589              3132.6973              3150.2607
 Red. masses --      1.1006                 1.1019                 1.1032
 Frc consts  --      6.3067                 6.3713                 6.4507
 IR Inten    --     12.6023                27.2461                31.4481

                     64                     65                     66
                      A                      A                      A
 Frequencies --   3195.7734              3213.4133              3230.4567
 Red. masses --      1.0865                 1.0937                 1.0921
 Frc consts  --      6.5380                 6.6540                 6.7147
 IR Inten    --      3.0059                17.8175                15.7107

                     67                     68                     69
                      A                      A                      A
 Frequencies --   3486.5081              3585.8053              3665.1103
 Red. masses --      1.0498                 1.0933                 1.0653
 Frc consts  --      7.5183                 8.2828                 8.4312
 IR Inten    --      5.1947                15.8087               190.8692

 - Thermochemistry -
 -------------------
 Temperature   298.150 Kelvin.  Pressure   1.00000 Atm.
 Atom     1 has atomic number  6 and mass  12.00000

 Molecular mass:   209.05105 amu.
 Principal axes and moments of inertia in atomic units:
                           1         2         3
     Eigenvalues --  1807.847243761.560545355.43938
           X            0.99998   0.00459  -0.00449
           Y           -0.00456   0.99997   0.00568
           Z            0.00452  -0.00566   0.99997
 This molecule is an asymmetric top.
 Rotational symmetry number  1.
 Warning -- assumption of classical behavior for rotation
           may cause significant error
 Rotational temperatures (Kelvin)      0.04791     0.02303     0.01617
 Rotational constants (GHZ):           0.99828     0.47979     0.33699
 Zero-point vibrational energy     517921.0 (Joules/Mol)
                                  123.78608 (Kcal/Mol)
 Warning -- explicit consideration of  22 degrees of freedom as
           vibrations may cause significant error
 Vibrational temperatures:     45.77   120.60   171.15   187.95   260.67
          (Kelvin)            290.58   320.34   343.35   365.06   396.47
                              461.33   470.56   488.31   616.00   648.84
                              669.10   691.55   724.12   755.46   814.75
                              829.14   870.04   927.57  1025.08  1044.33
                             1096.40  1138.92  1183.92  1233.26  1239.08
                             1265.33  1349.68  1363.84  1522.52  1555.10
                             1595.06  1625.53  1718.68  1733.22  1735.93
                             1774.96  1840.21  1868.50  1923.06  1958.38
                             2001.36  2040.17  2065.26  2077.88  2134.42
                             2181.01  2192.38  2203.95  2226.49  2314.13
                             2365.49  2410.86  2451.40  4405.93  4407.82
                             4487.05  4507.25  4532.52  4598.01  4623.39
                             4647.91  5016.31  5159.17  5273.28

 Zero-point correction=                           0.197266 (Hartree/Particle)
 Thermal correction to Energy=                    0.210490
 Thermal correction to Enthalpy=                  0.211434
 Thermal correction to Gibbs Free Energy=         0.157520
 Sum of electronic and zero-point Energies=           -990.913062
 Sum of electronic and thermal Energies=              -990.899838
 Sum of electronic and thermal Enthalpies=            -990.898893
 Sum of electronic and thermal Free Energies=         -990.952808

                     E (Thermal)             CV                S
                      KCal/Mol        Cal/Mol-Kelvin    Cal/Mol-Kelvin
 Total                  132.084             50.877            113.472
 Electronic               0.000              0.000              0.000
 Translational            0.889              2.981             41.916
 Rotational               0.889              2.981             31.966
 Vibrational            130.307             44.915             39.590
 Vibration     1          0.594              1.983              5.713
 Vibration     2          0.601              1.960              3.799
 Vibration     3          0.609              1.934              3.117
 Vibration     4          0.612              1.923              2.937
 Vibration     5          0.630              1.865              2.316
 Vibration     6          0.639              1.837              2.115
 Vibration     7          0.648              1.807              1.937
 Vibration     8          0.657              1.781              1.813
 Vibration     9          0.665              1.756              1.705
 Vibration    10          0.677              1.719              1.561
 Vibration    11          0.706              1.634              1.307
 Vibration    12          0.711              1.621              1.275
 Vibration    13          0.719              1.597              1.215
 Vibration    14          0.790              1.409              0.865
 Vibration    15          0.810              1.359              0.793
 Vibration    16          0.822              1.328              0.752
 Vibration    17          0.837              1.293              0.708
 Vibration    18          0.859              1.243              0.650
 Vibration    19          0.880              1.195              0.598
 Vibration    20          0.922              1.104              0.511
 Vibration    21          0.933              1.083              0.492
 Vibration    22          0.963              1.022              0.442

                           ! Non-Optimized Parameters !
 Normal termination of Gaussian 16 at Thu Dec 10 09:27:50 2020.

 ----------------------------------------------------------------------
 # B3LYP/6-311++G(d,p) empiricaldispersion=gd3bj scf=xqc pop=npa geom=c
 heck
 ----------------------------------------------------------------------

 ---------------------------------------
 CID_130821117_JID_4174_Energie_neutraal
 ---------------------------------------
 Structure from the checkpoint file:  "JID_4174.chk"
 Charge =  0 Multiplicity = 1

 SCF Done:  E(RB3LYP) =  -991.312327064     A.U. after   15 cycles
 Normal termination of Gaussian 16 at Thu Dec 10 09:30:10 2020.

 ----------------------------------------------------------------------
 # B3LYP/6-311++G(d,p) empiricaldispersion=gd3bj scf=xqc pop=npa geom=c
 heck
 ----------------------------------------------------------------------

 -------------------------------------
 CID_130821117_JID_4174_Energie_kation
 -------------------------------------
 Structure from the checkpoint file:  "JID_4174.chk"
 Charge =  1 Multiplicity = 2

 SCF Done:  E(UB3LYP) =  -991.061837371     A.U. after   22 cycles
 Normal termination of Gaussian 16 at Thu Dec 10 09:34:45 2020.
 Gaussian 16:  ES64L-G16RevA.03 25-Dec-2016

 ----------------------------------------------------------------------
 # B3LYP/6-311++G(d,p) empiricaldispersion=gd3bj scf=xqc pop=npa geom=c
 heck
 ----------------------------------------------------------------------

 ------------------------------------
 CID_130821117_JID_4174_Energie_anion
 ------------------------------------
 Structure from the checkpoint file:  "JID_4174.chk"
 Charge = -1 Multiplicity = 2

                         Standard orientation:
 ---------------------------------------------------------------------
 Center     Atomic      Atomic             Coordinates (Angstroms)
 Number     Number       Type             X           Y           Z
 ---------------------------------------------------------------------
      1          6           0        3.848468   -0.853513   -1.020946
      2          6           0        3.315576   -0.994028    0.398360
      3          8           0        1.884200   -0.966687    0.446598
      4          6           0        1.220484    0.230522    0.272068
      5          6           0       -0.177486    0.113123    0.134720
      6          6           0       -0.948400    1.285813   -0.017843
      7          6           0       -0.361265    2.553143   -0.047485
      8          6           0        1.018689    2.636929    0.088864
      9          6           0        1.814484    1.486847    0.247871
     10         16           0       -2.659441    0.902329   -0.156467
     11          6           0       -2.309950   -0.832301   -0.077203
     12          6           0       -0.978070   -1.081696    0.087229
     13          8           0       -0.494619   -2.360127    0.185348
     14          7           0       -3.354770   -1.762983   -0.062850
     15          1           0        3.450484   -1.651406   -1.655674
     16          1           0        4.941888   -0.924069   -1.019291
     17          1           0        3.565162    0.106872   -1.460251
     18          1           0        3.579882   -1.967846    0.818458
     19          1           0        3.719987   -0.224585    1.066486
     20          1           0       -0.966113    3.445623   -0.171099
     21          1           0        1.501850    3.609149    0.073457
     22          1           0        2.887122    1.597949    0.349335
     23          1           0        0.468510   -2.281577    0.312841
     24          1           0       -3.901859   -1.765702   -0.920602
     25          1           0       -2.984305   -2.695324    0.100390
 ---------------------------------------------------------------------

 SCF Done:  E(UB3LYP) =  -991.299578039     A.U. after   33 cycles
 SCF Done:  E(UB3LYP) =  -991.299578039     a.u. after    1 cycles

 The electronic state is 2-A.
 Alpha  occ. eigenvalues --  -88.77583 -19.06707 -19.04655 -14.22562 -10.14610
 Alpha  occ. eigenvalues --  -10.13158 -10.12872 -10.12732 -10.11451 -10.09056
 Alpha  occ. eigenvalues --  -10.08463 -10.08340 -10.07865 -10.06608  -7.86199
 Alpha  occ. eigenvalues --   -5.82528  -5.82187  -5.81684  -0.97974  -0.95474
 Alpha  occ. eigenvalues --   -0.82723  -0.78492  -0.72376  -0.68843  -0.65278
 Alpha  occ. eigenvalues --   -0.62836  -0.60938  -0.55545  -0.52292  -0.49270
 Alpha  occ. eigenvalues --   -0.47215  -0.44602  -0.42312  -0.41120  -0.40877
 Alpha  occ. eigenvalues --   -0.38742  -0.36762  -0.36120  -0.34370  -0.33090
 Alpha  occ. eigenvalues --   -0.32361  -0.30436  -0.29879  -0.29138  -0.28244
 Alpha  occ. eigenvalues --   -0.27832  -0.26509  -0.25339  -0.24870  -0.23578
 Alpha  occ. eigenvalues --   -0.22459  -0.19644  -0.15822  -0.13391  -0.09044
 Alpha  occ. eigenvalues --    0.04333
 Alpha virt. eigenvalues --    0.05666   0.06770   0.07130   0.08170   0.08251
 Alpha virt. eigenvalues --    0.08839   0.09057   0.09851   0.10438   0.10960
 Alpha virt. eigenvalues --    0.12066   0.12395   0.12808   0.13128   0.13902

  Beta  occ. eigenvalues --  -88.77581 -19.06703 -19.04642 -14.22514 -10.14597
  Beta  occ. eigenvalues --  -10.13119 -10.12875 -10.12700 -10.11448 -10.09037
  Beta  occ. eigenvalues --  -10.08453 -10.08315 -10.07852 -10.06564  -7.86197
  Beta  occ. eigenvalues --   -5.82528  -5.82184  -5.81681  -0.97957  -0.95454
  Beta  occ. eigenvalues --   -0.82656  -0.78454  -0.72336  -0.68795  -0.65230
  Beta  occ. eigenvalues --   -0.62789  -0.60902  -0.55469  -0.52242  -0.49205
  Beta  occ. eigenvalues --   -0.47156  -0.44570  -0.42253  -0.41075  -0.40836
  Beta  occ. eigenvalues --   -0.38677  -0.36726  -0.36056  -0.34334  -0.33052
  Beta  occ. eigenvalues --   -0.32305  -0.30395  -0.29845  -0.29093  -0.28196
  Beta  occ. eigenvalues --   -0.27783  -0.26473  -0.25290  -0.24837  -0.23534
  Beta  occ. eigenvalues --   -0.22398  -0.19583  -0.15750  -0.13337  -0.08951
  Beta virt. eigenvalues --    0.06665   0.06693   0.07287   0.07582   0.08428
  Beta virt. eigenvalues --    0.08785   0.09215   0.09621   0.10097   0.10929
  Beta virt. eigenvalues --    0.11546   0.12326   0.12655   0.12995   0.13317

 Mulliken charges and spin densities:
               1          2
     1  C    1.228205  -1.626221
     2  C    0.038760  -0.206543
     3  O   -0.221140   0.027962
     4  C   -1.179186   1.242878
     5  C   -0.124360   0.255847
     6  C    0.356150  -0.207924
     7  C   -0.180178   0.244145
     8  C    1.330844  -1.649545
     9  C    0.568690  -0.844333
    10  S   -0.863833   0.276456
    11  C    0.275812  -0.068439
    12  C    0.500373  -0.645383
    13  O   -0.319636  -0.002386
    14  N   -0.320626  -0.024252
    15  H   -0.051640   0.203774
    16  H   -0.568475   0.715893
    17  H   -0.210110   0.345217
    18  H   -0.871434   1.068017
    19  H   -0.270421   0.411141
    20  H    0.091313   0.063279
    21  H   -0.168054   0.327382
    22  H   -0.184132   0.366077
    23  H    0.282162   0.068738
    24  H   -0.225546   0.470368
    25  H    0.086462   0.187853
 Sum of Mulliken charges =  -1.00000   1.00000

 Dipole moment (field-independent basis, Debye):
    X=             -5.5091    Y=              3.7196    Z=              0.3706  Tot=              6.6576
 Quadrupole moment (field-independent basis, Debye-Ang):
   XX=           -186.4636   YY=           -129.3142   ZZ=           -115.6334
   XY=             -1.0207   XZ=             -1.4298   YZ=             -0.7620

 Summary of Natural Population Analysis:

                                       Natural Population
                Natural  -----------------------------------------------
    Atom  No    Charge         Core      Valence    Rydberg      Total
 -----------------------------------------------------------------------
      C    1   -0.30046      0.99966     2.29568    0.00511     3.30046
      C    2   -0.00860      0.99958     1.99688    0.01215     3.00860
      O    3   -0.29382      0.99985     3.28344    0.01052     4.29382
      C    4    0.17173      0.99933     1.81624    0.01270     2.82827
      C    5   -0.07275      0.99940     2.06390    0.00946     3.07275
      C    6   -0.07925      0.99942     2.06963    0.01020     3.07925
      C    7   -0.12202      0.99950     2.11255    0.00997     3.12202
      C    8   -0.09562      0.99958     2.08513    0.01091     3.09562
      C    9   -0.14730      0.99952     2.13890    0.00889     3.14730
      S   10    0.17654      4.99944     2.80353    0.02049     7.82346
      C   11   -0.01077      0.99943     1.99543    0.01591     3.01077
      C   12    0.11155      0.99921     1.87436    0.01488     2.88845
      O   13   -0.35362      0.99987     3.34709    0.00665     4.35362
      N   14   -0.40847      0.99971     2.89630    0.01246     3.90847
      H   15    0.10123      0.00000     0.39757    0.00120     0.39877
      H   16    0.10800      0.00000     0.38902    0.00298     0.39200
      H   17    0.10163      0.00000     0.39687    0.00150     0.39837
      H   18    0.09538      0.00000     0.40216    0.00246     0.40462
      H   19    0.08651      0.00000     0.41110    0.00239     0.41349
      H   20    0.10190      0.00000     0.39726    0.00085     0.39810
      H   21    0.10051      0.00000     0.39867    0.00082     0.39949
      H   22    0.10905      0.00000     0.38950    0.00145     0.39095
      H   23    0.25014      0.00000     0.24643    0.00343     0.24986
      H   24    0.18638      0.00000     0.30888    0.00474     0.31362
      H   25    0.19214      0.00000     0.30591    0.00195     0.30786
 =======================================================================
   * Total *   -0.00000     17.99351    36.82241    0.18409    55.00000

 Normal termination of Gaussian 16 at Thu Dec 10 09:41:38 2020.
