 Gaussian 16, Revision A.03,

 -----------------------------------------------------------
 # opt freq B3LYP/6-31G(d) empiricaldispersion=gd3bj scf=xqc
 -----------------------------------------------------------

 ------------------------------
 CID_24846477_JID_4434_neutraal
 ------------------------------
 Symbolic Z-matrix:
 Charge =  0 Multiplicity = 1

 SCF Done:  E(RB3LYP) =  -610.934169698     A.U. after   15 cycles
 SCF Done:  E(RB3LYP) =  -610.937202018     A.U. after   12 cycles
 SCF Done:  E(RB3LYP) =  -610.938236095     A.U. after   12 cycles
 SCF Done:  E(RB3LYP) =  -610.938270794     A.U. after   11 cycles
 SCF Done:  E(RB3LYP) =  -610.938503344     A.U. after   11 cycles
 SCF Done:  E(RB3LYP) =  -610.938537159     A.U. after   11 cycles
 SCF Done:  E(RB3LYP) =  -610.938562790     A.U. after   10 cycles
 SCF Done:  E(RB3LYP) =  -610.938570353     A.U. after    9 cycles
 SCF Done:  E(RB3LYP) =  -610.938573829     A.U. after    8 cycles
 SCF Done:  E(RB3LYP) =  -610.938574531     A.U. after    8 cycles
 Optimization completed.
    -- Stationary point found.
 Normal termination of Gaussian 16 at Thu Dec 10 09:45:49 2020.

 --------------------------------------------------------------------
 #N Geom=AllCheck Guess=TCheck SCRF=Check GenChk RB3LYP/6-31G(d) Freq
 --------------------------------------------------------------------

 Structure from the checkpoint file:  "JID_4434.chk"
 ------------------------------
 CID_24846477_JID_4434_neutraal
 ------------------------------
 Charge =  0 Multiplicity = 1

 SCF Done:  E(RB3LYP) =  -610.938574531     A.U. after    1 cycles

  Exact polarizability: 132.152   4.931 126.698   4.385  -6.323 105.351
 Approx polarizability: 191.911   7.872 173.536  11.011 -19.692 176.364

                      1                      2                      3
                      A                      A                      A
 Frequencies --     64.0260                70.9782                86.4876
 Red. masses --      3.3464                 2.8776                 3.5187
 Frc consts  --      0.0081                 0.0085                 0.0155
 IR Inten    --      2.4527                 2.5108                 0.7414

                      4                      5                      6
                      A                      A                      A
 Frequencies --    119.7031               198.3538               222.8725
 Red. masses --      3.4488                 3.2372                 1.1958
 Frc consts  --      0.0291                 0.0750                 0.0350
 IR Inten    --      0.7277                 0.1254                 0.0276

                      7                      8                      9
                      A                      A                      A
 Frequencies --    239.4325               255.6376               271.1462
 Red. masses --      1.2220                 1.2408                 2.4802
 Frc consts  --      0.0413                 0.0478                 0.1074
 IR Inten    --      0.3660                 0.2313                 1.3716

                     10                     11                     12
                      A                      A                      A
 Frequencies --    291.6009               300.0590               311.4955
 Red. masses --      2.5412                 3.2022                 3.1550
 Frc consts  --      0.1273                 0.1699                 0.1804
 IR Inten    --      0.6033                 0.0076                 0.8624

                     13                     14                     15
                      A                      A                      A
 Frequencies --    336.4822               369.2481               385.8297
 Red. masses --      2.5386                 2.5214                 2.3555
 Frc consts  --      0.1693                 0.2025                 0.2066
 IR Inten    --      0.4296                 0.6734                 0.6344

                     16                     17                     18
                      A                      A                      A
 Frequencies --    407.5021               439.0254               441.3930
 Red. masses --      2.1689                 2.5487                 2.3970
 Frc consts  --      0.2122                 0.2894                 0.2751
 IR Inten    --      0.0400                 1.0525                 0.7143

                     19                     20                     21
                      A                      A                      A
 Frequencies --    517.4940               642.3927               688.2894
 Red. masses --      3.1610                 3.5178                 5.4946
 Frc consts  --      0.4987                 0.8553                 1.5337
 IR Inten    --      0.8588                 1.7998                 1.6851

                     22                     23                     24
                      A                      A                      A
 Frequencies --    727.9388               731.8876               767.3155
 Red. masses --      8.9782                 3.7199                 4.0611
 Frc consts  --      2.8030                 1.1740                 1.4088
 IR Inten    --      0.2851                 2.6484                 2.4368

                     25                     26                     27
                      A                      A                      A
 Frequencies --    800.1746               859.9926               889.3537
 Red. masses --      2.7306                 2.0607                 1.8730
 Frc consts  --      1.0301                 0.8980                 0.8729
 IR Inten    --      6.4485                 0.6030                 0.3816

                     28                     29                     30
                      A                      A                      A
 Frequencies --    896.4897               937.7009               944.3542
 Red. masses --      2.3849                 1.5659                 1.5303
 Frc consts  --      1.1293                 0.8112                 0.8041
 IR Inten    --      3.5449                 0.7725                 0.3595

                     31                     32                     33
                      A                      A                      A
 Frequencies --    951.6981               980.2273               982.0209
 Red. masses --      1.4325                 1.4718                 1.7386
 Frc consts  --      0.7644                 0.8332                 0.9879
 IR Inten    --      2.6971                 0.4155                 0.3461

                     34                     35                     36
                      A                      A                      A
 Frequencies --   1020.3179              1038.2274              1072.8562
 Red. masses --      4.4407                 2.2499                 2.6771
 Frc consts  --      2.7238                 1.4289                 1.8155
 IR Inten    --      1.8761                 4.2567                 4.5671

                     37                     38                     39
                      A                      A                      A
 Frequencies --   1088.8791              1108.6480              1123.6941
 Red. masses --      2.2633                 2.2089                 3.6237
 Frc consts  --      1.5811                 1.5996                 2.6959
 IR Inten    --      7.6381                 0.9848                 5.4811

                     40                     41                     42
                      A                      A                      A
 Frequencies --   1136.2537              1154.2423              1169.3472
 Red. masses --      3.5686                 1.9481                 1.7747
 Frc consts  --      2.7146                 1.5292                 1.4298
 IR Inten    --     13.2981                 0.1145                 1.3131

                     43                     44                     45
                      A                      A                      A
 Frequencies --   1194.4285              1205.8671              1235.0767
 Red. masses --      2.2907                 1.7864                 1.4512
 Frc consts  --      1.9255                 1.5305                 1.3043
 IR Inten    --      4.6195                 3.5882                 0.9185

                     46                     47                     48
                      A                      A                      A
 Frequencies --   1270.0770              1299.6924              1308.5136
 Red. masses --      4.2325                 1.3989                 1.4681
 Frc consts  --      4.0226                 1.3922                 1.4810
 IR Inten    --      2.7302                 2.9822                 1.4440

                     49                     50                     51
                      A                      A                      A
 Frequencies --   1310.7883              1331.1990              1336.0098
 Red. masses --      1.8375                 1.3942                 1.7578
 Frc consts  --      1.8601                 1.4556                 1.8486
 IR Inten    --     18.6096                 4.7384                 5.3859

                     52                     53                     54
                      A                      A                      A
 Frequencies --   1352.6494              1362.5293              1369.5340
 Red. masses --      1.5259                 1.2913                 1.5026
 Frc consts  --      1.6449                 1.4125                 1.6605
 IR Inten    --      4.6970                 1.4386                 2.6650

                     55                     56                     57
                      A                      A                      A
 Frequencies --   1399.1225              1408.9770              1417.3542
 Red. masses --      1.5828                 1.4602                 1.5204
 Frc consts  --      1.8256                 1.7079                 1.7995
 IR Inten    --     10.3472                 0.7912                 4.9558

                     58                     59                     60
                      A                      A                      A
 Frequencies --   1420.8339              1437.0509              1442.3109
 Red. masses --      1.4079                 1.2508                 1.2365
 Frc consts  --      1.6746                 1.5219                 1.5156
 IR Inten    --     11.1656                 3.5201                 2.4201

                     61                     62                     63
                      A                      A                      A
 Frequencies --   1456.7670              1481.5313              1509.7411
 Red. masses --      1.2199                 2.5058                 1.1718
 Frc consts  --      1.5253                 3.2405                 1.5737
 IR Inten    --     10.2773                37.5175                 3.1932

                     64                     65                     66
                      A                      A                      A
 Frequencies --   1516.1671              1519.7928              1529.0675
 Red. masses --      1.0944                 1.0828                 1.0639
 Frc consts  --      1.4823                 1.4736                 1.4656
 IR Inten    --      3.0578                 2.8634                 6.6570

                     67                     68                     69
                      A                      A                      A
 Frequencies --   1529.9536              1531.3088              1535.2622
 Red. masses --      1.0591                 1.0580                 1.1932
 Frc consts  --      1.4606                 1.4618                 1.6571
 IR Inten    --      9.0359                 3.8170                 8.4253

                     70                     71                     72
                      A                      A                      A
 Frequencies --   1539.6503              1555.1491              1576.6961
 Red. masses --      1.0864                 1.1475                 3.5959
 Frc consts  --      1.5174                 1.6350                 5.2670
 IR Inten    --      4.0105                 3.5789                20.5059

                     73                     74                     75
                      A                      A                      A
 Frequencies --   3018.4261              3023.0915              3040.1087
 Red. masses --      1.0819                 1.0816                 1.0654
 Frc consts  --      5.8075                 5.8237                 5.8014
 IR Inten    --      8.7428                 4.9940                 8.1778

                     76                     77                     78
                      A                      A                      A
 Frequencies --   3041.8345              3044.7771              3045.0654
 Red. masses --      1.0461                 1.0467                 1.0501
 Frc consts  --      5.7028                 5.7175                 5.7370
 IR Inten    --     17.1152                 2.5080                14.5940

                     79                     80                     81
                      A                      A                      A
 Frequencies --   3050.9323              3055.5173              3075.0613
 Red. masses --      1.0639                 1.0620                 1.0711
 Frc consts  --      5.8344                 5.8419                 5.9677
 IR Inten    --     40.5191                71.0539                28.0487

                     82                     83                     84
                      A                      A                      A
 Frequencies --   3090.5132              3099.2609              3107.4077
 Red. masses --      1.0996                 1.0943                 1.0981
 Frc consts  --      6.1880                 6.1932                 6.2474
 IR Inten    --     17.3104                 6.6313                 4.8197

                     85                     86                     87
                      A                      A                      A
 Frequencies --   3111.7359              3115.4959              3121.7113
 Red. masses --      1.1008                 1.0981                 1.1028
 Frc consts  --      6.2802                 6.2798                 6.3319
 IR Inten    --     32.0563                73.4768                29.6327

                     88                     89                     90
                      A                      A                      A
 Frequencies --   3127.3136              3140.0918              3159.2667
 Red. masses --      1.1001                 1.1004                 1.0945
 Frc consts  --      6.3393                 6.3926                 6.4364
 IR Inten    --     33.5296                17.3129                 5.2758

 - Thermochemistry -
 -------------------
 Temperature   298.150 Kelvin.  Pressure   1.00000 Atm.
 Atom     1 has atomic number  6 and mass  12.00000

 Molecular mass:   194.15315 amu.
 Principal axes and moments of inertia in atomic units:
                           1         2         3
     Eigenvalues --  2239.947752589.409393997.05477
           X            0.99979   0.01738  -0.01107
           Y           -0.01730   0.99983   0.00700
           Z            0.01119  -0.00681   0.99991
 This molecule is an asymmetric top.
 Rotational symmetry number  1.
 Warning -- assumption of classical behavior for rotation
           may cause significant error
 Rotational temperatures (Kelvin)      0.03867     0.03345     0.02167
 Rotational constants (GHZ):           0.80571     0.69697     0.45152
 Zero-point vibrational energy     747018.7 (Joules/Mol)
                                  178.54177 (Kcal/Mol)
 Warning -- explicit consideration of  19 degrees of freedom as
           vibrations may cause significant error
 Vibrational temperatures:     92.12   102.12   124.44   172.23   285.39
          (Kelvin)            320.66   344.49   367.81   390.12   419.55
                              431.72   448.17   484.12   531.27   555.12
                              586.30   631.66   635.07   744.56   924.26
                              990.29  1047.34  1053.02  1104.00  1151.27
                             1237.34  1279.58  1289.85  1349.14  1358.72
                             1369.28  1410.33  1412.91  1468.01  1493.78
                             1543.60  1566.65  1595.10  1616.75  1634.82
                             1660.70  1682.43  1718.52  1734.97  1777.00
                             1827.36  1869.97  1882.66  1885.93  1915.30
                             1922.22  1946.16  1960.38  1970.45  2013.03
                             2027.20  2039.26  2044.26  2067.60  2075.16
                             2095.96  2131.59  2172.18  2181.43  2186.64
                             2199.99  2201.26  2203.21  2208.90  2215.21
                             2237.51  2268.51  4342.84  4349.55  4374.04
                             4376.52  4380.76  4381.17  4389.61  4396.21
                             4424.33  4446.56  4459.15  4470.87  4477.09
                             4482.50  4491.45  4499.51  4517.89  4545.48

 Zero-point correction=                           0.284524 (Hartree/Particle)
 Thermal correction to Energy=                    0.297770
 Thermal correction to Enthalpy=                  0.298715
 Thermal correction to Gibbs Free Energy=         0.245367
 Sum of electronic and zero-point Energies=           -610.654050
 Sum of electronic and thermal Energies=              -610.640804
 Sum of electronic and thermal Enthalpies=            -610.639860
 Sum of electronic and thermal Free Energies=         -610.693207

                     E (Thermal)             CV                S
                      KCal/Mol        Cal/Mol-Kelvin    Cal/Mol-Kelvin
 Total                  186.854             51.958            112.279
 Electronic               0.000              0.000              0.000
 Translational            0.889              2.981             41.696
 Rotational               0.889              2.981             31.517
 Vibrational            185.076             45.996             39.067
 Vibration     1          0.597              1.971              4.329
 Vibration     2          0.598              1.968              4.126
 Vibration     3          0.601              1.959              3.738
 Vibration     4          0.609              1.933              3.105
 Vibration     5          0.637              1.842              2.148
 Vibration     6          0.649              1.806              1.936
 Vibration     7          0.657              1.780              1.807
 Vibration     8          0.666              1.753              1.691
 Vibration     9          0.675              1.726              1.589
 Vibration    10          0.687              1.689              1.465
 Vibration    11          0.693              1.674              1.417
 Vibration    12          0.700              1.652              1.354
 Vibration    13          0.717              1.603              1.229
 Vibration    14          0.742              1.535              1.083
 Vibration    15          0.755              1.500              1.016
 Vibration    16          0.772              1.454              0.935
 Vibration    17          0.799              1.385              0.830
 Vibration    18          0.801              1.380              0.822
 Vibration    19          0.873              1.211              0.616

                           ! Non-Optimized Parameters !
 Normal termination of Gaussian 16 at Thu Dec 10 09:56:28 2020.

 ----------------------------------------------------------------------
 # B3LYP/6-311++G(d,p) empiricaldispersion=gd3bj scf=xqc pop=npa geom=c
 heck
 ----------------------------------------------------------------------

 --------------------------------------
 CID_24846477_JID_4434_Energie_neutraal
 --------------------------------------
 Structure from the checkpoint file:  "JID_4434.chk"
 Charge =  0 Multiplicity = 1

 SCF Done:  E(RB3LYP) =  -611.099203723     A.U. after   15 cycles
 Normal termination of Gaussian 16 at Thu Dec 10 10:00:40 2020.

 ----------------------------------------------------------------------
 # B3LYP/6-311++G(d,p) empiricaldispersion=gd3bj scf=xqc pop=npa geom=c
 heck
 ----------------------------------------------------------------------

 ------------------------------------
 CID_24846477_JID_4434_Energie_kation
 ------------------------------------
 Structure from the checkpoint file:  "JID_4434.chk"
 Charge =  1 Multiplicity = 2

 SCF Done:  E(UB3LYP) =  -610.734523493     A.U. after   33 cycles
 SCF Done:  E(UB3LYP) =  -610.738001246     a.u. after   14 cycles
 Normal termination of Gaussian 16 at Thu Dec 10 11:53:31 2020.
 Gaussian 16:  ES64L-G16RevA.03 25-Dec-2016

 ----------------------------------------------------------------------
 # B3LYP/6-311++G(d,p) empiricaldispersion=gd3bj scf=xqc pop=npa geom=c
 heck
 ----------------------------------------------------------------------

 -----------------------------------
 CID_24846477_JID_4434_Energie_anion
 -----------------------------------
 Structure from the checkpoint file:  "JID_4434.chk"
 Charge = -1 Multiplicity = 2

                         Standard orientation:
 ---------------------------------------------------------------------
 Center     Atomic      Atomic             Coordinates (Angstroms)
 Number     Number       Type             X           Y           Z
 ---------------------------------------------------------------------
      1          6           0        1.701839    3.145640   -0.054187
      2          6           0        0.853101    1.914960    0.286455
      3          6           0        1.779782    0.712613    0.564312
      4          6           0        1.128687   -0.679761    0.794686
      5          6           0       -0.238510   -0.553802    1.483310
      6          7           0       -1.296106   -0.137828    0.565349
      7          6           0       -1.310272    0.777705   -0.429058
      8          7           0       -2.513235    0.763271   -0.982517
      9          7           0       -3.227472   -0.181595   -0.315979
     10          7           0       -2.516516   -0.731794    0.613818
     11          6           0       -0.171374    1.656183   -0.833061
     12          6           0        1.089713   -1.580942   -0.470530
     13          6           0        2.509200   -1.951196   -0.926232
     14          6           0        0.281245   -2.867978   -0.244314
     15          1           0        1.078668    4.040654   -0.156036
     16          1           0        2.237709    2.998894   -1.000278
     17          1           0        2.447455    3.338569    0.724918
     18          1           0        0.290464    2.144903    1.202187
     19          1           0        2.493593    0.641864   -0.263877
     20          1           0        2.377562    0.968170    1.448060
     21          1           0        1.758610   -1.210195    1.523167
     22          1           0       -0.185632    0.158730    2.313767
     23          1           0       -0.570462   -1.508361    1.891306
     24          1           0       -0.609275    2.599890   -1.174320
     25          1           0        0.335947    1.223607   -1.706654
     26          1           0        0.608178   -1.022270   -1.283949
     27          1           0        3.021610   -2.536369   -0.151906
     28          1           0        2.470177   -2.563533   -1.833370
     29          1           0        3.129176   -1.077180   -1.147670
     30          1           0       -0.780037   -2.674338   -0.067334
     31          1           0        0.353104   -3.517343   -1.123185
     32          1           0        0.675991   -3.430609    0.612184
 ---------------------------------------------------------------------

 SCF Done:  E(UB3LYP) =  -611.091794943     A.U. after   31 cycles

 The electronic state is 2-A.
 Alpha  occ. eigenvalues --  -14.31221 -14.28018 -14.26918 -14.23569 -10.15455
 Alpha  occ. eigenvalues --  -10.12715 -10.09810 -10.09076 -10.09011 -10.08809
 Alpha  occ. eigenvalues --  -10.07120 -10.06870 -10.06651 -10.06635  -1.03673
 Alpha  occ. eigenvalues --   -0.85502  -0.79849  -0.73984  -0.71637  -0.67310
 Alpha  occ. eigenvalues --   -0.62280  -0.61496  -0.59053  -0.56112  -0.55054
 Alpha  occ. eigenvalues --   -0.50903  -0.47812  -0.46910  -0.41879  -0.41307
 Alpha  occ. eigenvalues --   -0.38509  -0.38056  -0.36248  -0.36034  -0.34477
 Alpha  occ. eigenvalues --   -0.33088  -0.31896  -0.30949  -0.30541  -0.29426
 Alpha  occ. eigenvalues --   -0.28486  -0.27909  -0.27132  -0.26299  -0.25027
 Alpha  occ. eigenvalues --   -0.24853  -0.23448  -0.22618  -0.22438  -0.20577
 Alpha  occ. eigenvalues --   -0.20041  -0.19230  -0.18893   0.04068
 Alpha virt. eigenvalues --    0.06539   0.06743   0.07620   0.08248   0.09028
 Alpha virt. eigenvalues --    0.09154   0.09638   0.10193   0.10725   0.11128
 Alpha virt. eigenvalues --    0.11944   0.12154   0.12543   0.12619   0.13554

  Beta  occ. eigenvalues --  -14.31201 -14.27979 -14.26907 -14.23574 -10.15436
  Beta  occ. eigenvalues --  -10.12691 -10.09800 -10.09058 -10.08993 -10.08805
  Beta  occ. eigenvalues --  -10.07086 -10.06858 -10.06622 -10.06596  -1.03635
  Beta  occ. eigenvalues --   -0.85467  -0.79809  -0.73947  -0.71603  -0.67271
  Beta  occ. eigenvalues --   -0.62233  -0.61443  -0.59002  -0.56081  -0.54985
  Beta  occ. eigenvalues --   -0.50853  -0.47727  -0.46864  -0.41790  -0.41253
  Beta  occ. eigenvalues --   -0.38470  -0.37998  -0.36195  -0.36001  -0.34423
  Beta  occ. eigenvalues --   -0.33048  -0.31848  -0.30906  -0.30504  -0.29400
  Beta  occ. eigenvalues --   -0.28437  -0.27869  -0.27093  -0.26252  -0.24976
  Beta  occ. eigenvalues --   -0.24807  -0.23388  -0.22571  -0.22388  -0.20514
  Beta  occ. eigenvalues --   -0.19999  -0.19120  -0.18872
  Beta virt. eigenvalues --    0.06517   0.07175   0.07616   0.08074   0.08714
  Beta virt. eigenvalues --    0.09541   0.09646   0.09983   0.10785   0.10902
  Beta virt. eigenvalues --    0.11526   0.12287   0.12587   0.12835   0.12923

 Mulliken charges and spin densities:
               1          2
     1  C    1.031817  -1.699299
     2  C   -1.986409   2.466933
     3  C    1.367611  -2.338470
     4  C    0.842400  -0.026113
     5  C    0.443379  -1.165063
     6  N   -0.212917   0.006383
     7  C   -0.332939   0.080128
     8  N    0.025435   0.010782
     9  N   -0.127445  -0.026221
    10  N    0.329683  -0.004853
    11  C    0.110243  -0.734245
    12  C   -1.048687   1.200908
    13  C    0.517787  -1.139281
    14  C    0.028598  -0.700120
    15  H   -0.279580   0.408152
    16  H   -0.203467   0.348860
    17  H   -0.400235   0.557851
    18  H   -0.089095   0.291723
    19  H    0.506827  -0.379735
    20  H   -0.328036   0.504444
    21  H   -0.597222   0.853093
    22  H   -0.617686   0.836498
    23  H    0.125241   0.101068
    24  H    0.240045  -0.030211
    25  H   -0.060474   0.259363
    26  H    0.104304   0.067526
    27  H   -0.071558   0.215933
    28  H   -0.091944   0.226558
    29  H   -0.435517   0.575233
    30  H    0.212737  -0.064957
    31  H    0.120988   0.010315
    32  H   -0.123885   0.286815
 Sum of Mulliken charges =  -1.00000   1.00000

 Dipole moment (field-independent basis, Debye):
    X=             -2.1708    Y=             -1.8322    Z=             -3.1494  Tot=              4.2412
 Quadrupole moment (field-independent basis, Debye-Ang):
   XX=           -156.7613   YY=           -132.5566   ZZ=           -130.1612
   XY=             -4.1058   XZ=             -9.4963   YZ=             -0.7525

 Summary of Natural Population Analysis:

                                       Natural Population
                Natural  -----------------------------------------------
    Atom  No    Charge         Core      Valence    Rydberg      Total
 -----------------------------------------------------------------------
      C    1   -0.27941      0.99965     2.27373    0.00603     3.27941
      C    2   -0.11081      0.99960     2.10172    0.00949     3.11081
      C    3   -0.18966      0.99959     2.17888    0.01118     3.18966
      C    4   -0.11566      0.99957     2.10164    0.01445     3.11566
      C    5   -0.08628      0.99958     2.07375    0.01295     3.08628
      N    6   -0.11559      0.99959     2.60271    0.01329     3.61559
      C    7    0.19661      0.99959     1.78644    0.01736     2.80339
      N    8   -0.17121      0.99969     2.65941    0.01211     3.67121
      N    9   -0.04443      0.99981     2.52746    0.01716     3.54443
      N   10   -0.04383      0.99978     2.52691    0.01715     3.54383
      C   11   -0.21357      0.99957     2.20456    0.00943     3.21357
      C   12   -0.11279      0.99959     2.10476    0.00844     3.11279
      C   13   -0.28205      0.99965     2.27650    0.00591     3.28205
      C   14   -0.28864      0.99965     2.28329    0.00571     3.28864
      H   15    0.09851      0.00000     0.40056    0.00094     0.40149
      H   16    0.09760      0.00000     0.40124    0.00116     0.40240
      H   17    0.10549      0.00000     0.39314    0.00137     0.39451
      H   18    0.09670      0.00000     0.40096    0.00234     0.40330
      H   19    0.10031      0.00000     0.39767    0.00202     0.39969
      H   20    0.10937      0.00000     0.38755    0.00307     0.39063
      H   21    0.10906      0.00000     0.38755    0.00338     0.39094
      H   22    0.10979      0.00000     0.38826    0.00195     0.39021
      H   23    0.11315      0.00000     0.38511    0.00173     0.38685
      H   24    0.11521      0.00000     0.38345    0.00134     0.38479
      H   25    0.11044      0.00000     0.38809    0.00147     0.38956
      H   26    0.09297      0.00000     0.40472    0.00230     0.40703
      H   27    0.09875      0.00000     0.40011    0.00115     0.40125
      H   28    0.09760      0.00000     0.40163    0.00077     0.40240
      H   29    0.10169      0.00000     0.39723    0.00109     0.39831
      H   30    0.10406      0.00000     0.39480    0.00114     0.39594
      H   31    0.09888      0.00000     0.40044    0.00068     0.40112
      H   32    0.09776      0.00000     0.40144    0.00080     0.40224
 =======================================================================
   * Total *   -0.00000     13.99490    38.81572    0.18939    53.00000

 Normal termination of Gaussian 16 at Thu Dec 10 12:05:07 2020.
