 Gaussian 16, Revision A.03,

 -----------------------------------------------------------
 # opt freq B3LYP/6-31G(d) empiricaldispersion=gd3bj scf=xqc
 -----------------------------------------------------------

 ------------------------------
 CID_20644747_JID_3195_neutraal
 ------------------------------
 Symbolic Z-matrix:
 Charge =  0 Multiplicity = 1

 SCF Done:  E(RB3LYP) =  -627.384915125     A.U. after   14 cycles
 SCF Done:  E(RB3LYP) =  -627.392068392     A.U. after   12 cycles
 SCF Done:  E(RB3LYP) =  -627.392927043     A.U. after   12 cycles
 SCF Done:  E(RB3LYP) =  -627.393207237     A.U. after   11 cycles
 SCF Done:  E(RB3LYP) =  -627.393333052     A.U. after   11 cycles
 SCF Done:  E(RB3LYP) =  -627.393397213     A.U. after   10 cycles
 SCF Done:  E(RB3LYP) =  -627.393463138     A.U. after   11 cycles
 SCF Done:  E(RB3LYP) =  -627.393495199     A.U. after   10 cycles
 SCF Done:  E(RB3LYP) =  -627.393518559     A.U. after   10 cycles
 SCF Done:  E(RB3LYP) =  -627.393531934     A.U. after   11 cycles
 SCF Done:  E(RB3LYP) =  -627.393562804     A.U. after   10 cycles
 SCF Done:  E(RB3LYP) =  -627.393563207     A.U. after    9 cycles
 SCF Done:  E(RB3LYP) =  -627.393563289     A.U. after    8 cycles
 SCF Done:  E(RB3LYP) =  -627.393563326     A.U. after    7 cycles
 SCF Done:  E(RB3LYP) =  -627.393563350     A.U. after    6 cycles
 SCF Done:  E(RB3LYP) =  -627.393563366     A.U. after    6 cycles
 Optimization completed.
    -- Stationary point found.
 Normal termination of Gaussian 16 at Wed Dec  9 22:39:53 2020.

 --------------------------------------------------------------------
 #N Geom=AllCheck Guess=TCheck SCRF=Check GenChk RB3LYP/6-31G(d) Freq
 --------------------------------------------------------------------

 Structure from the checkpoint file:  "JID_3195.chk"
 ------------------------------
 CID_20644747_JID_3195_neutraal
 ------------------------------
 Charge =  0 Multiplicity = 1

 SCF Done:  E(RB3LYP) =  -627.393563366     A.U. after    1 cycles

  Exact polarizability: 131.557   0.254  96.246  -9.956  -0.331  85.572
 Approx polarizability: 172.622   3.175 136.572 -27.031  -0.369 144.701

                      1                      2                      3
                      A                      A                      A
 Frequencies --     19.2468                48.3882                67.4709
 Red. masses --      3.5848                 5.5772                 3.6912
 Frc consts  --      0.0008                 0.0077                 0.0099
 IR Inten    --      0.3650                 1.4365                 1.3189

                      4                      5                      6
                      A                      A                      A
 Frequencies --    121.1657               154.7740               172.2483
 Red. masses --      1.4867                 3.5947                 1.1692
 Frc consts  --      0.0129                 0.0507                 0.0204
 IR Inten    --      0.5718                 1.7589                 0.9884

                      7                      8                      9
                      A                      A                      A
 Frequencies --    201.7016               233.1153               276.2900
 Red. masses --      2.1597                 2.1095                 3.3928
 Frc consts  --      0.0518                 0.0675                 0.1526
 IR Inten    --      6.1699                 3.4976                 1.2818

                     10                     11                     12
                      A                      A                      A
 Frequencies --    282.0643               319.9554               351.2696
 Red. masses --      3.3382                 2.4377                 2.7304
 Frc consts  --      0.1565                 0.1470                 0.1985
 IR Inten    --      1.5508                 5.6632                 2.5856

                     13                     14                     15
                      A                      A                      A
 Frequencies --    384.5073               424.1820               444.6672
 Red. masses --      3.7020                 1.2697                 2.7857
 Frc consts  --      0.3225                 0.1346                 0.3245
 IR Inten    --     18.9627                80.9526                10.5573

                     16                     17                     18
                      A                      A                      A
 Frequencies --    462.2458               530.3137               590.5639
 Red. masses --      2.6718                 4.3132                 5.1015
 Frc consts  --      0.3364                 0.7147                 1.0483
 IR Inten    --      8.7784                 1.1543                 1.1418

                     19                     20                     21
                      A                      A                      A
 Frequencies --    610.7834               693.1844               735.7852
 Red. masses --      5.3807                 4.7866                11.6694
 Frc consts  --      1.1827                 1.3551                 3.7222
 IR Inten    --      2.1173                18.7997                28.0395

                     22                     23                     24
                      A                      A                      A
 Frequencies --    754.4189               804.1850               826.7372
 Red. masses --      4.0211                 4.8885                 6.3291
 Frc consts  --      1.3484                 1.8627                 2.5488
 IR Inten    --      1.0174                11.9448                10.3137

                     25                     26                     27
                      A                      A                      A
 Frequencies --    894.3941               911.6779               947.3986
 Red. masses --      3.7354                 1.7899                 2.3330
 Frc consts  --      1.7606                 0.8765                 1.2338
 IR Inten    --     10.4197                 0.7069                 5.8148

                     28                     29                     30
                      A                      A                      A
 Frequencies --    951.8032               955.7102              1032.8794
 Red. masses --      5.7052                 1.8793                 1.6138
 Frc consts  --      3.0452                 1.0113                 1.0144
 IR Inten    --     83.4884                14.3565                 2.3560

                     31                     32                     33
                      A                      A                      A
 Frequencies --   1044.7687              1062.6432              1121.8476
 Red. masses --      1.7275                 1.6085                 1.8189
 Frc consts  --      1.1110                 1.0702                 1.3487
 IR Inten    --      3.8911                 8.7743                74.1415

                     34                     35                     36
                      A                      A                      A
 Frequencies --   1140.0452              1155.9080              1162.4355
 Red. masses --      2.0587                 1.5901                 2.3513
 Frc consts  --      1.5765                 1.2518                 1.8720
 IR Inten    --      7.8818                 3.1326                10.1993

                     37                     38                     39
                      A                      A                      A
 Frequencies --   1174.6940              1230.4138              1255.9324
 Red. masses --      1.4803                 1.6581                 1.8436
 Frc consts  --      1.2035                 1.4790                 1.7134
 IR Inten    --      0.9690                 7.0735                 4.6343

                     40                     41                     42
                      A                      A                      A
 Frequencies --   1290.7898              1301.2127              1321.9385
 Red. masses --      1.9649                 2.3518                 1.6692
 Frc consts  --      1.9289                 2.3461                 1.7186
 IR Inten    --     24.9308                80.5117                27.6316

                     43                     44                     45
                      A                      A                      A
 Frequencies --   1331.6933              1335.4187              1374.2570
 Red. masses --      1.9653                 2.1241                 2.3377
 Frc consts  --      2.0535                 2.2319                 2.6012
 IR Inten    --     30.3872                78.5643                53.1762

                     46                     47                     48
                      A                      A                      A
 Frequencies --   1428.3652              1445.1417              1454.7614
 Red. masses --      1.7393                 1.4349                 1.2724
 Frc consts  --      2.0907                 1.7656                 1.5865
 IR Inten    --     13.8284                 8.3577                26.1310

                     49                     50                     51
                      A                      A                      A
 Frequencies --   1473.1874              1495.5538              1506.9866
 Red. masses --      1.6348                 1.5495                 1.0458
 Frc consts  --      2.0904                 2.0419                 1.3993
 IR Inten    --     30.9061                95.4108                10.5418

                     52                     53                     54
                      A                      A                      A
 Frequencies --   1508.8103              1513.7172              1526.6965
 Red. masses --      1.0657                 1.1066                 1.0871
 Frc consts  --      1.4295                 1.4940                 1.4928
 IR Inten    --      6.6742                 6.7776                37.1800

                     55                     56                     57
                      A                      A                      A
 Frequencies --   1529.3312              1539.1675              1569.9888
 Red. masses --      1.0486                 1.1103                 1.4788
 Frc consts  --      1.4451                 1.5497                 2.1476
 IR Inten    --      9.3391                16.9679                95.0942

                     58                     59                     60
                      A                      A                      A
 Frequencies --   1715.2237              1790.2275              2970.2442
 Red. masses --      7.6149                 7.6536                 1.0721
 Frc consts  --     13.1995                14.4522                 5.5729
 IR Inten    --      4.6767               483.9362                31.5552

                     61                     62                     63
                      A                      A                      A
 Frequencies --   2990.6086              3022.3616              3038.1865
 Red. masses --      1.0721                 1.0436                 1.0608
 Frc consts  --      5.6492                 5.6169                 5.7692
 IR Inten    --     76.4177                74.0545                13.6401

                     64                     65                     66
                      A                      A                      A
 Frequencies --   3044.6307              3071.5909              3073.5305
 Red. masses --      1.0417                 1.0951                 1.0972
 Frc consts  --      5.6894                 6.0875                 6.1067
 IR Inten    --     36.0944                50.7695                 4.2721

                     67                     68                     69
                      A                      A                      A
 Frequencies --   3075.8227              3088.2930              3092.3149
 Red. masses --      1.0986                 1.0921                 1.1006
 Frc consts  --      6.1237                 6.1369                 6.2009
 IR Inten    --     17.9386                23.6469                18.3161

                     70                     71                     72
                      A                      A                      A
 Frequencies --   3155.9241              3190.6526              3653.7750
 Red. masses --      1.0995                 1.0952                 1.0771
 Frc consts  --      6.4520                 6.5690                 8.4722
 IR Inten    --      6.8548                 0.8549                44.2472

 - Thermochemistry -
 -------------------
 Temperature   298.150 Kelvin.  Pressure   1.00000 Atm.
 Atom     1 has atomic number  6 and mass  12.00000

 Molecular mass:   183.10078 amu.
 Principal axes and moments of inertia in atomic units:
                           1         2         3
     Eigenvalues --   974.430063601.738273928.78019
           X            0.99992  -0.01166  -0.00547
           Y            0.01165   0.99993  -0.00035
           Z            0.00548   0.00029   0.99998
 This molecule is an asymmetric top.
 Rotational symmetry number  1.
 Warning -- assumption of classical behavior for rotation
           may cause significant error
 Rotational temperatures (Kelvin)      0.08889     0.02405     0.02205
 Rotational constants (GHZ):           1.85210     0.50108     0.45936
 Zero-point vibrational energy     571050.7 (Joules/Mol)
                                  136.48439 (Kcal/Mol)
 Warning -- explicit consideration of  19 degrees of freedom as
           vibrations may cause significant error
 Vibrational temperatures:     27.69    69.62    97.08   174.33   222.69
          (Kelvin)            247.83   290.20   335.40   397.52   405.83
                              460.34   505.40   553.22   610.30   639.78
                              665.07   763.00   849.69   878.78   997.34
                             1058.63  1085.44  1157.04  1189.49  1286.83
                             1311.70  1363.10  1369.43  1375.05  1486.08
                             1503.19  1528.91  1614.09  1640.27  1663.09
                             1672.49  1690.12  1770.29  1807.01  1857.16
                             1872.15  1901.97  1916.01  1921.37  1977.25
                             2055.10  2079.24  2093.08  2119.59  2151.77
                             2168.22  2170.84  2177.90  2196.58  2200.37
                             2214.52  2258.86  2467.82  2575.74  4273.52
                             4302.82  4348.50  4371.27  4380.54  4419.33
                             4422.12  4425.42  4443.36  4449.15  4540.67
                             4590.64  5256.97

 Zero-point correction=                           0.217502 (Hartree/Particle)
 Thermal correction to Energy=                    0.230223
 Thermal correction to Enthalpy=                  0.231167
 Thermal correction to Gibbs Free Energy=         0.177187
 Sum of electronic and zero-point Energies=           -627.176062
 Sum of electronic and thermal Energies=              -627.163340
 Sum of electronic and thermal Enthalpies=            -627.162396
 Sum of electronic and thermal Free Energies=         -627.216377

                     E (Thermal)             CV                S
                      KCal/Mol        Cal/Mol-Kelvin    Cal/Mol-Kelvin
 Total                  144.467             46.940            113.612
 Electronic               0.000              0.000              0.000
 Translational            0.889              2.981             41.521
 Rotational               0.889              2.981             31.001
 Vibrational            142.690             40.979             41.091
 Vibration     1          0.593              1.986              6.710
 Vibration     2          0.595              1.978              4.882
 Vibration     3          0.598              1.970              4.226
 Vibration     4          0.609              1.932              3.082
 Vibration     5          0.620              1.897              2.613
 Vibration     6          0.626              1.877              2.411
 Vibration     7          0.639              1.837              2.118
 Vibration     8          0.654              1.790              1.855
 Vibration     9          0.678              1.717              1.557
 Vibration    10          0.681              1.707              1.521
 Vibration    11          0.706              1.635              1.310
 Vibration    12          0.728              1.573              1.160
 Vibration    13          0.753              1.503              1.021
 Vibration    14          0.786              1.418              0.878
 Vibration    15          0.804              1.373              0.812
 Vibration    16          0.820              1.334              0.760
 Vibration    17          0.885              1.183              0.587
 Vibration    18          0.948              1.052              0.466
 Vibration    19          0.970              1.009              0.431

 Optimization completed.
    -- Stationary point found.
 Normal termination of Gaussian 16 at Wed Dec  9 22:47:03 2020.

 ----------------------------------------------------------------------
 # B3LYP/6-311++G(d,p) empiricaldispersion=gd3bj scf=xqc pop=npa geom=c
 heck
 ----------------------------------------------------------------------

 --------------------------------------
 CID_20644747_JID_3195_Energie_neutraal
 --------------------------------------
 Structure from the checkpoint file:  "JID_3195.chk"
 Charge =  0 Multiplicity = 1

 SCF Done:  E(RB3LYP) =  -627.573255563     A.U. after   14 cycles
 Normal termination of Gaussian 16 at Wed Dec  9 22:50:06 2020.

 ----------------------------------------------------------------------
 # B3LYP/6-311++G(d,p) empiricaldispersion=gd3bj scf=xqc pop=npa geom=c
 heck
 ----------------------------------------------------------------------

 ------------------------------------
 CID_20644747_JID_3195_Energie_kation
 ------------------------------------
 Structure from the checkpoint file:  "JID_3195.chk"
 Charge =  1 Multiplicity = 2

 SCF Done:  E(UB3LYP) =  -627.265496132     A.U. after   25 cycles
 Normal termination of Gaussian 16 at Wed Dec  9 22:58:00 2020.
 Gaussian 16:  ES64L-G16RevA.03 25-Dec-2016

 ----------------------------------------------------------------------
 # B3LYP/6-311++G(d,p) empiricaldispersion=gd3bj scf=xqc pop=npa geom=c
 heck
 ----------------------------------------------------------------------

 -----------------------------------
 CID_20644747_JID_3195_Energie_anion
 -----------------------------------
 Structure from the checkpoint file:  "JID_3195.chk"
 Charge = -1 Multiplicity = 2

                         Standard orientation:
 ---------------------------------------------------------------------
 Center     Atomic      Atomic             Coordinates (Angstroms)
 Number     Number       Type             X           Y           Z
 ---------------------------------------------------------------------
      1          6           0        4.182642    0.442254    0.106333
      2          6           0        2.719809    0.150467    0.174143
      3          7           0        2.072485    0.224673    1.277082
      4          8           0        0.728832   -0.107697    1.069563
      5          6           0        0.482415   -0.312625   -0.356461
      6          6           0        1.875274   -0.274800   -0.999383
      7          6           0       -0.236929   -1.643799   -0.529179
      8          7           0       -1.592290   -1.554418   -0.030226
      9          6           0       -2.326456   -0.403731    0.174151
     10          8           0       -3.446022   -0.450887    0.676580
     11          7           0       -1.722385    0.773543   -0.220486
     12          6           0       -0.416325    0.822935   -0.842195
     13          6           0       -2.458741    2.016341   -0.101907
     14          1           0        4.385507    1.269216   -0.585886
     15          1           0        4.737368   -0.430135   -0.262095
     16          1           0        4.560932    0.709030    1.095673
     17          1           0        2.194908   -1.253205   -1.383914
     18          1           0        1.937694    0.432250   -1.835772
     19          1           0        0.312090   -2.414845    0.021734
     20          1           0       -0.216050   -1.916318   -1.597066
     21          1           0       -2.030578   -2.370899    0.367723
     22          1           0        0.059540    1.775586   -0.581468
     23          1           0       -0.485632    0.781741   -1.943422
     24          1           0       -1.885731    2.744226    0.486570
     25          1           0       -2.666752    2.451985   -1.089609
     26          1           0       -3.400578    1.801207    0.400777
 ---------------------------------------------------------------------

 SCF Done:  E(UB3LYP) =  -627.567418527     A.U. after   32 cycles

 The electronic state is 2-A.
 Alpha  occ. eigenvalues --  -19.05836 -18.97681 -14.25893 -14.24063 -14.23340
 Alpha  occ. eigenvalues --  -10.19420 -10.14725 -10.11785 -10.11751 -10.11578
 Alpha  occ. eigenvalues --  -10.10374 -10.08900 -10.07828  -0.99704  -0.94800
 Alpha  occ. eigenvalues --   -0.85142  -0.81699  -0.77117  -0.71909  -0.63227
 Alpha  occ. eigenvalues --   -0.62605  -0.61412  -0.59304  -0.52012  -0.48604
 Alpha  occ. eigenvalues --   -0.44296  -0.43678  -0.39664  -0.38980  -0.38535
 Alpha  occ. eigenvalues --   -0.37035  -0.36481  -0.35598  -0.34657  -0.32436
 Alpha  occ. eigenvalues --   -0.31849  -0.31145  -0.30738  -0.29802  -0.29330
 Alpha  occ. eigenvalues --   -0.28275  -0.26541  -0.25524  -0.25271  -0.19750
 Alpha  occ. eigenvalues --   -0.16892  -0.15667  -0.14680  -0.13919   0.04035
 Alpha virt. eigenvalues --    0.06929   0.07075   0.08183   0.08555   0.09711
 Alpha virt. eigenvalues --    0.10080   0.10496   0.10775   0.11696   0.11947
 Alpha virt. eigenvalues --    0.12784   0.13071   0.13868   0.14648   0.14917

  Beta  occ. eigenvalues --  -19.05830 -18.97678 -14.25885 -14.24063 -14.23336
  Beta  occ. eigenvalues --  -10.19418 -10.14726 -10.11752 -10.11752 -10.11544
  Beta  occ. eigenvalues --  -10.10365 -10.08840 -10.07780  -0.99695  -0.94794
  Beta  occ. eigenvalues --   -0.85132  -0.81685  -0.77096  -0.71875  -0.63192
  Beta  occ. eigenvalues --   -0.62542  -0.61342  -0.59266  -0.51957  -0.48574
  Beta  occ. eigenvalues --   -0.44268  -0.43649  -0.39590  -0.38914  -0.38507
  Beta  occ. eigenvalues --   -0.37000  -0.36439  -0.35557  -0.34616  -0.32411
  Beta  occ. eigenvalues --   -0.31828  -0.31088  -0.30683  -0.29774  -0.29310
  Beta  occ. eigenvalues --   -0.28250  -0.26513  -0.25493  -0.25233  -0.19732
  Beta  occ. eigenvalues --   -0.16887  -0.15653  -0.14666  -0.13900
  Beta virt. eigenvalues --    0.06802   0.07549   0.07742   0.08966   0.09047
  Beta virt. eigenvalues --    0.10170   0.10603   0.11016   0.11193   0.12167
  Beta virt. eigenvalues --    0.12401   0.13140   0.13344   0.14227   0.14822

 Mulliken charges and spin densities:
               1          2
     1  C    2.407377  -2.966388
     2  C   -0.603491   1.033598
     3  N   -0.381916   0.135715
     4  O    0.228639  -0.058341
     5  C   -3.366696   3.812255
     6  C    0.808335  -1.562627
     7  C    1.610764  -2.122576
     8  N   -0.385102   0.094317
     9  C    0.312499   0.081744
    10  O   -0.420025  -0.001743
    11  N   -0.123248   0.078082
    12  C    1.182058  -2.062677
    13  C    0.138055  -0.388459
    14  H   -0.321470   0.488534
    15  H   -0.363032   0.528295
    16  H   -0.018469   0.171893
    17  H   -0.599115   0.807191
    18  H   -0.583469   0.797757
    19  H   -0.150925   0.362090
    20  H   -0.464382   0.671213
    21  H    0.258073   0.053876
    22  H    0.013647   0.185961
    23  H   -0.415482   0.632654
    24  H    0.062666   0.083127
    25  H   -0.010578   0.151500
    26  H    0.185286  -0.006992
 Sum of Mulliken charges =  -1.00000   1.00000

 Dipole moment (field-independent basis, Debye):
    X=             -3.9896    Y=              1.1372    Z=              3.1994  Tot=              5.2390
 Quadrupole moment (field-independent basis, Debye-Ang):
   XX=           -148.3629   YY=           -107.5372   ZZ=           -121.8647
   XY=             -0.5502   XZ=             11.5637   YZ=             -1.3233

 Summary of Natural Population Analysis:

                                       Natural Population
                Natural  -----------------------------------------------
    Atom  No    Charge         Core      Valence    Rydberg      Total
 -----------------------------------------------------------------------
      C    1   -0.30188      0.99962     2.29637    0.00588     3.30188
      C    2    0.11280      0.99962     1.87242    0.01516     2.88720
      N    3   -0.06796      0.99961     2.55554    0.01281     3.56796
      O    4   -0.22348      0.99987     3.21386    0.00974     4.22348
      C    5    0.12279      0.99952     1.86043    0.01726     2.87721
      C    6   -0.22643      0.99955     2.21428    0.01261     3.22643
      C    7   -0.08909      0.99954     2.07722    0.01233     3.08909
      N    8   -0.32857      0.99968     2.81964    0.00925     3.82857
      C    9    0.41248      0.99966     1.56512    0.02273     2.58752
      O   10   -0.35143      0.99988     3.34678    0.00478     4.35143
      N   11   -0.26353      0.99965     2.75433    0.00956     3.76353
      C   12   -0.08698      0.99954     2.07545    0.01198     3.08698
      C   13   -0.17614      0.99965     2.16898    0.00751     3.17614
      H   14    0.11009      0.00000     0.38814    0.00177     0.38991
      H   15    0.11022      0.00000     0.38791    0.00187     0.38978
      H   16    0.10915      0.00000     0.38975    0.00110     0.39085
      H   17    0.11895      0.00000     0.37552    0.00552     0.38105
      H   18    0.11942      0.00000     0.37523    0.00534     0.38058
      H   19    0.10566      0.00000     0.39280    0.00153     0.39434
      H   20    0.09723      0.00000     0.40064    0.00213     0.40277
      H   21    0.19691      0.00000     0.30116    0.00194     0.30309
      H   22    0.10503      0.00000     0.39339    0.00158     0.39497
      H   23    0.09852      0.00000     0.39940    0.00208     0.40148
      H   24    0.09155      0.00000     0.40761    0.00083     0.40845
      H   25    0.08915      0.00000     0.40991    0.00094     0.41085
      H   26    0.11551      0.00000     0.38359    0.00090     0.38449
 =======================================================================
   * Total *   -0.00000     12.99537    35.82548    0.17914    49.00000

 Normal termination of Gaussian 16 at Wed Dec  9 23:07:44 2020.
