 Gaussian 16, Revision A.03,

 -----------------------------------------------------------
 # opt freq B3LYP/6-31G(d) empiricaldispersion=gd3bj scf=xqc
 -----------------------------------------------------------

 ------------------------------
 CID_63596298_JID_6672_neutraal
 ------------------------------
 Symbolic Z-matrix:
 Charge =  0 Multiplicity = 1

 SCF Done:  E(RB3LYP) =  -656.291797133     A.U. after   14 cycles
 SCF Done:  E(RB3LYP) =  -656.294755675     A.U. after   12 cycles
 SCF Done:  E(RB3LYP) =  -656.293945348     A.U. after   12 cycles
 SCF Done:  E(RB3LYP) =  -656.294573621     A.U. after   12 cycles
 SCF Done:  E(RB3LYP) =  -656.295742692     A.U. after    9 cycles
 SCF Done:  E(RB3LYP) =  -656.296225351     A.U. after   11 cycles
 SCF Done:  E(RB3LYP) =  -656.296242985     A.U. after   11 cycles
 SCF Done:  E(RB3LYP) =  -656.296294044     A.U. after    9 cycles
 SCF Done:  E(RB3LYP) =  -656.296307592     A.U. after    9 cycles
 SCF Done:  E(RB3LYP) =  -656.296314037     A.U. after    8 cycles
 SCF Done:  E(RB3LYP) =  -656.296319847     A.U. after    8 cycles
 SCF Done:  E(RB3LYP) =  -656.296322950     A.U. after    9 cycles
 SCF Done:  E(RB3LYP) =  -656.296326407     A.U. after    9 cycles
 SCF Done:  E(RB3LYP) =  -656.296327172     A.U. after    9 cycles
 SCF Done:  E(RB3LYP) =  -656.296327154     A.U. after    7 cycles
 Optimization completed.
    -- Stationary point found.
 Normal termination of Gaussian 16 at Fri Dec 11 00:19:11 2020.

 --------------------------------------------------------------------
 #N Geom=AllCheck Guess=TCheck SCRF=Check GenChk RB3LYP/6-31G(d) Freq
 --------------------------------------------------------------------

 Structure from the checkpoint file:  "JID_6672.chk"
 ------------------------------
 CID_63596298_JID_6672_neutraal
 ------------------------------
 Charge =  0 Multiplicity = 1

 SCF Done:  E(RB3LYP) =  -656.296327154     A.U. after    1 cycles

  Exact polarizability: 180.311  -5.026 156.943 -16.060  -6.233 119.862
 Approx polarizability: 247.531  -9.742 252.380 -31.247 -15.101 186.898

                      1                      2                      3
                      A                      A                      A
 Frequencies --     16.2948                63.5614                77.2500
 Red. masses --      3.3139                 4.4085                 1.8190
 Frc consts  --      0.0005                 0.0105                 0.0064
 IR Inten    --      0.0865                 0.1120                 0.2043

                      4                      5                      6
                      A                      A                      A
 Frequencies --    122.7824               140.7363               175.4896
 Red. masses --      3.6276                 1.8385                 2.3687
 Frc consts  --      0.0322                 0.0215                 0.0430
 IR Inten    --      0.6579                 0.1055                 0.0680

                      7                      8                      9
                      A                      A                      A
 Frequencies --    215.2825               219.6576               228.8274
 Red. masses --      1.1264                 3.6202                 2.5450
 Frc consts  --      0.0308                 0.1029                 0.0785
 IR Inten    --      0.8818                 0.0950                 0.6176

                     10                     11                     12
                      A                      A                      A
 Frequencies --    279.8063               282.1765               289.9960
 Red. masses --      1.8728                 2.3990                 1.4899
 Frc consts  --      0.0864                 0.1125                 0.0738
 IR Inten    --      2.1160                 3.6325                 1.0945

                     13                     14                     15
                      A                      A                      A
 Frequencies --    334.2953               363.0480               383.0695
 Red. masses --      2.3601                 2.1689                 2.1059
 Frc consts  --      0.1554                 0.1684                 0.1821
 IR Inten    --      3.3829                 0.7462                 2.8664

                     16                     17                     18
                      A                      A                      A
 Frequencies --    408.7643               436.7125               440.1448
 Red. masses --      2.3889                 2.9144                 3.0135
 Frc consts  --      0.2352                 0.3275                 0.3440
 IR Inten    --      1.1235                 0.8019                 1.9229

                     19                     20                     21
                      A                      A                      A
 Frequencies --    470.2077               473.3285               497.5364
 Red. masses --      2.6259                 2.1432                 2.6679
 Frc consts  --      0.3421                 0.2829                 0.3891
 IR Inten    --      2.2914                 0.9128                 4.6574

                     22                     23                     24
                      A                      A                      A
 Frequencies --    508.8736               516.7773               565.4563
 Red. masses --      3.6035                 2.8595                 4.0290
 Frc consts  --      0.5498                 0.4499                 0.7590
 IR Inten    --      1.7676                 1.1370                 3.3559

                     25                     26                     27
                      A                      A                      A
 Frequencies --    608.9792               635.2296               692.1767
 Red. masses --      2.4849                 3.0527                 3.4486
 Frc consts  --      0.5430                 0.7258                 0.9735
 IR Inten    --      1.8431                 9.6044                 6.3817

                     28                     29                     30
                      A                      A                      A
 Frequencies --    728.0724               756.1299               784.1691
 Red. masses --      3.7182                 1.4384                 2.3977
 Frc consts  --      1.1613                 0.4845                 0.8687
 IR Inten    --      2.6134                25.9281                44.0421

                     31                     32                     33
                      A                      A                      A
 Frequencies --    803.3945               842.1060               846.3294
 Red. masses --      2.2136                 3.9336                 2.6326
 Frc consts  --      0.8418                 1.6435                 1.1110
 IR Inten    --     53.9398                 3.8009                45.5013

                     34                     35                     36
                      A                      A                      A
 Frequencies --    862.2158               882.1929               903.7843
 Red. masses --      1.7614                 1.4104                 1.9106
 Frc consts  --      0.7715                 0.6467                 0.9195
 IR Inten    --      5.7746                 2.5435                37.9347

                     37                     38                     39
                      A                      A                      A
 Frequencies --    908.8244               947.2266               952.2983
 Red. masses --      2.0071                 1.4181                 1.4817
 Frc consts  --      0.9768                 0.7496                 0.7917
 IR Inten    --      8.8309                 0.2787                 1.7434

                     40                     41                     42
                      A                      A                      A
 Frequencies --    971.5109               983.4692               991.6567
 Red. masses --      1.7677                 1.2641                 2.0115
 Frc consts  --      0.9830                 0.7204                 1.1655
 IR Inten    --      7.7327                 0.0894                 1.8887

                     43                     44                     45
                      A                      A                      A
 Frequencies --   1015.3780              1017.0789              1031.8511
 Red. masses --      1.7918                 1.5470                 1.4727
 Frc consts  --      1.0884                 0.9429                 0.9238
 IR Inten    --     22.5244                 0.2314                 3.0651

                     46                     47                     48
                      A                      A                      A
 Frequencies --   1071.3346              1087.5582              1093.2667
 Red. masses --      1.5259                 2.3296                 2.1200
 Frc consts  --      1.0318                 1.6235                 1.4930
 IR Inten    --      3.8865                 7.1797                14.3847

                     49                     50                     51
                      A                      A                      A
 Frequencies --   1113.9071              1131.1604              1154.3160
 Red. masses --      1.6785                 2.6063                 3.1490
 Frc consts  --      1.2270                 1.9648                 2.4721
 IR Inten    --      3.1987                14.5161                 8.4823

                     52                     53                     54
                      A                      A                      A
 Frequencies --   1156.0912              1198.6160              1206.6500
 Red. masses --      2.7721                 1.0983                 2.1006
 Frc consts  --      2.1829                 0.9296                 1.8020
 IR Inten    --     16.0078                 0.2510                 3.4692

                     55                     56                     57
                      A                      A                      A
 Frequencies --   1224.1675              1235.2937              1242.0378
 Red. masses --      1.9780                 2.1701                 2.7891
 Frc consts  --      1.7464                 1.9511                 2.5351
 IR Inten    --     28.9642                 4.7759                 5.0119

                     58                     59                     60
                      A                      A                      A
 Frequencies --   1244.5795              1276.8012              1309.9204
 Red. masses --      2.1494                 1.5952                 1.7297
 Frc consts  --      1.9616                 1.5322                 1.7486
 IR Inten    --     11.5109                11.0090                 9.3485

                     61                     62                     63
                      A                      A                      A
 Frequencies --   1333.1567              1349.7258              1365.8648
 Red. masses --      1.6861                 2.9024                 1.3091
 Frc consts  --      1.7656                 3.1153                 1.4389
 IR Inten    --      0.6827                 4.4839                 4.0676

                     64                     65                     66
                      A                      A                      A
 Frequencies --   1382.9032              1390.1653              1394.4094
 Red. masses --      1.3912                 1.3935                 1.2737
 Frc consts  --      1.5676                 1.5866                 1.4592
 IR Inten    --      1.9657                21.1633                14.4264

                     67                     68                     69
                      A                      A                      A
 Frequencies --   1414.5333              1415.6635              1425.3979
 Red. masses --      1.3214                 1.2607                 1.3104
 Frc consts  --      1.5578                 1.4887                 1.5687
 IR Inten    --      6.4685                 4.7671                 6.4266

                     70                     71                     72
                      A                      A                      A
 Frequencies --   1444.1572              1448.6085              1492.0467
 Red. masses --      1.2282                 1.2202                 1.9161
 Frc consts  --      1.5092                 1.5087                 2.5132
 IR Inten    --      5.9581                 9.6856                 0.9106

                     73                     74                     75
                      A                      A                      A
 Frequencies --   1501.8974              1504.4058              1507.3492
 Red. masses --      1.0776                 1.0879                 1.1104
 Frc consts  --      1.4322                 1.4506                 1.4865
 IR Inten    --      0.0273                 1.9617                 8.5940

                     76                     77                     78
                      A                      A                      A
 Frequencies --   1513.9040              1516.4471              1519.7825
 Red. masses --      1.1462                 1.1047                 1.1883
 Frc consts  --      1.5478                 1.4967                 1.6172
 IR Inten    --      6.7226                 3.6833                 2.8750

                     79                     80                     81
                      A                      A                      A
 Frequencies --   1523.9164              1530.1305              1533.1145
 Red. masses --      1.0795                 1.1141                 1.1089
 Frc consts  --      1.4771                 1.5368                 1.5357
 IR Inten    --      6.3618                20.8401                 2.4613

                     82                     83                     84
                      A                      A                      A
 Frequencies --   1537.5689              1544.1993              1555.1549
 Red. masses --      1.0884                 1.6280                 1.0936
 Frc consts  --      1.5160                 2.2872                 1.5583
 IR Inten    --     11.5841                 8.1000                 3.3562

                     85                     86                     87
                      A                      A                      A
 Frequencies --   1636.7373              1666.3885              3026.0375
 Red. masses --      5.4352                 5.6263                 1.0720
 Frc consts  --      8.5787                 9.2051                 5.7834
 IR Inten    --      0.0590                 1.9113                44.2161

                     88                     89                     90
                      A                      A                      A
 Frequencies --   3045.2725              3050.6946              3051.8442
 Red. masses --      1.0614                 1.0449                 1.0611
 Frc consts  --      5.7991                 5.7298                 5.8227
 IR Inten    --     40.1367                33.0238                34.4620

                     91                     92                     93
                      A                      A                      A
 Frequencies --   3056.8188              3063.1560              3066.2256
 Red. masses --      1.0378                 1.0471                 1.0618
 Frc consts  --      5.7134                 5.7886                 5.8818
 IR Inten    --     25.9585                42.6074                33.2343

                     94                     95                     96
                      A                      A                      A
 Frequencies --   3100.3655              3105.7378              3107.8667
 Red. masses --      1.1012                 1.0959                 1.0982
 Frc consts  --      6.2364                 6.2283                 6.2499
 IR Inten    --     19.9306                24.9888                51.0933

                     97                     98                     99
                      A                      A                      A
 Frequencies --   3118.6608              3122.7763              3126.9458
 Red. masses --      1.1001                 1.0923                 1.0994
 Frc consts  --      6.3040                 6.2757                 6.3336
 IR Inten    --      4.3208                35.0922                46.1942

                    100                    101                    102
                      A                      A                      A
 Frequencies --   3130.8186              3135.6267              3138.2615
 Red. masses --      1.0948                 1.1000                 1.1021
 Frc consts  --      6.3227                 6.3725                 6.3954
 IR Inten    --     31.1218                 5.8386                31.6686

                    103                    104                    105
                      A                      A                      A
 Frequencies --   3144.7849              3173.8587              3188.0229
 Red. masses --      1.0975                 1.0869                 1.0877
 Frc consts  --      6.3948                 6.4509                 6.5135
 IR Inten    --     42.1591                12.3372                 8.5275

                    106                    107                    108
                      A                      A                      A
 Frequencies --   3202.9021              3213.6608              3472.9717
 Red. masses --      1.0923                 1.0946                 1.0733
 Frc consts  --      6.6022                 6.6606                 7.6277
 IR Inten    --     32.4454                21.4651                 5.3650

 - Thermochemistry -
 -------------------
 Temperature   298.150 Kelvin.  Pressure   1.00000 Atm.
 Atom     1 has atomic number  6 and mass  12.00000

 Molecular mass:   218.17830 amu.
 Principal axes and moments of inertia in atomic units:
                           1         2         3
     Eigenvalues --  2017.176334598.522974925.82219
           X            0.99981  -0.01839  -0.00656
           Y            0.01846   0.99978   0.01020
           Z            0.00637  -0.01032   0.99993
 This molecule is an asymmetric top.
 Rotational symmetry number  1.
 Warning -- assumption of classical behavior for rotation
           may cause significant error
 Rotational temperatures (Kelvin)      0.04294     0.01884     0.01758
 Rotational constants (GHZ):           0.89469     0.39246     0.36638
 Zero-point vibrational energy     901450.7 (Joules/Mol)
                                  215.45189 (Kcal/Mol)
 Warning -- explicit consideration of  25 degrees of freedom as
           vibrations may cause significant error
 Vibrational temperatures:     23.44    91.45   111.15   176.66   202.49
          (Kelvin)            252.49   309.74   316.04   329.23   402.58
                              405.99   417.24   480.98   522.35   551.15
                              588.12   628.33   633.27   676.52   681.01
                              715.84   732.16   743.53   813.57   876.19
                              913.95   995.89  1047.53  1087.90  1128.24
                             1155.91  1211.60  1217.68  1240.54  1269.28
                             1300.34  1307.60  1362.85  1370.14  1397.79
                             1414.99  1426.77  1460.90  1463.35  1484.60
                             1541.41  1564.75  1572.97  1602.66  1627.49
                             1660.80  1663.36  1724.54  1736.10  1761.30
                             1777.31  1787.02  1790.67  1837.03  1884.68
                             1918.12  1941.95  1965.17  1989.69  2000.14
                             2006.24  2035.20  2036.82  2050.83  2077.82
                             2084.22  2146.72  2160.90  2164.50  2168.74
                             2178.17  2181.83  2186.63  2192.58  2201.52
                             2205.81  2212.22  2221.76  2237.52  2354.90
                             2397.56  4353.79  4381.47  4389.27  4390.92
                             4398.08  4407.20  4411.61  4460.73  4468.46
                             4471.53  4487.06  4492.98  4498.98  4504.55
                             4511.47  4515.26  4524.64  4566.47  4586.85
                             4608.26  4623.74  4996.83

 Zero-point correction=                           0.343344 (Hartree/Particle)
 Thermal correction to Energy=                    0.358619
 Thermal correction to Enthalpy=                  0.359563
 Thermal correction to Gibbs Free Energy=         0.301166
 Sum of electronic and zero-point Energies=           -655.952983
 Sum of electronic and thermal Energies=              -655.937708
 Sum of electronic and thermal Enthalpies=            -655.936764
 Sum of electronic and thermal Free Energies=         -655.995161

                     E (Thermal)             CV                S
                      KCal/Mol        Cal/Mol-Kelvin    Cal/Mol-Kelvin
 Total                  225.037             61.934            122.906
 Electronic               0.000              0.000              0.000
 Translational            0.889              2.981             42.043
 Rotational               0.889              2.981             32.191
 Vibrational            223.259             55.972             48.671
 Vibration     1          0.593              1.986              7.041
 Vibration     2          0.597              1.972              4.343
 Vibration     3          0.599              1.964              3.960
 Vibration     4          0.610              1.930              3.056
 Vibration     5          0.615              1.913              2.794
 Vibration     6          0.627              1.873              2.376
 Vibration     7          0.645              1.818              1.998
 Vibration     8          0.647              1.811              1.962
 Vibration     9          0.652              1.797              1.888
 Vibration    10          0.680              1.711              1.535
 Vibration    11          0.681              1.707              1.520
 Vibration    12          0.686              1.692              1.474
 Vibration    13          0.716              1.607              1.239
 Vibration    14          0.737              1.548              1.109
 Vibration    15          0.752              1.506              1.027
 Vibration    16          0.773              1.451              0.931
 Vibration    17          0.797              1.390              0.837
 Vibration    18          0.800              1.383              0.826
 Vibration    19          0.827              1.316              0.737
 Vibration    20          0.830              1.309              0.728
 Vibration    21          0.853              1.255              0.664
 Vibration    22          0.864              1.230              0.636
 Vibration    23          0.872              1.213              0.617
 Vibration    24          0.921              1.106              0.513
 Vibration    25          0.968              1.013              0.434

 Optimization completed.
    -- Stationary point found.
 Normal termination of Gaussian 16 at Fri Dec 11 00:34:42 2020.

 ----------------------------------------------------------------------
 # B3LYP/6-311++G(d,p) empiricaldispersion=gd3bj scf=xqc pop=npa geom=c
 heck
 ----------------------------------------------------------------------

 --------------------------------------
 CID_63596298_JID_6672_Energie_neutraal
 --------------------------------------
 Structure from the checkpoint file:  "JID_6672.chk"
 Charge =  0 Multiplicity = 1

 SCF Done:  E(RB3LYP) =  -656.472287359     A.U. after   15 cycles
 Normal termination of Gaussian 16 at Fri Dec 11 00:41:27 2020.

 ----------------------------------------------------------------------
 # B3LYP/6-311++G(d,p) empiricaldispersion=gd3bj scf=xqc pop=npa geom=c
 heck
 ----------------------------------------------------------------------

 ------------------------------------
 CID_63596298_JID_6672_Energie_kation
 ------------------------------------
 Structure from the checkpoint file:  "JID_6672.chk"
 Charge =  1 Multiplicity = 2

 SCF Done:  E(UB3LYP) =  -656.219721235     A.U. after   21 cycles
 Normal termination of Gaussian 16 at Fri Dec 11 00:54:46 2020.
 Gaussian 16:  ES64L-G16RevA.03 25-Dec-2016

 ----------------------------------------------------------------------
 # B3LYP/6-311++G(d,p) empiricaldispersion=gd3bj scf=xqc pop=npa geom=c
 heck
 ----------------------------------------------------------------------

 -----------------------------------
 CID_63596298_JID_6672_Energie_anion
 -----------------------------------
 Structure from the checkpoint file:  "JID_6672.chk"
 Charge = -1 Multiplicity = 2

                         Standard orientation:
 ---------------------------------------------------------------------
 Center     Atomic      Atomic             Coordinates (Angstroms)
 Number     Number       Type             X           Y           Z
 ---------------------------------------------------------------------
      1          6           0       -2.331420    2.135366   -0.830963
      2          6           0       -2.290543    0.683522   -0.403923
      3          6           0       -3.366745    0.203289    0.357236
      4          6           0       -3.433954   -1.118058    0.788207
      5          6           0       -2.417576   -2.002581    0.431757
      6          6           0       -1.345820   -1.538026   -0.324245
      7          6           0       -1.238189   -0.199953   -0.729849
      8          6           0        0.002018    0.236141   -1.516163
      9          7           0        1.223857    0.609080   -0.790661
     10          6           0        1.044093    1.698977    0.171009
     11          6           0        0.701524    1.214330    1.589473
     12          7           0        1.654592    0.216172    2.090665
     13          6           0        1.832074   -0.875830    1.130219
     14          6           0        2.184398   -0.420275   -0.312621
     15          6           0        2.237749   -1.636284   -1.242716
     16          6           0        3.593915    0.211554   -0.331723
     17          1           0       -3.366105    2.490955   -0.859194
     18          1           0       -1.790137    2.782815   -0.130247
     19          1           0       -1.899346    2.299829   -1.821765
     20          1           0       -4.173532    0.888215    0.607902
     21          1           0       -4.280721   -1.456844    1.378448
     22          1           0       -2.461230   -3.045725    0.732020
     23          1           0       -0.568056   -2.237610   -0.612450
     24          1           0        0.261602   -0.558695   -2.217701
     25          1           0       -0.259248    1.102489   -2.133236
     26          1           0        1.968380    2.291696    0.216442
     27          1           0        0.272353    2.371048   -0.213184
     28          1           0       -0.293865    0.757710    1.599157
     29          1           0        0.683314    2.060009    2.288352
     30          1           0        2.553794    0.669517    2.249625
     31          1           0        0.895331   -1.443197    1.104593
     32          1           0        2.611452   -1.547762    1.511818
     33          1           0        2.430122   -1.330061   -2.276912
     34          1           0        3.055979   -2.292559   -0.928762
     35          1           0        1.321863   -2.231561   -1.225022
     36          1           0        3.685382    1.062274    0.348957
     37          1           0        4.345558   -0.527801   -0.033199
     38          1           0        3.828818    0.565464   -1.339866
 ---------------------------------------------------------------------

 SCF Done:  E(UB3LYP) =  -656.456919685     A.U. after   33 cycles
 SCF Done:  E(UB3LYP) =  -656.456919686     a.u. after    1 cycles

 The electronic state is 2-A.
 Alpha  occ. eigenvalues --  -14.20167 -14.19675 -10.11075 -10.10003 -10.09025
 Alpha  occ. eigenvalues --  -10.08786 -10.08692 -10.08568 -10.08279 -10.07918
 Alpha  occ. eigenvalues --  -10.07863 -10.07671 -10.07649 -10.07390 -10.06602
 Alpha  occ. eigenvalues --  -10.05828  -0.83915  -0.78885  -0.76399  -0.69908
 Alpha  occ. eigenvalues --   -0.67981  -0.66736  -0.62341  -0.59859  -0.59320
 Alpha  occ. eigenvalues --   -0.57689  -0.54466  -0.51441  -0.50457  -0.48488
 Alpha  occ. eigenvalues --   -0.44203  -0.41486  -0.39684  -0.38801  -0.37482
 Alpha  occ. eigenvalues --   -0.36823  -0.35458  -0.35247  -0.34439  -0.32703
 Alpha  occ. eigenvalues --   -0.32267  -0.31838  -0.31493  -0.29743  -0.29482
 Alpha  occ. eigenvalues --   -0.29397  -0.28745  -0.27619  -0.27403  -0.27003
 Alpha  occ. eigenvalues --   -0.25897  -0.24961  -0.24690  -0.23958  -0.23468
 Alpha  occ. eigenvalues --   -0.22401  -0.15718  -0.15269  -0.14711  -0.09257
 Alpha  occ. eigenvalues --    0.04306
 Alpha virt. eigenvalues --    0.05981   0.06397   0.07131   0.07580   0.07786
 Alpha virt. eigenvalues --    0.07974   0.08404   0.08936   0.09641   0.09748
 Alpha virt. eigenvalues --    0.10550   0.10725   0.11344   0.11893   0.12300

  Beta  occ. eigenvalues --  -14.20165 -14.19664 -10.11073 -10.09994 -10.09028
  Beta  occ. eigenvalues --  -10.08768 -10.08684 -10.08557 -10.08262 -10.07905
  Beta  occ. eigenvalues --  -10.07851 -10.07656 -10.07631 -10.07362 -10.06576
  Beta  occ. eigenvalues --  -10.05796  -0.83901  -0.78864  -0.76371  -0.69884
  Beta  occ. eigenvalues --   -0.67952  -0.66699  -0.62307  -0.59818  -0.59268
  Beta  occ. eigenvalues --   -0.57647  -0.54435  -0.51398  -0.50410  -0.48453
  Beta  occ. eigenvalues --   -0.44161  -0.41444  -0.39652  -0.38769  -0.37452
  Beta  occ. eigenvalues --   -0.36792  -0.35416  -0.35217  -0.34411  -0.32677
  Beta  occ. eigenvalues --   -0.32238  -0.31805  -0.31466  -0.29708  -0.29447
  Beta  occ. eigenvalues --   -0.29364  -0.28718  -0.27586  -0.27378  -0.26968
  Beta  occ. eigenvalues --   -0.25865  -0.24932  -0.24660  -0.23931  -0.23442
  Beta  occ. eigenvalues --   -0.22370  -0.15647  -0.15237  -0.14681  -0.09235
  Beta virt. eigenvalues --    0.06301   0.06869   0.07094   0.07485   0.07869
  Beta virt. eigenvalues --    0.08022   0.08533   0.08851   0.09340   0.09977
  Beta virt. eigenvalues --    0.10196   0.10899   0.11067   0.11666   0.12192

 Mulliken charges and spin densities:
               1          2
     1  C    1.639985  -2.244250
     2  C   -1.580257   1.982325
     3  C    0.381610  -0.739543
     4  C    0.769867  -1.108252
     5  C    0.502748  -0.701170
     6  C   -0.363731   0.065259
     7  C   -0.533578   1.685222
     8  C   -0.099681  -1.217410
     9  N    0.295978   0.016570
    10  C    0.254948  -0.151863
    11  C   -0.203173  -0.520800
    12  N   -0.086622   0.040210
    13  C    0.364515  -0.975059
    14  C   -1.668026   1.375985
    15  C    0.315209  -0.682423
    16  C    0.729041  -1.123516
    17  H   -0.340436   0.490583
    18  H   -0.002514   0.175733
    19  H   -0.054932   0.191971
    20  H   -0.460352   0.634394
    21  H   -0.280513   0.441558
    22  H   -0.312584   0.480607
    23  H    0.204441  -0.122025
    24  H    0.020361   0.165197
    25  H   -0.043921   0.201449
    26  H   -0.090218   0.266192
    27  H    0.054938   0.081431
    28  H    0.477829  -0.227784
    29  H   -0.239670   0.389226
    30  H    0.137322   0.115842
    31  H    0.196405  -0.034152
    32  H   -0.046309   0.213509
    33  H    0.007461   0.152573
    34  H   -0.100085   0.251719
    35  H   -0.389571   0.526288
    36  H   -0.201744   0.325965
    37  H   -0.122739   0.262783
    38  H   -0.132002   0.315654
 Sum of Mulliken charges =  -1.00000   1.00000

 Dipole moment (field-independent basis, Debye):
    X=              0.4736    Y=             -0.8011    Z=             -0.6224  Tot=              1.1196
 Quadrupole moment (field-independent basis, Debye-Ang):
   XX=           -180.3383   YY=           -147.5179   ZZ=           -140.7250
   XY=              2.4197   XZ=              1.6338   YZ=              0.6726

 Summary of Natural Population Analysis:

                                       Natural Population
                Natural  -----------------------------------------------
    Atom  No    Charge         Core      Valence    Rydberg      Total
 -----------------------------------------------------------------------
      C    1   -0.29484      0.99963     2.28943    0.00578     3.29484
      C    2   -0.01667      0.99947     2.00705    0.01015     3.01667
      C    3   -0.09792      0.99951     2.08836    0.01004     3.09792
      C    4   -0.09813      0.99956     2.08866    0.00991     3.09813
      C    5   -0.10319      0.99955     2.09379    0.00985     3.10319
      C    6   -0.09672      0.99951     2.08770    0.00951     3.09672
      C    7   -0.02464      0.99944     2.01479    0.01041     3.02464
      C    8   -0.08994      0.99956     2.07780    0.01258     3.08994
      N    9   -0.28968      0.99970     2.77348    0.01651     3.78968
      C   10   -0.09467      0.99960     2.08374    0.01134     3.09467
      C   11   -0.09865      0.99962     2.08853    0.01051     3.09865
      N   12   -0.33534      0.99976     2.82359    0.01198     3.83534
      C   13   -0.09726      0.99955     2.08553    0.01218     3.09726
      C   14    0.06131      0.99955     1.92450    0.01463     2.93869
      C   15   -0.29081      0.99961     2.28433    0.00687     3.29081
      C   16   -0.29008      0.99961     2.28244    0.00802     3.29008
      H   17    0.10480      0.00000     0.39405    0.00115     0.39520
      H   18    0.10428      0.00000     0.39453    0.00119     0.39572
      H   19    0.10297      0.00000     0.39598    0.00106     0.39703
      H   20    0.09965      0.00000     0.39918    0.00117     0.40035
      H   21    0.10047      0.00000     0.39855    0.00099     0.39953
      H   22    0.10039      0.00000     0.39869    0.00093     0.39961
      H   23    0.09791      0.00000     0.40027    0.00182     0.40209
      H   24    0.10325      0.00000     0.39541    0.00135     0.39675
      H   25    0.09661      0.00000     0.40195    0.00144     0.40339
      H   26    0.09167      0.00000     0.40686    0.00146     0.40833
      H   27    0.09827      0.00000     0.40029    0.00144     0.40173
      H   28    0.09559      0.00000     0.40257    0.00184     0.40441
      H   29    0.09308      0.00000     0.40589    0.00103     0.40692
      H   30    0.16859      0.00000     0.32893    0.00249     0.33141
      H   31    0.09702      0.00000     0.40123    0.00175     0.40298
      H   32    0.09431      0.00000     0.40472    0.00097     0.40569
      H   33    0.10403      0.00000     0.39484    0.00113     0.39597
      H   34    0.10434      0.00000     0.39475    0.00091     0.39566
      H   35    0.09842      0.00000     0.40027    0.00131     0.40158
      H   36    0.09856      0.00000     0.39999    0.00145     0.40144
      H   37    0.09853      0.00000     0.40041    0.00106     0.40147
      H   38    0.10450      0.00000     0.39404    0.00146     0.39550
 =======================================================================
   * Total *    0.00000     15.99322    43.80713    0.19964    60.00000

 Normal termination of Gaussian 16 at Fri Dec 11 01:15:36 2020.
