 Gaussian 16, Revision A.03,

 -----------------------------------------------------------
 # opt freq B3LYP/6-31G(d) empiricaldispersion=gd3bj scf=xqc
 -----------------------------------------------------------

 -------------------------------
 CID_131246871_JID_1146_neutraal
 -------------------------------
 Symbolic Z-matrix:
 Charge =  0 Multiplicity = 1

 SCF Done:  E(RB3LYP) =  -512.818196210     A.U. after   15 cycles
 SCF Done:  E(RB3LYP) =  -512.822152327     A.U. after   12 cycles
 SCF Done:  E(RB3LYP) =  -512.822683146     A.U. after   12 cycles
 SCF Done:  E(RB3LYP) =  -512.822965254     A.U. after   12 cycles
 SCF Done:  E(RB3LYP) =  -512.823178235     A.U. after   11 cycles
 SCF Done:  E(RB3LYP) =  -512.823268223     A.U. after   11 cycles
 SCF Done:  E(RB3LYP) =  -512.823294163     A.U. after   10 cycles
 SCF Done:  E(RB3LYP) =  -512.823308508     A.U. after   10 cycles
 SCF Done:  E(RB3LYP) =  -512.823313079     A.U. after    9 cycles
 SCF Done:  E(RB3LYP) =  -512.823314816     A.U. after    8 cycles
 SCF Done:  E(RB3LYP) =  -512.823315150     A.U. after    8 cycles
 SCF Done:  E(RB3LYP) =  -512.823315201     A.U. after    7 cycles
 Optimization completed.
    -- Stationary point found.
 Normal termination of Gaussian 16 at Tue Dec  8 19:13:36 2020.

 --------------------------------------------------------------------
 #N Geom=AllCheck Guess=TCheck SCRF=Check GenChk RB3LYP/6-31G(d) Freq
 --------------------------------------------------------------------

 Structure from the checkpoint file:  "JID_1146.chk"
 -------------------------------
 CID_131246871_JID_1146_neutraal
 -------------------------------
 Charge =  0 Multiplicity = 1

 SCF Done:  E(RB3LYP) =  -512.823315201     A.U. after    1 cycles

  Exact polarizability: 149.881   6.692  90.773   2.808   6.176  58.830
 Approx polarizability: 192.450  18.429 150.729   9.524  19.147  89.069

                      1                      2                      3
                      A                      A                      A
 Frequencies --     47.2528                60.3309                80.0091
 Red. masses --      2.6077                 3.8268                 4.0567
 Frc consts  --      0.0034                 0.0082                 0.0153
 IR Inten    --      0.9890                 0.0411                 0.7170

                      4                      5                      6
                      A                      A                      A
 Frequencies --    113.0592               127.7450               161.8995
 Red. masses --      2.4749                 3.0706                 3.5358
 Frc consts  --      0.0186                 0.0295                 0.0546
 IR Inten    --      1.9426                 0.3229                 0.5486

                      7                      8                      9
                      A                      A                      A
 Frequencies --    219.8882               245.5450               302.4034
 Red. masses --      1.2611                 1.1985                 2.6678
 Frc consts  --      0.0359                 0.0426                 0.1437
 IR Inten    --     15.7239                41.3951                 9.6416

                     10                     11                     12
                      A                      A                      A
 Frequencies --    321.9320               354.4949               418.4808
 Red. masses --      2.1402                 3.8765                 3.5244
 Frc consts  --      0.1307                 0.2870                 0.3637
 IR Inten    --     18.3769                 1.1572                 1.3966

                     13                     14                     15
                      A                      A                      A
 Frequencies --    435.3206               497.5845               651.6772
 Red. masses --      4.8016                 4.5838                 4.3283
 Frc consts  --      0.5361                 0.6687                 1.0830
 IR Inten    --      1.0226                 0.2446                 6.8134

                     16                     17                     18
                      A                      A                      A
 Frequencies --    712.6234               755.2046               795.9382
 Red. masses --      5.5452                 2.8488                 1.7042
 Frc consts  --      1.6592                 0.9573                 0.6361
 IR Inten    --      4.0437                13.0127                15.8963

                     19                     20                     21
                      A                      A                      A
 Frequencies --    834.5908               870.4458               881.2280
 Red. masses --      3.1361                 1.9188                 1.3839
 Frc consts  --      1.2870                 0.8566                 0.6332
 IR Inten    --     21.4190                14.3822               110.1362

                     22                     23                     24
                      A                      A                      A
 Frequencies --    915.8925               926.3999              1015.7791
 Red. masses --      4.5405                 2.2314                 1.2563
 Frc consts  --      2.2441                 1.1283                 0.7637
 IR Inten    --     17.4807                 5.4353                23.7218

                     25                     26                     27
                      A                      A                      A
 Frequencies --   1019.4772              1032.8716              1037.0181
 Red. masses --      3.1003                 2.1982                 3.3435
 Frc consts  --      1.8985                 1.3817                 2.1185
 IR Inten    --      2.0548                17.1157                20.2389

                     28                     29                     30
                      A                      A                      A
 Frequencies --   1076.7409              1099.7761              1105.3444
 Red. masses --      4.2119                 2.0144                 1.9219
 Frc consts  --      2.8771                 1.4355                 1.3835
 IR Inten    --     11.2994                 4.0505                 2.4898

                     31                     32                     33
                      A                      A                      A
 Frequencies --   1157.4177              1185.5301              1239.4229
 Red. masses --      1.8559                 1.3473                 2.1478
 Frc consts  --      1.4648                 1.1157                 1.9439
 IR Inten    --      3.9960                20.9836                13.2299

                     34                     35                     36
                      A                      A                      A
 Frequencies --   1296.8131              1314.4830              1334.0789
 Red. masses --      1.3747                 1.2060                 1.3372
 Frc consts  --      1.3621                 1.2278                 1.4022
 IR Inten    --      2.8684                 5.0694                 1.3799

                     37                     38                     39
                      A                      A                      A
 Frequencies --   1351.3590              1382.8916              1405.3733
 Red. masses --      1.6028                 2.1124                 1.9454
 Frc consts  --      1.7245                 2.3802                 2.2638
 IR Inten    --     27.1581                44.4495                72.6559

                     40                     41                     42
                      A                      A                      A
 Frequencies --   1437.4701              1452.8195              1509.9004
 Red. masses --      1.2160                 2.1545                 1.0777
 Frc consts  --      1.4804                 2.6793                 1.4476
 IR Inten    --      2.0550                32.4821                 7.0279

                     43                     44                     45
                      A                      A                      A
 Frequencies --   1527.7005              1532.1423              1536.6111
 Red. masses --      1.0407                 1.0841                 1.0676
 Frc consts  --      1.4311                 1.4995                 1.4851
 IR Inten    --      6.2033                 1.9386                 2.8385

                     46                     47                     48
                      A                      A                      A
 Frequencies --   1568.6967              1620.5723              1690.4271
 Red. masses --      8.0506                 9.0221                 1.0953
 Frc consts  --     11.6723                13.9602                 1.8440
 IR Inten    --      7.7048               115.2391                30.0872

                     49                     50                     51
                      A                      A                      A
 Frequencies --   1731.0717              2956.5573              3027.6573
 Red. masses --      5.8820                 1.0735                 1.0652
 Frc consts  --     10.3849                 5.5287                 5.7528
 IR Inten    --     64.9490                67.2717                24.4086

                     52                     53                     54
                      A                      A                      A
 Frequencies --   3054.2080              3080.1981              3109.3473
 Red. masses --      1.0349                 1.0969                 1.0881
 Frc consts  --      5.6880                 6.1316                 6.1982
 IR Inten    --     32.0677                11.6538                15.9005

                     55                     56                     57
                      A                      A                      A
 Frequencies --   3123.6252              3130.5921              3170.9983
 Red. masses --      1.1025                 1.1037                 1.0900
 Frc consts  --      6.3379                 6.3732                 6.4577
 IR Inten    --     36.7096                31.1340                 4.7566

                     58                     59                     60
                      A                      A                      A
 Frequencies --   3200.9610              3472.5491              3561.3575
 Red. masses --      1.0895                 1.0495                 1.0928
 Frc consts  --      6.5771                 7.4566                 8.1664
 IR Inten    --      7.2445                 1.9673                 0.2190

 - Thermochemistry -
 -------------------
 Temperature   298.150 Kelvin.  Pressure   1.00000 Atm.
 Atom     1 has atomic number  6 and mass  12.00000

 Molecular mass:   153.09021 amu.
 Principal axes and moments of inertia in atomic units:
                           1         2         3
     Eigenvalues --   776.122573739.911614347.86445
           X            0.99997  -0.00445  -0.00663
           Y            0.00442   0.99998  -0.00412
           Z            0.00665   0.00409   0.99997
 This molecule is an asymmetric top.
 Rotational symmetry number  1.
 Warning -- assumption of classical behavior for rotation
           may cause significant error
 Rotational temperatures (Kelvin)      0.11160     0.02316     0.01992
 Rotational constants (GHZ):           2.32533     0.48256     0.41509
 Zero-point vibrational energy     480179.8 (Joules/Mol)
                                  114.76572 (Kcal/Mol)
 Warning -- explicit consideration of  14 degrees of freedom as
           vibrations may cause significant error
 Vibrational temperatures:     67.99    86.80   115.12   162.67   183.80
          (Kelvin)            232.94   316.37   353.28   435.09   463.19
                              510.04   602.10   626.33   715.91   937.62
                             1025.31  1086.57  1145.18  1200.79  1252.38
                             1267.89  1317.76  1332.88  1461.48  1466.80
                             1486.07  1492.04  1549.19  1582.33  1590.34
                             1665.27  1705.71  1783.25  1865.82  1891.25
                             1919.44  1944.30  1989.67  2022.02  2068.20
                             2090.28  2172.41  2198.02  2204.41  2210.84
                             2257.00  2331.64  2432.15  2490.63  4253.83
                             4356.12  4394.32  4431.72  4473.66  4494.20
                             4504.22  4562.36  4605.47  4996.22  5124.00

 Zero-point correction=                           0.182891 (Hartree/Particle)
 Thermal correction to Energy=                    0.194210
 Thermal correction to Enthalpy=                  0.195154
 Thermal correction to Gibbs Free Energy=         0.144496
 Sum of electronic and zero-point Energies=           -512.640424
 Sum of electronic and thermal Energies=              -512.629106
 Sum of electronic and thermal Enthalpies=            -512.628161
 Sum of electronic and thermal Free Energies=         -512.678819

                     E (Thermal)             CV                S
                      KCal/Mol        Cal/Mol-Kelvin    Cal/Mol-Kelvin
 Total                  121.868             40.158            106.618
 Electronic               0.000              0.000              0.000
 Translational            0.889              2.981             40.987
 Rotational               0.889              2.981             30.913
 Vibrational            120.091             34.196             34.717
 Vibration     1          0.595              1.979              4.929
 Vibration     2          0.597              1.973              4.446
 Vibration     3          0.600              1.963              3.891
 Vibration     4          0.607              1.939              3.216
 Vibration     5          0.611              1.925              2.980
 Vibration     6          0.622              1.889              2.527
 Vibration     7          0.647              1.811              1.960
 Vibration     8          0.660              1.770              1.762
 Vibration     9          0.694              1.669              1.404
 Vibration    10          0.707              1.632              1.300
 Vibration    11          0.730              1.566              1.146
 Vibration    12          0.781              1.430              0.897
 Vibration    13          0.796              1.393              0.841
 Vibration    14          0.853              1.255              0.664

                           ! Non-Optimized Parameters !
 Normal termination of Gaussian 16 at Tue Dec  8 19:17:08 2020.

 ----------------------------------------------------------------------
 # B3LYP/6-311++G(d,p) empiricaldispersion=gd3bj scf=xqc pop=npa geom=c
 heck
 ----------------------------------------------------------------------

 ---------------------------------------
 CID_131246871_JID_1146_Energie_neutraal
 ---------------------------------------
 Structure from the checkpoint file:  "JID_1146.chk"
 Charge =  0 Multiplicity = 1

 SCF Done:  E(RB3LYP) =  -512.972189818     A.U. after   14 cycles
 Normal termination of Gaussian 16 at Tue Dec  8 19:18:45 2020.

 ----------------------------------------------------------------------
 # B3LYP/6-311++G(d,p) empiricaldispersion=gd3bj scf=xqc pop=npa geom=c
 heck
 ----------------------------------------------------------------------

 -------------------------------------
 CID_131246871_JID_1146_Energie_kation
 -------------------------------------
 Structure from the checkpoint file:  "JID_1146.chk"
 Charge =  1 Multiplicity = 2

 SCF Done:  E(UB3LYP) =  -512.650018287     A.U. after   23 cycles
 Normal termination of Gaussian 16 at Tue Dec  8 19:22:20 2020.
 Gaussian 16:  ES64L-G16RevA.03 25-Dec-2016

 ----------------------------------------------------------------------
 # B3LYP/6-311++G(d,p) empiricaldispersion=gd3bj scf=xqc pop=npa geom=c
 heck
 ----------------------------------------------------------------------

 ------------------------------------
 CID_131246871_JID_1146_Energie_anion
 ------------------------------------
 Structure from the checkpoint file:  "JID_1146.chk"
 Charge = -1 Multiplicity = 2

                         Standard orientation:
 ---------------------------------------------------------------------
 Center     Atomic      Atomic             Coordinates (Angstroms)
 Number     Number       Type             X           Y           Z
 ---------------------------------------------------------------------
      1          6           0        4.332073    1.100061   -0.547542
      2          6           0        3.697126    0.085374    0.419329
      3          6           0        2.201804    0.148162    0.397046
      4          6           0        1.397464   -0.866717    0.049373
      5          6           0       -0.046046   -0.742028    0.027440
      6          7           0       -0.799191    0.288487    0.321054
      7          6           0       -2.067266   -0.198603    0.106177
      8          7           0       -2.121149   -1.446121   -0.291603
      9          8           0       -0.762628   -1.822076   -0.342895
     10          6           0       -3.287007    0.639158    0.330326
     11          7           0       -3.159861    1.893671   -0.417594
     12          1           0        4.035939    0.891397   -1.580778
     13          1           0        5.424685    1.059764   -0.488194
     14          1           0        4.017904    2.122344   -0.308356
     15          1           0        4.033284   -0.929492    0.175823
     16          1           0        4.047625    0.300929    1.439277
     17          1           0        1.741967    1.098911    0.665781
     18          1           0        1.795900   -1.836912   -0.234511
     19          1           0       -4.159030    0.085347   -0.029817
     20          1           0       -3.406550    0.768356    1.421578
     21          1           0       -3.933058    2.509748   -0.174108
     22          1           0       -2.305129    2.361526   -0.119428
 ---------------------------------------------------------------------

 SCF Done:  E(UB3LYP) =  -512.977510071     A.U. after   31 cycles

 The electronic state is 2-A.
 Alpha  occ. eigenvalues --  -19.04685 -14.20651 -14.19300 -14.15564 -10.10300
 Alpha  occ. eigenvalues --  -10.09496 -10.09322 -10.04494 -10.04012 -10.02097
 Alpha  occ. eigenvalues --  -10.01582  -1.00183  -0.79684  -0.76682  -0.72219
 Alpha  occ. eigenvalues --   -0.66746  -0.60647  -0.58004  -0.52040  -0.47072
 Alpha  occ. eigenvalues --   -0.45436  -0.41476  -0.38585  -0.36212  -0.34928
 Alpha  occ. eigenvalues --   -0.32906  -0.32622  -0.31255  -0.30404  -0.27202
 Alpha  occ. eigenvalues --   -0.26315  -0.25193  -0.24707  -0.22131  -0.20971
 Alpha  occ. eigenvalues --   -0.19036  -0.18350  -0.17321  -0.14979  -0.14320
 Alpha  occ. eigenvalues --   -0.10489   0.04713
 Alpha virt. eigenvalues --    0.07062   0.07981   0.10093   0.10430   0.10721
 Alpha virt. eigenvalues --    0.11193   0.11579   0.13311   0.13719   0.13842
 Alpha virt. eigenvalues --    0.14765   0.16169   0.16481   0.17029   0.17623

  Beta  occ. eigenvalues --  -19.04375 -14.20440 -14.19293 -14.15485 -10.10017
  Beta  occ. eigenvalues --  -10.09496 -10.09360 -10.04531 -10.03932 -10.02066
  Beta  occ. eigenvalues --  -10.01102  -0.99721  -0.79562  -0.76510  -0.71794
  Beta  occ. eigenvalues --   -0.66302  -0.60328  -0.57913  -0.51573  -0.46837
  Beta  occ. eigenvalues --   -0.45285  -0.40946  -0.38467  -0.36026  -0.34776
  Beta  occ. eigenvalues --   -0.32640  -0.31741  -0.31054  -0.30265  -0.27041
  Beta  occ. eigenvalues --   -0.26124  -0.24872  -0.24577  -0.21967  -0.20729
  Beta  occ. eigenvalues --   -0.18731  -0.17101  -0.16162  -0.14792  -0.14244
  Beta  occ. eigenvalues --   -0.08815
  Beta virt. eigenvalues --    0.07080   0.08115   0.10060   0.10430   0.10750
  Beta virt. eigenvalues --    0.11104   0.11348   0.11733   0.13342   0.13768
  Beta virt. eigenvalues --    0.13809   0.15332   0.16143   0.16534   0.17009

 Mulliken charges and spin densities:
               1          2
     1  C    0.486396  -1.060951
     2  C   -0.916895   0.602544
     3  C    0.225578   0.130844
     4  C   -0.417187  -0.098031
     5  C   -0.357973   0.126153
     6  N   -0.140800   0.044109
     7  C    0.751550  -0.070271
     8  N   -0.433395   0.100019
     9  O    0.119190   0.062363
    10  C   -0.401451   0.007894
    11  N   -0.374045  -0.012127
    12  H    0.056044   0.071256
    13  H   -0.502270   0.627528
    14  H   -0.036017   0.158493
    15  H    0.063726   0.058739
    16  H   -0.023351   0.150191
    17  H    0.136026  -0.009998
    18  H    0.140985  -0.005073
    19  H    0.161180   0.003127
    20  H    0.100185   0.020942
    21  H    0.145253   0.070647
    22  H    0.217272   0.021600
 Sum of Mulliken charges =  -1.00000   1.00000

 Dipole moment (field-independent basis, Debye):
    X=             -4.4829    Y=              0.8797    Z=              1.5017  Tot=              4.8089
 Quadrupole moment (field-independent basis, Debye-Ang):
   XX=           -127.6710   YY=            -84.8134   ZZ=            -79.8827
   XY=            -14.0839   XZ=             -5.2787   YZ=              2.1384

 Summary of Natural Population Analysis:

                                       Natural Population
                Natural  -----------------------------------------------
    Atom  No    Charge         Core      Valence    Rydberg      Total
 -----------------------------------------------------------------------
      C    1   -0.27668      0.99966     2.27212    0.00489     3.27668
      C    2   -0.21231      0.99964     2.20227    0.01040     3.21231
      C    3    0.04179      0.99955     1.94980    0.00887     2.95821
      C    4   -0.15644      0.99948     2.14785    0.00911     3.15644
      C    5    0.31787      0.99961     1.66417    0.01835     2.68213
      N    6   -0.28941      0.99966     2.77918    0.01057     3.78941
      C    7    0.15528      0.99966     1.82650    0.01856     2.84472
      N    8   -0.08547      0.99966     2.57366    0.01215     3.58547
      O    9   -0.15260      0.99986     3.14251    0.01024     4.15260
      C   10   -0.10461      0.99959     2.09418    0.01084     3.10461
      N   11   -0.41756      0.99977     2.90791    0.00988     3.91756
      H   12    0.09523      0.00000     0.40374    0.00103     0.40477
      H   13    0.09513      0.00000     0.40219    0.00268     0.40487
      H   14    0.09360      0.00000     0.40534    0.00106     0.40640
      H   15    0.09136      0.00000     0.40744    0.00120     0.40864
      H   16    0.09941      0.00000     0.39920    0.00139     0.40059
      H   17    0.08808      0.00000     0.41036    0.00156     0.41192
      H   18    0.09415      0.00000     0.40439    0.00145     0.40585
      H   19    0.09579      0.00000     0.40173    0.00248     0.40421
      H   20    0.08082      0.00000     0.41700    0.00217     0.41918
      H   21    0.16574      0.00000     0.33189    0.00237     0.33426
      H   22    0.18082      0.00000     0.31670    0.00248     0.31918
 =======================================================================
   * Total *   -0.00000     10.99613    29.86013    0.14374    41.00000

 Normal termination of Gaussian 16 at Tue Dec  8 19:27:10 2020.
