 Gaussian 16, Revision A.03,

 -----------------------------------------------------------
 # opt freq B3LYP/6-31G(d) empiricaldispersion=gd3bj scf=xqc
 -----------------------------------------------------------

 ------------------------------
 CID_38655246_JID_7810_neutraal
 ------------------------------
 Symbolic Z-matrix:
 Charge =  0 Multiplicity = 1

 SCF Done:  E(RB3LYP) =  -1127.57862219     A.U. after   15 cycles
 SCF Done:  E(RB3LYP) =  -1127.58687669     A.U. after   13 cycles
 SCF Done:  E(RB3LYP) =  -1127.58317490     A.U. after   14 cycles
 SCF Done:  E(RB3LYP) =  -1127.58734125     A.U. after   12 cycles
 SCF Done:  E(RB3LYP) =  -1127.58868928     A.U. after   13 cycles
 SCF Done:  E(RB3LYP) =  -1127.58789716     A.U. after   15 cycles
 SCF Done:  E(RB3LYP) =  -1127.58788517     A.U. after   13 cycles
 SCF Done:  E(RB3LYP) =  -1127.58875558     A.U. after   13 cycles
 SCF Done:  E(RB3LYP) =  -1127.59049819     A.U. after   13 cycles
 SCF Done:  E(RB3LYP) =  -1127.59071739     A.U. after   12 cycles
 SCF Done:  E(RB3LYP) =  -1127.59480236     A.U. after    7 cycles
 SCF Done:  E(RB3LYP) =  -1127.59480248     A.U. after    7 cycles
 SCF Done:  E(RB3LYP) =  -1127.59480259     A.U. after    7 cycles
 SCF Done:  E(RB3LYP) =  -1127.59480268     A.U. after    7 cycles
 SCF Done:  E(RB3LYP) =  -1127.59480273     A.U. after    7 cycles
 Optimization completed.
    -- Stationary point found.
 Normal termination of Gaussian 16 at Fri Dec 11 13:49:17 2020.

 --------------------------------------------------------------------
 #N Geom=AllCheck Guess=TCheck SCRF=Check GenChk RB3LYP/6-31G(d) Freq
 --------------------------------------------------------------------

 Structure from the checkpoint file:  "JID_7810.chk"
 ------------------------------
 CID_38655246_JID_7810_neutraal
 ------------------------------
 Charge =  0 Multiplicity = 1

 SCF Done:  E(RB3LYP) =  -1127.59480273     A.U. after    1 cycles

  Exact polarizability: 150.649   1.898 162.445   4.444   1.565 141.227
 Approx polarizability: 198.733   5.048 232.130  12.554   4.309 240.086

                      1                      2                      3
                      A                      A                      A
 Frequencies --     19.5805                40.8099                55.2631
 Red. masses --      4.7168                 2.6833                 2.3626
 Frc consts  --      0.0011                 0.0026                 0.0043
 IR Inten    --      0.3623                 0.1766                 0.3527

                      4                      5                      6
                      A                      A                      A
 Frequencies --     57.1632                68.8900                87.4701
 Red. masses --      4.0868                 3.9224                 3.7329
 Frc consts  --      0.0079                 0.0110                 0.0168
 IR Inten    --      0.0906                 0.1317                 3.5989

                      7                      8                      9
                      A                      A                      A
 Frequencies --     98.8300               133.6368               184.5701
 Red. masses --      4.5202                 6.6193                 2.7943
 Frc consts  --      0.0260                 0.0696                 0.0561
 IR Inten    --      0.1873                 1.4111                 0.3708

                     10                     11                     12
                      A                      A                      A
 Frequencies --    201.5541               212.8530               217.4863
 Red. masses --      4.3265                 2.0077                 1.2260
 Frc consts  --      0.1036                 0.0536                 0.0342
 IR Inten    --      2.4942                 2.6606                 0.8640

                     13                     14                     15
                      A                      A                      A
 Frequencies --    246.6425               251.4978               291.4771
 Red. masses --      2.2834                 1.6385                 2.0885
 Frc consts  --      0.0818                 0.0611                 0.1045
 IR Inten    --      2.0630                 2.3011                 0.5824

                     16                     17                     18
                      A                      A                      A
 Frequencies --    302.5753               308.5416               330.9635
 Red. masses --      2.7117                 3.7977                 2.4205
 Frc consts  --      0.1463                 0.2130                 0.1562
 IR Inten    --      2.0656                 4.6518                 0.8282

                     19                     20                     21
                      A                      A                      A
 Frequencies --    370.1103               377.6747               450.2465
 Red. masses --      3.7449                 6.4414                 1.6414
 Frc consts  --      0.3022                 0.5413                 0.1960
 IR Inten    --      6.0831                15.4943               104.8155

                     22                     23                     24
                      A                      A                      A
 Frequencies --    455.7451               473.0504               481.3035
 Red. masses --      2.1048                 3.0930                 2.1815
 Frc consts  --      0.2576                 0.4078                 0.2977
 IR Inten    --     12.0191                 3.9532                 0.5272

                     25                     26                     27
                      A                      A                      A
 Frequencies --    566.9529               623.6337               635.7270
 Red. masses --      3.5959                 2.5444                 5.8505
 Frc consts  --      0.6810                 0.5830                 1.3931
 IR Inten    --      5.3476                 1.2757                15.9622

                     28                     29                     30
                      A                      A                      A
 Frequencies --    650.6972               670.6670               720.9228
 Red. masses --      3.3176                 5.2095                 4.3107
 Frc consts  --      0.8276                 1.3806                 1.3200
 IR Inten    --      3.2559                 2.4510                15.1954

                     31                     32                     33
                      A                      A                      A
 Frequencies --    746.1349               759.2255               766.9245
 Red. masses --      8.3391                 1.6645                 5.1546
 Frc consts  --      2.7353                 0.5653                 1.7863
 IR Inten    --      4.7038                 5.7535                26.3802

                     34                     35                     36
                      A                      A                      A
 Frequencies --    812.6034               847.3368               865.2640
 Red. masses --      1.9485                 2.0235                 2.9193
 Frc consts  --      0.7581                 0.8560                 1.2877
 IR Inten    --      3.4953                 9.3781                 4.7421

                     37                     38                     39
                      A                      A                      A
 Frequencies --    899.8121               919.6038               934.6023
 Red. masses --      2.8050                 2.4182                 2.5785
 Frc consts  --      1.3381                 1.2049                 1.3270
 IR Inten    --      1.7414                 9.2282                 0.2442

                     40                     41                     42
                      A                      A                      A
 Frequencies --    949.3434               959.8657               965.0282
 Red. masses --      2.0608                 1.5214                 2.0185
 Frc consts  --      1.0943                 0.8259                 1.1076
 IR Inten    --      1.3718                 1.4852                 1.6166

                     43                     44                     45
                      A                      A                      A
 Frequencies --    969.4245               981.4920              1005.1078
 Red. masses --      2.1947                 1.7318                 1.5949
 Frc consts  --      1.2152                 0.9829                 0.9493
 IR Inten    --      6.1676                 1.0659                 4.6877

                     46                     47                     48
                      A                      A                      A
 Frequencies --   1005.9068              1037.7266              1061.2068
 Red. masses --      1.5011                 1.3186                 2.1664
 Frc consts  --      0.8949                 0.8366                 1.4374
 IR Inten    --      3.4138                 1.1784                 1.2420

                     49                     50                     51
                      A                      A                      A
 Frequencies --   1070.4392              1108.1472              1139.7425
 Red. masses --      2.4386                 3.3414                 1.9492
 Frc consts  --      1.6463                 2.4175                 1.4919
 IR Inten    --     10.0214                 4.6415                48.7163

                     52                     53                     54
                      A                      A                      A
 Frequencies --   1179.8208              1197.6462              1203.4389
 Red. masses --      1.2549                 3.2456                 3.5340
 Frc consts  --      1.0292                 2.7428                 3.0155
 IR Inten    --      6.6397                10.9949                10.3559

                     55                     56                     57
                      A                      A                      A
 Frequencies --   1221.7474              1240.9497              1246.3172
 Red. masses --      1.4447                 1.3542                 2.0508
 Frc consts  --      1.2706                 1.2287                 1.8768
 IR Inten    --      0.8973                 7.3840                 5.9511

                     58                     59                     60
                      A                      A                      A
 Frequencies --   1266.5182              1278.8270              1293.5236
 Red. masses --      1.4040                 1.2172                 2.1743
 Frc consts  --      1.3269                 1.1729                 2.1435
 IR Inten    --      2.9310                 3.5625                33.4100

                     61                     62                     63
                      A                      A                      A
 Frequencies --   1296.8704              1316.4086              1330.6666
 Red. masses --      1.2923                 1.3091                 1.6826
 Frc consts  --      1.2806                 1.3366                 1.7553
 IR Inten    --     16.4458                 6.3454                36.4361

                     64                     65                     66
                      A                      A                      A
 Frequencies --   1341.8580              1354.0568              1367.6918
 Red. masses --      1.3009                 1.2996                 1.3252
 Frc consts  --      1.3801                 1.4039                 1.4605
 IR Inten    --      6.4832                 0.8173                 9.7721

                     67                     68                     69
                      A                      A                      A
 Frequencies --   1370.7885              1378.0972              1413.3084
 Red. masses --      1.4132                 1.4751                 1.8305
 Frc consts  --      1.5646                 1.6505                 2.1543
 IR Inten    --     65.7556                 6.5275                 5.7013

                     70                     71                     72
                      A                      A                      A
 Frequencies --   1420.2668              1423.1372              1440.2557
 Red. masses --      1.5126                 1.2354                 1.5163
 Frc consts  --      1.7977                 1.4742                 1.8532
 IR Inten    --     44.0903                 5.7904                48.5777

                     73                     74                     75
                      A                      A                      A
 Frequencies --   1459.1756              1490.9329              1506.5753
 Red. masses --      2.5261                 1.0927                 1.1358
 Frc consts  --      3.1690                 1.4311                 1.5189
 IR Inten    --    171.1252                 8.7653                34.8915

                     76                     77                     78
                      A                      A                      A
 Frequencies --   1510.6433              1512.7958              1516.1625
 Red. masses --      1.0471                 1.0494                 1.0753
 Frc consts  --      1.4079                 1.4149                 1.4564
 IR Inten    --      0.7034                 1.6737                 0.7524

                     79                     80                     81
                      A                      A                      A
 Frequencies --   1525.9566              1528.4259              1530.3544
 Red. masses --      1.0882                 1.0855                 1.0688
 Frc consts  --      1.4930                 1.4941                 1.4748
 IR Inten    --      3.6438                 7.3042                 4.3833

                     82                     83                     84
                      A                      A                      A
 Frequencies --   1536.7470              1549.7505              1817.6638
 Red. masses --      1.0645                 1.1030                11.4977
 Frc consts  --      1.4812                 1.5608                22.3815
 IR Inten    --      6.7716                 3.3395               632.6964

                     85                     86                     87
                      A                      A                      A
 Frequencies --   1872.2487              3053.7901              3056.5050
 Red. masses --     11.1103                 1.0693                 1.0353
 Frc consts  --     22.9457                 5.8751                 5.6984
 IR Inten    --     65.4858                26.2109                17.1007

                     88                     89                     90
                      A                      A                      A
 Frequencies --   3057.0267              3060.2651              3064.1257
 Red. masses --      1.0627                 1.0655                 1.0630
 Frc consts  --      5.8516                 5.8791                 5.8802
 IR Inten    --      2.2544                26.6672                33.4922

                     91                     92                     93
                      A                      A                      A
 Frequencies --   3064.6287              3070.3601              3087.8762
 Red. masses --      1.0396                 1.0644                 1.0644
 Frc consts  --      5.7530                 5.9118                 5.9798
 IR Inten    --      5.4584                46.1699                24.0619

                     94                     95                     96
                      A                      A                      A
 Frequencies --   3094.3705              3107.8891              3114.5022
 Red. masses --      1.0991                 1.0928                 1.0970
 Frc consts  --      6.2006                 6.2191                 6.2695
 IR Inten    --     16.1105                10.0039                20.8445

                     97                     98                     99
                      A                      A                      A
 Frequencies --   3124.5236              3127.0830              3135.8893
 Red. masses --      1.0968                 1.1029                 1.1013
 Frc consts  --      6.3086                 6.3545                 6.3809
 IR Inten    --     60.8207                17.6467                24.7323

                    100                    101                    102
                      A                      A                      A
 Frequencies --   3138.2298              3143.3677              3147.0980
 Red. masses --      1.0996                 1.0995                 1.1028
 Frc consts  --      6.3804                 6.4005                 6.4353
 IR Inten    --     23.3851                 1.0385                 8.0675

                    103                    104                    105
                      A                      A                      A
 Frequencies --   3154.4332              3159.1091              3635.1186
 Red. masses --      1.1031                 1.0990                 1.0782
 Frc consts  --      6.4670                 6.4621                 8.3946
 IR Inten    --     13.0780                 4.0314                39.1651

 - Thermochemistry -
 -------------------
 Temperature   298.150 Kelvin.  Pressure   1.00000 Atm.
 Atom     1 has atomic number  6 and mass  12.00000

 Molecular mass:   256.12455 amu.
 Principal axes and moments of inertia in atomic units:
                           1         2         3
     Eigenvalues --  3210.083865051.131265889.15543
           X            0.99994  -0.00640   0.00867
           Y            0.00608   0.99934   0.03592
           Z           -0.00889  -0.03586   0.99932
 This molecule is an asymmetric top.
 Rotational symmetry number  1.
 Warning -- assumption of classical behavior for rotation
           may cause significant error
 Rotational temperatures (Kelvin)      0.02698     0.01715     0.01471
 Rotational constants (GHZ):           0.56221     0.35729     0.30645
 Zero-point vibrational energy     836951.1 (Joules/Mol)
                                  200.03611 (Kcal/Mol)
 Warning -- explicit consideration of  25 degrees of freedom as
           vibrations may cause significant error
 Vibrational temperatures:     28.17    58.72    79.51    82.25    99.12
          (Kelvin)            125.85   142.19   192.27   265.56   289.99
                              306.25   312.91   354.86   361.85   419.37
                              435.34   443.92   476.18   532.51   543.39
                              647.80   655.72   680.61   692.49   815.72
                              897.27   914.67   936.21   964.94  1037.25
                             1073.52  1092.36  1103.43  1169.16  1219.13
                             1244.92  1294.63  1323.10  1344.68  1365.89
                             1381.03  1388.46  1394.79  1412.15  1446.13
                             1447.28  1493.06  1526.84  1540.12  1594.38
                             1639.84  1697.50  1723.15  1731.48  1757.82
                             1785.45  1793.17  1822.24  1839.95  1861.09
                             1865.91  1894.02  1914.53  1930.63  1948.19
                             1967.80  1972.26  1982.77  2033.44  2043.45
                             2047.58  2072.21  2099.43  2145.12  2167.63
                             2173.48  2176.58  2181.42  2195.51  2199.06
                             2201.84  2211.04  2229.75  2615.21  2693.75
                             4393.72  4397.63  4398.38  4403.04  4408.59
                             4409.32  4417.56  4442.77  4452.11  4471.56
                             4481.07  4495.49  4499.17  4511.85  4515.21
                             4522.61  4527.97  4538.53  4545.25  5230.12

 Zero-point correction=                           0.318778 (Hartree/Particle)
 Thermal correction to Energy=                    0.336648
 Thermal correction to Enthalpy=                  0.337593
 Thermal correction to Gibbs Free Energy=         0.271545
 Sum of electronic and zero-point Energies=          -1127.276025
 Sum of electronic and thermal Energies=             -1127.258154
 Sum of electronic and thermal Enthalpies=           -1127.257210
 Sum of electronic and thermal Free Energies=        -1127.323258

                     E (Thermal)             CV                S
                      KCal/Mol        Cal/Mol-Kelvin    Cal/Mol-Kelvin
 Total                  211.250             66.730            139.009
 Electronic               0.000              0.000              0.000
 Translational            0.889              2.981             42.521
 Rotational               0.889              2.981             32.923
 Vibrational            209.473             60.768             63.564
 Vibration     1          0.593              1.986              6.676
 Vibration     2          0.594              1.981              5.219
 Vibration     3          0.596              1.975              4.620
 Vibration     4          0.596              1.975              4.553
 Vibration     5          0.598              1.969              4.185
 Vibration     6          0.601              1.958              3.716
 Vibration     7          0.604              1.950              3.477
 Vibration     8          0.613              1.920              2.893
 Vibration     9          0.631              1.861              2.282
 Vibration    10          0.638              1.838              2.119
 Vibration    11          0.644              1.821              2.019
 Vibration    12          0.646              1.814              1.980
 Vibration    13          0.661              1.768              1.754
 Vibration    14          0.663              1.760              1.720
 Vibration    15          0.687              1.690              1.465
 Vibration    16          0.694              1.669              1.403
 Vibration    17          0.698              1.657              1.370
 Vibration    18          0.713              1.614              1.255
 Vibration    19          0.742              1.534              1.079
 Vibration    20          0.748              1.518              1.048
 Vibration    21          0.809              1.360              0.795
 Vibration    22          0.814              1.348              0.779
 Vibration    23          0.830              1.310              0.729
 Vibration    24          0.838              1.292              0.707
 Vibration    25          0.923              1.103              0.510

 Optimization completed.
    -- Stationary point found.
 Normal termination of Gaussian 16 at Fri Dec 11 14:04:26 2020.

 ----------------------------------------------------------------------
 # B3LYP/6-311++G(d,p) empiricaldispersion=gd3bj scf=xqc pop=npa geom=c
 heck
 ----------------------------------------------------------------------

 --------------------------------------
 CID_38655246_JID_7810_Energie_neutraal
 --------------------------------------
 Structure from the checkpoint file:  "JID_7810.chk"
 Charge =  0 Multiplicity = 1

 SCF Done:  E(RB3LYP) =  -1127.82909371     A.U. after   15 cycles
 Normal termination of Gaussian 16 at Fri Dec 11 14:11:00 2020.

 ----------------------------------------------------------------------
 # B3LYP/6-311++G(d,p) empiricaldispersion=gd3bj scf=xqc pop=npa geom=c
 heck
 ----------------------------------------------------------------------

 ------------------------------------
 CID_38655246_JID_7810_Energie_kation
 ------------------------------------
 Structure from the checkpoint file:  "JID_7810.chk"
 Charge =  1 Multiplicity = 2

 SCF Done:  E(UB3LYP) =  -1127.53008937     A.U. after   27 cycles
 Normal termination of Gaussian 16 at Fri Dec 11 14:26:48 2020.
 Gaussian 16:  ES64L-G16RevA.03 25-Dec-2016

 ----------------------------------------------------------------------
 # B3LYP/6-311++G(d,p) empiricaldispersion=gd3bj scf=xqc pop=npa geom=c
 heck
 ----------------------------------------------------------------------

 -----------------------------------
 CID_38655246_JID_7810_Energie_anion
 -----------------------------------
 Structure from the checkpoint file:  "JID_7810.chk"
 Charge = -1 Multiplicity = 2

                         Standard orientation:
 ---------------------------------------------------------------------
 Center     Atomic      Atomic             Coordinates (Angstroms)
 Number     Number       Type             X           Y           Z
 ---------------------------------------------------------------------
      1          6           0       -3.740267   -1.224210   -0.071278
      2          6           0       -2.214142   -1.080781   -0.168874
      3          6           0       -1.876776    0.296279   -0.772644
      4          8           0       -2.123390    0.660377   -1.903347
      5          7           0       -1.270550    1.034322    0.225277
      6          6           0       -1.158431    0.307604    1.426312
      7          8           0       -0.737264    0.748584    2.479793
      8          7           0       -1.584376   -0.968286    1.149129
      9          6           0       -0.786786    2.398824    0.071312
     10          6           0        0.726631    2.532679    0.256254
     11         16           0        1.757203    1.650436   -0.976161
     12          6           0        1.792941   -0.061354   -0.320947
     13          6           0        2.685170   -0.952165   -1.200609
     14          6           0        2.967686   -2.197130   -0.317950
     15          6           0        2.593085   -1.782498    1.135124
     16          6           0        2.376997   -0.258093    1.082975
     17          6           0       -1.599070   -2.199642   -1.015068
     18          1           0       -4.180830   -1.165039   -1.070424
     19          1           0       -4.168329   -0.428172    0.546331
     20          1           0       -4.004379   -2.191331    0.371059
     21          1           0       -1.830587   -1.569923    1.922704
     22          1           0       -1.088673    2.709204   -0.930965
     23          1           0       -1.293853    3.031152    0.809682
     24          1           0        0.989755    3.589756    0.145962
     25          1           0        1.012405    2.227640    1.264493
     26          1           0        0.776907   -0.461791   -0.338710
     27          1           0        2.215627   -1.196688   -2.158017
     28          1           0        3.618366   -0.419540   -1.420122
     29          1           0        4.017170   -2.497690   -0.395115
     30          1           0        2.370507   -3.055307   -0.644040
     31          1           0        3.354707   -2.070083    1.866439
     32          1           0        1.658295   -2.269429    1.436837
     33          1           0        3.332419    0.276830    1.151721
     34          1           0        1.722447    0.102201    1.880290
     35          1           0       -1.857452   -3.178833   -0.597656
     36          1           0       -1.982694   -2.138562   -2.037181
     37          1           0       -0.509576   -2.112391   -1.044776
 ---------------------------------------------------------------------

 SCF Done:  E(UB3LYP) =  -1127.81994834     A.U. after   33 cycles
 SCF Done:  E(UB3LYP) =  -1127.81994834     a.u. after    1 cycles

 The electronic state is 2-A.
 Alpha  occ. eigenvalues --  -88.74962 -19.02401 -19.01361 -14.27924 -14.24932
 Alpha  occ. eigenvalues --  -10.22114 -10.19997 -10.14608 -10.13647 -10.11939
 Alpha  occ. eigenvalues --  -10.10989 -10.08184 -10.07635 -10.07601 -10.07463
 Alpha  occ. eigenvalues --  -10.07366 -10.07295  -7.83587  -5.79987  -5.79613
 Alpha  occ. eigenvalues --   -5.78953  -0.99139  -0.96359  -0.89192  -0.83324
 Alpha  occ. eigenvalues --   -0.75994  -0.71408  -0.70120  -0.65648  -0.62365
 Alpha  occ. eigenvalues --   -0.60802  -0.60455  -0.56826  -0.54986  -0.51127
 Alpha  occ. eigenvalues --   -0.49054  -0.47723  -0.47223  -0.42877  -0.42081
 Alpha  occ. eigenvalues --   -0.39616  -0.39041  -0.38482  -0.37213  -0.36391
 Alpha  occ. eigenvalues --   -0.35887  -0.34951  -0.34149  -0.33397  -0.32667
 Alpha  occ. eigenvalues --   -0.32233  -0.31383  -0.30799  -0.29818  -0.28846
 Alpha  occ. eigenvalues --   -0.28684  -0.27501  -0.27016  -0.25624  -0.25065
 Alpha  occ. eigenvalues --   -0.24806  -0.24307  -0.22984  -0.21726  -0.20430
 Alpha  occ. eigenvalues --   -0.19586  -0.18274  -0.17524  -0.13855   0.04175
 Alpha virt. eigenvalues --    0.06115   0.06363   0.07198   0.07913   0.08117
 Alpha virt. eigenvalues --    0.08739   0.09103   0.09620   0.09938   0.10268
 Alpha virt. eigenvalues --    0.11074   0.11422   0.11535   0.11997   0.12217

  Beta  occ. eigenvalues --  -88.74960 -19.02397 -19.01356 -14.27918 -14.24891
  Beta  occ. eigenvalues --  -10.22113 -10.19994 -10.14608 -10.13642 -10.11938
  Beta  occ. eigenvalues --  -10.10983 -10.08177 -10.07581 -10.07576 -10.07458
  Beta  occ. eigenvalues --  -10.07322 -10.07276  -7.83585  -5.79984  -5.79609
  Beta  occ. eigenvalues --   -5.78952  -0.99127  -0.96351  -0.89176  -0.83289
  Beta  occ. eigenvalues --   -0.75979  -0.71393  -0.70077  -0.65624  -0.62339
  Beta  occ. eigenvalues --   -0.60714  -0.60423  -0.56790  -0.54951  -0.51076
  Beta  occ. eigenvalues --   -0.49021  -0.47671  -0.47199  -0.42828  -0.42053
  Beta  occ. eigenvalues --   -0.39584  -0.39022  -0.38445  -0.37178  -0.36367
  Beta  occ. eigenvalues --   -0.35856  -0.34929  -0.34132  -0.33378  -0.32644
  Beta  occ. eigenvalues --   -0.32202  -0.31356  -0.30783  -0.29775  -0.28798
  Beta  occ. eigenvalues --   -0.28629  -0.27482  -0.26973  -0.25602  -0.25040
  Beta  occ. eigenvalues --   -0.24783  -0.24285  -0.22957  -0.21711  -0.20413
  Beta  occ. eigenvalues --   -0.19577  -0.18256  -0.17494  -0.13847
  Beta virt. eigenvalues --    0.06217   0.06488   0.07269   0.07326   0.08253
  Beta virt. eigenvalues --    0.08757   0.08956   0.09635   0.09941   0.09987
  Beta virt. eigenvalues --    0.10748   0.11447   0.11515   0.11975   0.12308

 Mulliken charges and spin densities:
               1          2
     1  C    0.967524  -1.493705
     2  C   -1.261311   1.849640
     3  C    0.342642  -0.887612
     4  O   -0.246849   0.004988
     5  N    0.054309   0.051201
     6  C    0.255286  -0.533050
     7  O   -0.338748   0.037563
     8  N   -0.293652   0.158805
     9  C    0.405567  -0.481019
    10  C   -0.651153   0.198955
    11  S   -0.018300  -0.071683
    12  C    0.584002   0.036434
    13  C   -0.087396  -0.139017
    14  C    0.116596  -0.589634
    15  C    0.260547  -0.658136
    16  C   -0.954458   0.490370
    17  C    0.553553  -1.042488
    18  H   -0.016674   0.186098
    19  H   -0.337011   0.498598
    20  H   -0.681781   0.876039
    21  H   -0.220071   0.568748
    22  H    0.184266  -0.010270
    23  H    0.064228   0.111076
    24  H    0.153964   0.051873
    25  H    0.212305   0.016727
    26  H    0.248334  -0.337284
    27  H    0.053169   0.137285
    28  H    0.087163   0.061004
    29  H   -0.083232   0.233294
    30  H   -0.191722   0.342314
    31  H   -0.191180   0.366644
    32  H   -0.019039   0.183235
    33  H    0.024259   0.147421
    34  H    0.153718   0.006005
    35  H   -0.660718   0.863448
    36  H   -0.056399   0.235257
    37  H    0.588262  -0.469123
 Sum of Mulliken charges =  -1.00000   1.00000

 Dipole moment (field-independent basis, Debye):
    X=              4.6292    Y=              7.6942    Z=             -1.9727  Tot=              9.1936
 Quadrupole moment (field-independent basis, Debye-Ang):
   XX=           -181.2029   YY=           -165.1002   ZZ=           -156.9899
   XY=            -12.0089   XZ=              3.7152   YZ=              7.6850

 Summary of Natural Population Analysis:

                                       Natural Population
                Natural  -----------------------------------------------
    Atom  No    Charge         Core      Valence    Rydberg      Total
 -----------------------------------------------------------------------
      C    1   -0.28395      0.99961     2.27724    0.00710     3.28395
      C    2    0.02234      0.99955     1.96348    0.01463     2.97766
      C    3    0.36289      0.99959     1.61321    0.02432     2.63711
      O    4   -0.30122      0.99987     3.29596    0.00539     4.30122
      N    5   -0.26893      0.99958     2.75823    0.01111     3.76893
      C    6    0.41450      0.99967     1.56168    0.02415     2.58550
      O    7   -0.32072      0.99987     3.31570    0.00515     4.32072
      N    8   -0.32667      0.99965     2.81441    0.01261     3.82667
      C    9   -0.09303      0.99960     2.08159    0.01184     3.09303
      C   10   -0.26061      0.99957     2.25163    0.00941     3.26061
      S   11    0.09404      4.99958     2.89061    0.01577     7.90596
      C   12   -0.17626      0.99952     2.16377    0.01297     3.17626
      C   13   -0.19252      0.99961     2.18424    0.00867     3.19252
      C   14   -0.19270      0.99965     2.18533    0.00773     3.19270
      C   15   -0.19239      0.99964     2.18460    0.00815     3.19239
      C   16   -0.19865      0.99959     2.19029    0.00877     3.19865
      C   17   -0.28220      0.99961     2.27509    0.00750     3.28220
      H   18    0.10888      0.00000     0.38998    0.00114     0.39112
      H   19    0.10356      0.00000     0.39488    0.00157     0.39644
      H   20    0.11084      0.00000     0.38530    0.00386     0.38916
      H   21    0.20840      0.00000     0.28485    0.00675     0.29160
      H   22    0.11292      0.00000     0.38570    0.00137     0.38708
      H   23    0.10320      0.00000     0.39563    0.00117     0.39680
      H   24    0.10623      0.00000     0.39294    0.00083     0.39377
      H   25    0.11487      0.00000     0.38371    0.00143     0.38513
      H   26    0.09977      0.00000     0.39660    0.00363     0.40023
      H   27    0.10378      0.00000     0.39541    0.00080     0.39622
      H   28    0.09734      0.00000     0.40142    0.00125     0.40266
      H   29    0.09728      0.00000     0.40174    0.00098     0.40272
      H   30    0.10096      0.00000     0.39776    0.00128     0.39904
      H   31    0.09964      0.00000     0.39943    0.00093     0.40036
      H   32    0.10168      0.00000     0.39652    0.00179     0.39832
      H   33    0.09545      0.00000     0.40322    0.00134     0.40455
      H   34    0.11056      0.00000     0.38831    0.00112     0.38944
      H   35    0.10974      0.00000     0.38800    0.00226     0.39026
      H   36    0.10848      0.00000     0.39044    0.00107     0.39152
      H   37    0.10248      0.00000     0.39562    0.00191     0.39752
 =======================================================================
   * Total *   -0.00000     20.99378    47.77450    0.23171    69.00000

 Normal termination of Gaussian 16 at Fri Dec 11 14:46:09 2020.
