 Gaussian 16, Revision A.03,

 -----------------------------------------------------------
 # opt freq B3LYP/6-31G(d) empiricaldispersion=gd3bj scf=xqc
 -----------------------------------------------------------

 -------------------------------
 CID_123418432_JID_3079_neutraal
 -------------------------------
 Symbolic Z-matrix:
 Charge =  0 Multiplicity = 1

 SCF Done:  E(RB3LYP) =  -543.154145859     A.U. after   13 cycles
 SCF Done:  E(RB3LYP) =  -543.159350426     A.U. after   11 cycles
 SCF Done:  E(RB3LYP) =  -543.162402219     A.U. after   11 cycles
 SCF Done:  E(RB3LYP) =  -543.163348662     A.U. after   13 cycles
 SCF Done:  E(RB3LYP) =  -543.164892294     A.U. after   11 cycles
 SCF Done:  E(RB3LYP) =  -543.165337555     A.U. after   10 cycles
 SCF Done:  E(RB3LYP) =  -543.165769891     A.U. after   10 cycles
 SCF Done:  E(RB3LYP) =  -543.165877813     A.U. after   10 cycles
 SCF Done:  E(RB3LYP) =  -543.165885827     A.U. after    8 cycles
 SCF Done:  E(RB3LYP) =  -543.165887066     A.U. after    7 cycles
 Optimization completed.
    -- Stationary point found.
 Normal termination of Gaussian 16 at Wed Dec  9 22:24:37 2020.

 --------------------------------------------------------------------
 #N Geom=AllCheck Guess=TCheck SCRF=Check GenChk RB3LYP/6-31G(d) Freq
 --------------------------------------------------------------------

 Structure from the checkpoint file:  "JID_3079.chk"
 -------------------------------
 CID_123418432_JID_3079_neutraal
 -------------------------------
 Charge =  0 Multiplicity = 1

 SCF Done:  E(RB3LYP) =  -543.165887066     A.U. after    1 cycles

  Exact polarizability: 154.951   1.110 124.025  -1.099  -0.334 112.691
 Approx polarizability: 179.511   0.613 174.697  -3.588   2.759 171.750

                      1                      2                      3
                      A                      A                      A
 Frequencies --     43.0383                51.2507               101.3095
 Red. masses --      2.9450                 3.0667                 2.2657
 Frc consts  --      0.0032                 0.0047                 0.0137
 IR Inten    --      0.0617                 0.1477                 0.0607

                      4                      5                      6
                      A                      A                      A
 Frequencies --    103.5310               118.0964               128.7080
 Red. masses --      2.8700                 2.0321                 2.8613
 Frc consts  --      0.0181                 0.0167                 0.0279
 IR Inten    --      0.1380                 0.0596                 0.8350

                      7                      8                      9
                      A                      A                      A
 Frequencies --    213.9986               225.2767               233.9421
 Red. masses --      1.3970                 1.4568                 1.5410
 Frc consts  --      0.0377                 0.0436                 0.0497
 IR Inten    --      0.2502                 0.1879                 0.5677

                     10                     11                     12
                      A                      A                      A
 Frequencies --    239.2595               248.6597               278.2475
 Red. masses --      1.6770                 1.5146                 1.9346
 Frc consts  --      0.0566                 0.0552                 0.0882
 IR Inten    --      0.6045                 0.1879                 0.3542

                     13                     14                     15
                      A                      A                      A
 Frequencies --    282.3772               313.5409               350.3888
 Red. masses --      1.9017                 2.2584                 2.6152
 Frc consts  --      0.0893                 0.1308                 0.1892
 IR Inten    --      0.8887                 1.8073                 3.3986

                     16                     17                     18
                      A                      A                      A
 Frequencies --    379.5759               425.8807               429.7501
 Red. masses --      2.9754                 2.2938                 1.7468
 Frc consts  --      0.2526                 0.2451                 0.1901
 IR Inten    --      2.3678                 0.5785                 1.5579

                     19                     20                     21
                      A                      A                      A
 Frequencies --    460.3864               479.2926               513.1139
 Red. masses --      2.5506                 2.4262                 2.5475
 Frc consts  --      0.3185                 0.3284                 0.3952
 IR Inten    --      1.3163                 2.0231                 1.4289

                     22                     23                     24
                      A                      A                      A
 Frequencies --    546.1025               620.8641               711.7037
 Red. masses --      2.4984                 2.7855                 2.2395
 Frc consts  --      0.4390                 0.6326                 0.6683
 IR Inten    --      3.8218                 4.5786                29.8880

                     25                     26                     27
                      A                      A                      A
 Frequencies --    782.9273               794.4646               807.6703
 Red. masses --      2.3962                 1.2262                 1.4877
 Frc consts  --      0.8654                 0.4560                 0.5718
 IR Inten    --      0.7216                 6.6540                 0.2043

                     28                     29                     30
                      A                      A                      A
 Frequencies --    823.8807               829.2093               880.2319
 Red. masses --      1.1431                 2.2228                 1.8652
 Frc consts  --      0.4571                 0.9005                 0.8514
 IR Inten    --      2.5939                14.6056                20.7022

                     31                     32                     33
                      A                      A                      A
 Frequencies --    911.2447               929.4239               943.0697
 Red. masses --      1.7276                 2.2163                 1.4149
 Frc consts  --      0.8452                 1.1280                 0.7414
 IR Inten    --      2.2197                 2.0574                 1.2021

                     34                     35                     36
                      A                      A                      A
 Frequencies --    963.9283               992.5456              1009.1823
 Red. masses --      1.8826                 1.4843                 1.8884
 Frc consts  --      1.0306                 0.8615                 1.1331
 IR Inten    --      0.4368                 2.3982                17.7924

                     37                     38                     39
                      A                      A                      A
 Frequencies --   1032.5948              1035.5708              1070.9049
 Red. masses --      2.7186                 1.6797                 2.1042
 Frc consts  --      1.7079                 1.0613                 1.4218
 IR Inten    --      6.0399                 3.4051                 9.0901

                     40                     41                     42
                      A                      A                      A
 Frequencies --   1083.0270              1086.8139              1099.2879
 Red. masses --      1.7919                 1.1829                 2.3124
 Frc consts  --      1.2383                 0.8232                 1.6464
 IR Inten    --     11.6538                 0.0979                 2.4527

                     43                     44                     45
                      A                      A                      A
 Frequencies --   1112.8105              1121.0380              1128.6613
 Red. masses --      1.9731                 2.2406                 2.0695
 Frc consts  --      1.4396                 1.6590                 1.5532
 IR Inten    --     14.1342                 5.9193                17.5565

                     46                     47                     48
                      A                      A                      A
 Frequencies --   1160.1720              1193.5247              1208.4549
 Red. masses --      3.0488                 2.0585                 2.2927
 Frc consts  --      2.4178                 1.7277                 1.9727
 IR Inten    --     11.2629                 1.1123                 0.7776

                     49                     50                     51
                      A                      A                      A
 Frequencies --   1224.1082              1238.0881              1257.6087
 Red. masses --      2.1957                 2.2226                 1.3908
 Frc consts  --      1.9385                 2.0073                 1.2960
 IR Inten    --     10.6578                 3.9555                 1.2616

                     52                     53                     54
                      A                      A                      A
 Frequencies --   1284.7628              1294.2013              1336.9391
 Red. masses --      1.3214                 1.3139                 1.2099
 Frc consts  --      1.2850                 1.2967                 1.2742
 IR Inten    --     12.1692                 1.0324                 4.2754

                     55                     56                     57
                      A                      A                      A
 Frequencies --   1340.0953              1352.2370              1354.3498
 Red. masses --      1.2308                 1.2605                 1.3622
 Frc consts  --      1.3023                 1.3580                 1.4722
 IR Inten    --      0.4011                 1.8016                 2.5725

                     58                     59                     60
                      A                      A                      A
 Frequencies --   1355.6961              1373.2352              1397.7536
 Red. masses --      1.2657                 1.3122                 1.3642
 Frc consts  --      1.3706                 1.4580                 1.5704
 IR Inten    --      0.4083                11.2055                 2.2179

                     61                     62                     63
                      A                      A                      A
 Frequencies --   1401.7818              1403.5109              1408.7146
 Red. masses --      1.3279                 1.3979                 1.3702
 Frc consts  --      1.5374                 1.6224                 1.6020
 IR Inten    --      8.3176                 3.8776                 6.5602

                     64                     65                     66
                      A                      A                      A
 Frequencies --   1416.4856              1423.5574              1433.7698
 Red. masses --      1.4592                 1.5348                 1.2822
 Frc consts  --      1.7250                 1.8325                 1.5530
 IR Inten    --      1.9096                 0.8552                 9.9100

                     67                     68                     69
                      A                      A                      A
 Frequencies --   1438.2988              1439.8711              1507.5645
 Red. masses --      1.3074                 1.2556                 1.0743
 Frc consts  --      1.5935                 1.5338                 1.4386
 IR Inten    --     25.9420                 3.3976                 2.4089

                     70                     71                     72
                      A                      A                      A
 Frequencies --   1509.9965              1511.8712              1515.3708
 Red. masses --      1.0889                 1.0725                 1.0950
 Frc consts  --      1.4628                 1.4443                 1.4815
 IR Inten    --      0.4802                 1.9334                 1.2232

                     73                     74                     75
                      A                      A                      A
 Frequencies --   1518.4826              1520.8231              1522.0937
 Red. masses --      1.0945                 1.0641                 1.0816
 Frc consts  --      1.4869                 1.4501                 1.4764
 IR Inten    --      1.7886                 3.2913                 5.5909

                     76                     77                     78
                      A                      A                      A
 Frequencies --   1528.2572              1530.9542              1531.7865
 Red. masses --      1.0468                 1.0583                 1.0776
 Frc consts  --      1.4405                 1.4615                 1.4898
 IR Inten    --      9.7302                 2.3182                 1.8466

                     79                     80                     81
                      A                      A                      A
 Frequencies --   1534.7280              1540.7467              1549.8706
 Red. masses --      1.0844                 1.0654                 1.1056
 Frc consts  --      1.5049                 1.4902                 1.5648
 IR Inten    --      2.4140                 9.9401                 1.4505

                     82                     83                     84
                      A                      A                      A
 Frequencies --   2975.2687              2993.9235              3003.8648
 Red. masses --      1.0698                 1.0811                 1.0706
 Frc consts  --      5.5794                 5.7097                 5.6916
 IR Inten    --     68.7987                 5.7508                11.1297

                     85                     86                     87
                      A                      A                      A
 Frequencies --   3009.2450              3016.6806              3022.3767
 Red. masses --      1.0710                 1.0630                 1.0635
 Frc consts  --      5.7141                 5.6995                 5.7235
 IR Inten    --     26.0094                14.6662                42.6069

                     88                     89                     90
                      A                      A                      A
 Frequencies --   3037.9384              3043.1149              3049.4795
 Red. masses --      1.0379                 1.0799                 1.0412
 Frc consts  --      5.6438                 5.8924                 5.7047
 IR Inten    --     41.8323                49.4951                14.6370

                     91                     92                     93
                      A                      A                      A
 Frequencies --   3051.7978              3054.1366              3063.4834
 Red. masses --      1.0656                 1.0397                 1.0985
 Frc consts  --      5.8475                 5.7141                 6.0740
 IR Inten    --     14.2318                30.3984                37.1828

                     94                     95                     96
                      A                      A                      A
 Frequencies --   3064.4340              3068.2626              3087.0323
 Red. masses --      1.0842                 1.0991                 1.0932
 Frc consts  --      5.9985                 6.0965                 6.1381
 IR Inten    --     64.8454                48.7092                38.7292

                     97                     98                     99
                      A                      A                      A
 Frequencies --   3096.1000              3101.8851              3104.2013
 Red. masses --      1.0946                 1.1013                 1.0951
 Frc consts  --      6.1823                 6.2435                 6.2176
 IR Inten    --     31.2131                59.1023                18.6590

                    100                    101                    102
                      A                      A                      A
 Frequencies --   3107.7109              3112.7369              3120.1835
 Red. masses --      1.1024                 1.1021                 1.1024
 Frc consts  --      6.2731                 6.2916                 6.3235
 IR Inten    --     39.1036                37.6028                37.7973

                    103                    104                    105
                      A                      A                      A
 Frequencies --   3132.8269              3140.5328              3431.6141
 Red. masses --      1.1016                 1.1017                 1.0731
 Frc consts  --      6.3702                 6.4022                 7.4456
 IR Inten    --     50.5707                29.5774                 7.3345

 - Thermochemistry -
 -------------------
 Temperature   298.150 Kelvin.  Pressure   1.00000 Atm.
 Atom     1 has atomic number  6 and mass  12.00000

 Molecular mass:   184.19395 amu.
 Principal axes and moments of inertia in atomic units:
                           1         2         3
     Eigenvalues --  1250.777454884.922285381.79226
           X            0.99999   0.00207   0.00338
           Y           -0.00213   0.99985   0.01718
           Z           -0.00334  -0.01719   0.99985
 This molecule is an asymmetric top.
 Rotational symmetry number  1.
 Warning -- assumption of classical behavior for rotation
           may cause significant error
 Rotational temperatures (Kelvin)      0.06925     0.01773     0.01609
 Rotational constants (GHZ):           1.44290     0.36945     0.33534
 Zero-point vibrational energy     911467.0 (Joules/Mol)
                                  217.84583 (Kcal/Mol)
 Warning -- explicit consideration of  22 degrees of freedom as
           vibrations may cause significant error
 Vibrational temperatures:     61.92    73.74   145.76   148.96   169.91
          (Kelvin)            185.18   307.90   324.12   336.59   344.24
                              357.77   400.34   406.28   451.12   504.13
                              546.13   612.75   618.31   662.39   689.60
                              738.26   785.72   893.28  1023.98  1126.46
                             1143.06  1162.06  1185.38  1193.05  1266.46
                             1311.08  1337.23  1356.87  1386.88  1428.05
                             1451.99  1485.67  1489.96  1540.79  1558.23
                             1563.68  1581.63  1601.09  1612.92  1623.89
                             1669.23  1717.22  1738.70  1761.22  1781.33
                             1809.42  1848.49  1862.07  1923.56  1928.10
                             1945.57  1948.61  1950.54  1975.78  2011.06
                             2016.85  2019.34  2026.83  2038.01  2048.18
                             2062.87  2069.39  2071.65  2169.05  2172.55
                             2175.25  2180.28  2184.76  2188.13  2189.95
                             2198.82  2202.70  2203.90  2208.13  2216.79
                             2229.92  4280.75  4307.59  4321.89  4329.63
                             4340.33  4348.53  4370.92  4378.36  4387.52
                             4390.86  4394.22  4407.67  4409.04  4414.55
                             4441.55  4454.60  4462.92  4466.25  4471.30
                             4478.53  4489.25  4507.44  4518.53  4937.33

 Zero-point correction=                           0.347159 (Hartree/Particle)
 Thermal correction to Energy=                    0.362021
 Thermal correction to Enthalpy=                  0.362965
 Thermal correction to Gibbs Free Energy=         0.305773
 Sum of electronic and zero-point Energies=           -542.818728
 Sum of electronic and thermal Energies=              -542.803866
 Sum of electronic and thermal Enthalpies=            -542.802922
 Sum of electronic and thermal Free Energies=         -542.860114

                     E (Thermal)             CV                S
                      KCal/Mol        Cal/Mol-Kelvin    Cal/Mol-Kelvin
 Total                  227.172             57.356            120.371
 Electronic               0.000              0.000              0.000
 Translational            0.889              2.981             41.539
 Rotational               0.889              2.981             31.864
 Vibrational            225.394             51.395             46.968
 Vibration     1          0.595              1.980              5.114
 Vibration     2          0.596              1.977              4.769
 Vibration     3          0.604              1.948              3.429
 Vibration     4          0.605              1.946              3.387
 Vibration     5          0.608              1.934              3.131
 Vibration     6          0.611              1.925              2.965
 Vibration     7          0.644              1.820              2.009
 Vibration     8          0.650              1.803              1.916
 Vibration     9          0.654              1.789              1.848
 Vibration    10          0.657              1.780              1.808
 Vibration    11          0.662              1.765              1.740
 Vibration    12          0.679              1.714              1.544
 Vibration    13          0.681              1.706              1.519
 Vibration    14          0.701              1.648              1.344
 Vibration    15          0.727              1.574              1.164
 Vibration    16          0.750              1.514              1.041
 Vibration    17          0.788              1.414              0.872
 Vibration    18          0.791              1.405              0.859
 Vibration    19          0.818              1.338              0.765
 Vibration    20          0.836              1.296              0.712
 Vibration    21          0.868              1.221              0.626
 Vibration    22          0.901              1.148              0.552

 Optimization completed.
    -- Stationary point found.
 Normal termination of Gaussian 16 at Wed Dec  9 22:34:54 2020.

 ----------------------------------------------------------------------
 # B3LYP/6-311++G(d,p) empiricaldispersion=gd3bj scf=xqc pop=npa geom=c
 heck
 ----------------------------------------------------------------------

 ---------------------------------------
 CID_123418432_JID_3079_Energie_neutraal
 ---------------------------------------
 Structure from the checkpoint file:  "JID_3079.chk"
 Charge =  0 Multiplicity = 1

 SCF Done:  E(RB3LYP) =  -543.318395663     A.U. after   13 cycles
 Normal termination of Gaussian 16 at Wed Dec  9 22:40:25 2020.

 ----------------------------------------------------------------------
 # B3LYP/6-311++G(d,p) empiricaldispersion=gd3bj scf=xqc pop=npa geom=c
 heck
 ----------------------------------------------------------------------

 -------------------------------------
 CID_123418432_JID_3079_Energie_kation
 -------------------------------------
 Structure from the checkpoint file:  "JID_3079.chk"
 Charge =  1 Multiplicity = 2

 SCF Done:  E(UB3LYP) =  -543.036492078     A.U. after   18 cycles
 Normal termination of Gaussian 16 at Wed Dec  9 22:51:12 2020.
 Gaussian 16:  ES64L-G16RevA.03 25-Dec-2016

 ----------------------------------------------------------------------
 # B3LYP/6-311++G(d,p) empiricaldispersion=gd3bj scf=xqc pop=npa geom=c
 heck
 ----------------------------------------------------------------------

 ------------------------------------
 CID_123418432_JID_3079_Energie_anion
 ------------------------------------
 Structure from the checkpoint file:  "JID_3079.chk"
 Charge = -1 Multiplicity = 2

                         Standard orientation:
 ---------------------------------------------------------------------
 Center     Atomic      Atomic             Coordinates (Angstroms)
 Number     Number       Type             X           Y           Z
 ---------------------------------------------------------------------
      1          6           0       -2.685271    2.345215    0.656557
      2          6           0       -3.153115    0.938957    0.301804
      3          7           0       -2.052430   -0.026744    0.393125
      4          6           0       -2.505011   -1.422455    0.409152
      5          6           0       -3.264865   -1.916857   -0.833407
      6          7           0       -1.082873    0.261159   -0.615899
      7          6           0        0.288550    0.345385   -0.106603
      8          6           0        1.206502    0.734723   -1.270940
      9          6           0        2.660225    0.912067   -0.817304
     10          6           0        3.205112   -0.335653   -0.104572
     11          6           0        2.278057   -0.719076    1.059057
     12          6           0        0.825229   -0.908560    0.603738
     13          6           0        4.647374   -0.131562    0.364588
     14          1           0       -2.276561    2.369336    1.672481
     15          1           0       -3.516343    3.057191    0.595366
     16          1           0       -1.904140    2.664141   -0.039352
     17          1           0       -3.926126    0.612029    1.009088
     18          1           0       -3.610502    0.945804   -0.702491
     19          1           0       -1.626977   -2.054037    0.573556
     20          1           0       -3.146865   -1.540264    1.290986
     21          1           0       -2.660251   -1.843538   -1.745584
     22          1           0       -3.535959   -2.971268   -0.709782
     23          1           0       -4.186316   -1.349368   -0.997373
     24          1           0       -1.137534   -0.420244   -1.375190
     25          1           0        0.286016    1.166348    0.622886
     26          1           0        0.827217    1.649916   -1.739304
     27          1           0        1.162123   -0.054962   -2.037874
     28          1           0        2.722696    1.767662   -0.128092
     29          1           0        3.295125    1.159715   -1.677766
     30          1           0        3.191865   -1.166070   -0.828852
     31          1           0        2.644455   -1.631972    1.546288
     32          1           0        2.318531    0.075743    1.819426
     33          1           0        0.186452   -1.140396    1.462312
     34          1           0        0.766993   -1.762805   -0.088939
     35          1           0        5.040787   -1.033414    0.848269
     36          1           0        5.308349    0.117384   -0.474052
     37          1           0        4.707349    0.689054    1.090986
 ---------------------------------------------------------------------

 SCF Done:  E(UB3LYP) =  -543.301740093     A.U. after   30 cycles

 The electronic state is 2-A.
 Alpha  occ. eigenvalues --  -14.22576 -14.21745 -10.09378 -10.09181 -10.09065
 Alpha  occ. eigenvalues --  -10.07468 -10.06882 -10.06689 -10.06576 -10.06419
 Alpha  occ. eigenvalues --  -10.06061 -10.06022 -10.05818  -0.87655  -0.75321
 Alpha  occ. eigenvalues --   -0.71696  -0.66397  -0.65213  -0.64553  -0.60689
 Alpha  occ. eigenvalues --   -0.56759  -0.52975  -0.51647  -0.49207  -0.48015
 Alpha  occ. eigenvalues --   -0.46042  -0.40212  -0.38719  -0.37031  -0.35887
 Alpha  occ. eigenvalues --   -0.34794  -0.34550  -0.34225  -0.33258  -0.31991
 Alpha  occ. eigenvalues --   -0.30502  -0.29933  -0.28995  -0.28338  -0.28197
 Alpha  occ. eigenvalues --   -0.27175  -0.26236  -0.26105  -0.25136  -0.24762
 Alpha  occ. eigenvalues --   -0.23931  -0.23612  -0.22584  -0.21554  -0.20248
 Alpha  occ. eigenvalues --   -0.14441  -0.11512   0.04481
 Alpha virt. eigenvalues --    0.05978   0.06861   0.07394   0.08133   0.08281
 Alpha virt. eigenvalues --    0.08589   0.09692   0.09870   0.10528   0.10578
 Alpha virt. eigenvalues --    0.10765   0.11246   0.11673   0.12715   0.13122

  Beta  occ. eigenvalues --  -14.22576 -14.21731 -10.09377 -10.09165 -10.09048
  Beta  occ. eigenvalues --  -10.07458 -10.06871 -10.06679 -10.06562 -10.06395
  Beta  occ. eigenvalues --  -10.06048 -10.06013 -10.05773  -0.87638  -0.75302
  Beta  occ. eigenvalues --   -0.71671  -0.66366  -0.65182  -0.64529  -0.60648
  Beta  occ. eigenvalues --   -0.56712  -0.52920  -0.51603  -0.49163  -0.47971
  Beta  occ. eigenvalues --   -0.45998  -0.40179  -0.38696  -0.37001  -0.35858
  Beta  occ. eigenvalues --   -0.34759  -0.34521  -0.34198  -0.33229  -0.31973
  Beta  occ. eigenvalues --   -0.30453  -0.29902  -0.28964  -0.28305  -0.28171
  Beta  occ. eigenvalues --   -0.27141  -0.26187  -0.26077  -0.25107  -0.24734
  Beta  occ. eigenvalues --   -0.23904  -0.23578  -0.22541  -0.21530  -0.20228
  Beta  occ. eigenvalues --   -0.14424  -0.11498
  Beta virt. eigenvalues --    0.06430   0.06821   0.07367   0.07866   0.08500
  Beta virt. eigenvalues --    0.08672   0.09114   0.10055   0.10318   0.10791
  Beta virt. eigenvalues --    0.10913   0.11060   0.11517   0.11997   0.13035

 Mulliken charges and spin densities:
               1          2
     1  C   -0.052814  -0.425378
     2  C    0.297629  -0.430657
     3  N    0.261739   0.036960
     4  C   -1.270125   1.049495
     5  C    1.801921  -2.296826
     6  N   -0.148368   0.049348
     7  C   -0.516668  -0.374111
     8  C    0.318586  -0.364483
     9  C   -0.422963  -0.113523
    10  C   -0.941292   1.513772
    11  C    1.131321  -2.262528
    12  C   -0.540342   0.931852
    13  C    0.980878  -1.756756
    14  H    0.103194   0.019592
    15  H   -0.090217   0.222361
    16  H    0.090254   0.062658
    17  H   -0.185849   0.315351
    18  H    0.045662   0.063051
    19  H   -0.257020   0.400372
    20  H   -0.207041   0.373492
    21  H   -0.656264   0.780204
    22  H   -0.570550   0.724294
    23  H   -0.170436   0.318178
    24  H    0.547932  -0.335214
    25  H    0.299173  -0.132049
    26  H   -0.018127   0.192182
    27  H   -0.233115   0.361475
    28  H    0.022954   0.112478
    29  H    0.016541   0.144913
    30  H   -0.257579   0.432975
    31  H    0.012263   0.156621
    32  H   -0.014278   0.156863
    33  H    0.007774   0.137273
    34  H    0.012919   0.146174
    35  H   -0.202133   0.335464
    36  H   -0.254641   0.390958
    37  H    0.059081   0.063170
 Sum of Mulliken charges =  -1.00000   1.00000

 Dipole moment (field-independent basis, Debye):
    X=              1.4355    Y=              4.8802    Z=              2.2953  Tot=              5.5808
 Quadrupole moment (field-independent basis, Debye-Ang):
   XX=           -180.7642   YY=           -132.5581   ZZ=           -121.2815
   XY=             -6.6641   XZ=              0.0456   YZ=             -2.8873

 Summary of Natural Population Analysis:

                                       Natural Population
                Natural  -----------------------------------------------
    Atom  No    Charge         Core      Valence    Rydberg      Total
 -----------------------------------------------------------------------
      C    1   -0.28903      0.99966     2.28462    0.00475     3.28903
      C    2   -0.08190      0.99962     2.07060    0.01168     3.08190
      N    3   -0.19559      0.99971     2.68136    0.01451     3.69559
      C    4   -0.08951      0.99961     2.07813    0.01177     3.08951
      C    5   -0.29923      0.99966     2.29451    0.00506     3.29923
      N    6   -0.25449      0.99972     2.74143    0.01334     3.75449
      C    7   -0.00596      0.99957     1.99430    0.01209     3.00596
      C    8   -0.19166      0.99960     2.18261    0.00944     3.19166
      C    9   -0.18580      0.99961     2.17710    0.00909     3.18580
      C   10   -0.11305      0.99960     2.10397    0.00949     3.11305
      C   11   -0.18672      0.99961     2.17786    0.00925     3.18672
      C   12   -0.19929      0.99960     2.19026    0.00943     3.19929
      C   13   -0.28196      0.99965     2.27583    0.00648     3.28196
      H   14    0.09582      0.00000     0.40297    0.00121     0.40418
      H   15    0.09460      0.00000     0.40463    0.00077     0.40540
      H   16    0.10378      0.00000     0.39491    0.00132     0.39622
      H   17    0.09101      0.00000     0.40751    0.00148     0.40899
      H   18    0.08245      0.00000     0.41591    0.00163     0.41755
      H   19    0.09607      0.00000     0.40218    0.00175     0.40393
      H   20    0.09396      0.00000     0.40469    0.00135     0.40604
      H   21    0.09512      0.00000     0.40340    0.00147     0.40488
      H   22    0.10429      0.00000     0.39368    0.00203     0.39571
      H   23    0.09828      0.00000     0.40033    0.00139     0.40172
      H   24    0.16725      0.00000     0.32929    0.00346     0.33275
      H   25    0.08938      0.00000     0.40833    0.00229     0.41062
      H   26    0.10221      0.00000     0.39677    0.00102     0.39779
      H   27    0.09470      0.00000     0.40381    0.00149     0.40530
      H   28    0.09086      0.00000     0.40794    0.00120     0.40914
      H   29    0.09950      0.00000     0.39959    0.00091     0.40050
      H   30    0.09383      0.00000     0.40410    0.00207     0.40617
      H   31    0.10005      0.00000     0.39903    0.00092     0.39995
      H   32    0.09094      0.00000     0.40780    0.00127     0.40906
      H   33    0.10301      0.00000     0.39553    0.00147     0.39699
      H   34    0.09468      0.00000     0.40353    0.00179     0.40532
      H   35    0.09940      0.00000     0.39961    0.00099     0.40060
      H   36    0.09927      0.00000     0.39972    0.00101     0.40073
      H   37    0.09373      0.00000     0.40535    0.00091     0.40627
 =======================================================================
   * Total *    0.00000     12.99524    38.84316    0.16159    52.00000

 Normal termination of Gaussian 16 at Wed Dec  9 23:08:46 2020.
