 Gaussian 16, Revision A.03,

 -----------------------------------------------------------
 # opt freq B3LYP/6-31G(d) empiricaldispersion=gd3bj scf=xqc
 -----------------------------------------------------------

 ------------------------------
 CID_55140600_JID_7336_neutraal
 ------------------------------
 Symbolic Z-matrix:
 Charge =  0 Multiplicity = 1

 SCF Done:  E(RB3LYP) =  -1065.71463327     A.U. after   15 cycles
 SCF Done:  E(RB3LYP) =  -1065.71998999     A.U. after   13 cycles
 SCF Done:  E(RB3LYP) =  -1065.72078865     A.U. after   13 cycles
 SCF Done:  E(RB3LYP) =  -1065.72115929     A.U. after   12 cycles
 SCF Done:  E(RB3LYP) =  -1065.72130470     A.U. after   12 cycles
 SCF Done:  E(RB3LYP) =  -1065.72141082     A.U. after   11 cycles
 SCF Done:  E(RB3LYP) =  -1065.72146681     A.U. after   11 cycles
 SCF Done:  E(RB3LYP) =  -1065.72149566     A.U. after   11 cycles
 SCF Done:  E(RB3LYP) =  -1065.72150507     A.U. after   10 cycles
 SCF Done:  E(RB3LYP) =  -1065.72150877     A.U. after   10 cycles
 SCF Done:  E(RB3LYP) =  -1065.72151002     A.U. after    9 cycles
 SCF Done:  E(RB3LYP) =  -1065.72151087     A.U. after    9 cycles
 SCF Done:  E(RB3LYP) =  -1065.72151108     A.U. after    8 cycles
 Optimization completed.
    -- Stationary point found.
 Normal termination of Gaussian 16 at Fri Dec 11 12:02:19 2020.

 --------------------------------------------------------------------
 #N Geom=AllCheck Guess=TCheck SCRF=Check GenChk RB3LYP/6-31G(d) Freq
 --------------------------------------------------------------------

 Structure from the checkpoint file:  "JID_7336.chk"
 ------------------------------
 CID_55140600_JID_7336_neutraal
 ------------------------------
 Charge =  0 Multiplicity = 1

 SCF Done:  E(RB3LYP) =  -1065.72151108     A.U. after    1 cycles

  Exact polarizability: 295.793  -7.450 182.819  14.001  -1.187  91.516
 Approx polarizability: 406.468 -13.993 337.922  29.649  -0.363 152.322

                      1                      2                      3
                      A                      A                      A
 Frequencies --     30.6065                47.0318                56.1228
 Red. masses --      4.6707                 5.8912                 5.4917
 Frc consts  --      0.0026                 0.0077                 0.0102
 IR Inten    --      2.5253                 2.2657                 1.6564

                      4                      5                      6
                      A                      A                      A
 Frequencies --     81.7944                87.4778               138.7329
 Red. masses --      3.6438                 3.9047                 4.4042
 Frc consts  --      0.0144                 0.0176                 0.0499
 IR Inten    --      0.8609                 5.9739                 5.4655

                      7                      8                      9
                      A                      A                      A
 Frequencies --    162.9568               202.7986               237.9534
 Red. masses --      6.7083                 1.3551                 6.3966
 Frc consts  --      0.1050                 0.0328                 0.2134
 IR Inten    --      3.9406                 0.7502                 0.7621

                     10                     11                     12
                      A                      A                      A
 Frequencies --    251.6324               284.5417               344.3996
 Red. masses --      2.9652                 4.8868                 3.5485
 Frc consts  --      0.1106                 0.2331                 0.2480
 IR Inten    --      6.5036                 0.4276                 4.4985

                     13                     14                     15
                      A                      A                      A
 Frequencies --    382.9885               397.0443               398.2966
 Red. masses --      2.3695                 1.9411                 2.7051
 Frc consts  --      0.2048                 0.1803                 0.2528
 IR Inten    --     70.8034               113.2411                 7.5147

                     16                     17                     18
                      A                      A                      A
 Frequencies --    414.9031               428.1962               435.2269
 Red. masses --      3.3652                 3.8192                 3.4991
 Frc consts  --      0.3413                 0.4126                 0.3905
 IR Inten    --      9.1644                16.4772                 4.0422

                     19                     20                     21
                      A                      A                      A
 Frequencies --    486.1434               530.9632               559.9761
 Red. masses --      3.9356                 3.1278                 4.7744
 Frc consts  --      0.5480                 0.5195                 0.8821
 IR Inten    --      6.1585                15.4501                 0.8949

                     22                     23                     24
                      A                      A                      A
 Frequencies --    580.1151               607.0672               641.9781
 Red. masses --      3.3002                 1.1560                 4.5338
 Frc consts  --      0.6544                 0.2510                 1.1009
 IR Inten    --     18.2355                27.6028                 9.3837

                     25                     26                     27
                      A                      A                      A
 Frequencies --    659.9193               670.5488               685.8588
 Red. masses --      6.6282                 5.6315                 6.8547
 Frc consts  --      1.7007                 1.4919                 1.8998
 IR Inten    --      8.0562                 4.3108                 0.8621

                     28                     29                     30
                      A                      A                      A
 Frequencies --    747.0209               759.9114               768.8424
 Red. masses --      4.5830                 3.9196                 5.5308
 Frc consts  --      1.5068                 1.3336                 1.9263
 IR Inten    --      5.9301                 0.2302                19.9106

                     31                     32                     33
                      A                      A                      A
 Frequencies --    829.4388               841.2633               859.3387
 Red. masses --      1.3243                 1.5631                 1.5193
 Frc consts  --      0.5368                 0.6518                 0.6610
 IR Inten    --     10.0120                36.1480                16.7853

                     34                     35                     36
                      A                      A                      A
 Frequencies --    876.2322               902.2891               925.0357
 Red. masses --      1.3008                 3.1840                 2.7917
 Frc consts  --      0.5884                 1.5273                 1.4075
 IR Inten    --      4.5401                28.6603                66.6862

                     37                     38                     39
                      A                      A                      A
 Frequencies --    955.3811               975.1084               989.6530
 Red. masses --      1.2959                 1.2936                 1.3337
 Frc consts  --      0.6969                 0.7247                 0.7696
 IR Inten    --      3.3227                 0.6693                 4.5427

                     40                     41                     42
                      A                      A                      A
 Frequencies --    994.7705              1014.8207              1032.3096
 Red. masses --      1.3934                 7.5474                 2.8705
 Frc consts  --      0.8124                 4.5796                 1.8023
 IR Inten    --      0.2072                12.5220                 0.5288

                     43                     44                     45
                      A                      A                      A
 Frequencies --   1097.9035              1105.3073              1130.8542
 Red. masses --      2.1065                 3.0921                 1.6671
 Frc consts  --      1.4960                 2.2257                 1.2561
 IR Inten    --      0.8098                18.3569                 0.6604

                     46                     47                     48
                      A                      A                      A
 Frequencies --   1150.1082              1156.0281              1172.5247
 Red. masses --      1.3814                 1.6665                 1.6557
 Frc consts  --      1.0766                 1.3122                 1.3412
 IR Inten    --     41.9727                32.7099                17.3844

                     49                     50                     51
                      A                      A                      A
 Frequencies --   1178.5653              1232.4848              1258.3320
 Red. masses --      1.5014                 1.1732                 1.3019
 Frc consts  --      1.2287                 1.0500                 1.2146
 IR Inten    --     42.6410                94.3929                16.0470

                     52                     53                     54
                      A                      A                      A
 Frequencies --   1296.2007              1309.2933              1321.0999
 Red. masses --      6.3788                 3.7314                 3.0540
 Frc consts  --      6.3145                 3.7687                 3.1405
 IR Inten    --     38.6465                 7.5017               153.1400

                     55                     56                     57
                      A                      A                      A
 Frequencies --   1349.3493              1371.3010              1380.8920
 Red. masses --      1.9106                 2.2138                 2.0153
 Frc consts  --      2.0495                 2.4527                 2.2642
 IR Inten    --     42.3177               140.5863                92.7446

                     58                     59                     60
                      A                      A                      A
 Frequencies --   1385.8814              1401.7350              1464.5201
 Red. masses --      3.6057                 3.2165                 2.2284
 Frc consts  --      4.0803                 3.7236                 2.8160
 IR Inten    --    281.8470               177.9249                 8.6026

                     61                     62                     63
                      A                      A                      A
 Frequencies --   1480.2663              1489.5050              1518.8301
 Red. masses --      2.7063                 1.2335                 1.0525
 Frc consts  --      3.4939                 1.6124                 1.4305
 IR Inten    --      5.7589                 1.3993                12.0749

                     64                     65                     66
                      A                      A                      A
 Frequencies --   1540.3592              1555.2581              1562.9775
 Red. masses --      1.5037                 1.3934                 2.5764
 Frc consts  --      2.1021                 1.9857                 3.7082
 IR Inten    --     39.3936               110.5101                97.2689

                     67                     68                     69
                      A                      A                      A
 Frequencies --   1606.7192              1620.0951              1642.6949
 Red. masses --      6.0382                 6.7770                 5.0747
 Frc consts  --      9.1841                10.4801                 8.0681
 IR Inten    --     37.3478                26.5913               468.4866

                     70                     71                     72
                      A                      A                      A
 Frequencies --   1659.4773              1670.2934              3022.1762
 Red. masses --      1.2722                 5.3308                 1.0525
 Frc consts  --      2.0643                 8.7625                 5.6639
 IR Inten    --    153.2172               119.6572                61.6458

                     73                     74                     75
                      A                      A                      A
 Frequencies --   3105.7375              3172.7632              3176.9952
 Red. masses --      1.0892                 1.0884                 1.0908
 Frc consts  --      6.1899                 6.4551                 6.4867
 IR Inten    --     23.7514                39.7015                27.2779

                     76                     77                     78
                      A                      A                      A
 Frequencies --   3184.3652              3194.5411              3214.0418
 Red. masses --      1.0976                 1.0885                 1.0930
 Frc consts  --      6.5573                 6.5449                 6.6525
 IR Inten    --      7.2711                10.8394                12.3771

                     79                     80                     81
                      A                      A                      A
 Frequencies --   3219.1872              3227.7316              3231.3399
 Red. masses --      1.0879                 1.0931                 1.0916
 Frc consts  --      6.6427                 6.7097                 6.7155
 IR Inten    --      3.0243                 4.4798                11.1761

                     82                     83                     84
                      A                      A                      A
 Frequencies --   3232.5979              3567.5175              3690.9551
 Red. masses --      1.0938                 1.0451                 1.1038
 Frc consts  --      6.7345                 7.8370                 8.8596
 IR Inten    --      4.5081                51.4848                33.5629

 - Thermochemistry -
 -------------------
 Temperature   298.150 Kelvin.  Pressure   1.00000 Atm.
 Atom     1 has atomic number  6 and mass  12.00000

 Molecular mass:   243.08302 amu.
 Principal axes and moments of inertia in atomic units:
                           1         2         3
     Eigenvalues --  1766.563169513.55892**********
           X            0.99999   0.00314   0.00129
           Y           -0.00315   0.99999   0.00281
           Z           -0.00128  -0.00281   1.00000
 This molecule is an asymmetric top.
 Rotational symmetry number  1.
 Warning -- assumption of classical behavior for rotation
           may cause significant error
 Rotational temperatures (Kelvin)      0.04903     0.00910     0.00795
 Rotational constants (GHZ):           1.02161     0.18970     0.16557
 Zero-point vibrational energy     631780.8 (Joules/Mol)
                                  150.99923 (Kcal/Mol)
 Warning -- explicit consideration of  23 degrees of freedom as
           vibrations may cause significant error
 Vibrational temperatures:     44.04    67.67    80.75   117.68   125.86
          (Kelvin)            199.61   234.46   291.78   342.36   362.04
                              409.39   495.51   551.03   571.26   573.06
                              596.95   616.08   626.19   699.45   763.94
                              805.68   834.66   873.43   923.66   949.48
                              964.77   986.80  1074.80  1093.34  1106.19
                             1193.38  1210.39  1236.40  1260.70  1298.19
                             1330.92  1374.58  1402.96  1423.89  1431.25
                             1460.10  1485.26  1579.64  1590.29  1627.05
                             1654.75  1663.27  1687.00  1695.69  1773.27
                             1810.46  1864.94  1883.78  1900.77  1941.41
                             1973.00  1986.80  1993.97  2016.78  2107.12
                             2129.77  2143.07  2185.26  2216.23  2237.67
                             2248.78  2311.71  2330.96  2363.47  2387.62
                             2403.18  4348.24  4468.46  4564.90  4570.99
                             4581.59  4596.23  4624.29  4631.69  4643.99
                             4649.18  4650.99  5132.86  5310.46

 Zero-point correction=                           0.240633 (Hartree/Particle)
 Thermal correction to Energy=                    0.255593
 Thermal correction to Enthalpy=                  0.256537
 Thermal correction to Gibbs Free Energy=         0.197053
 Sum of electronic and zero-point Energies=          -1065.480878
 Sum of electronic and thermal Energies=             -1065.465918
 Sum of electronic and thermal Enthalpies=           -1065.464974
 Sum of electronic and thermal Free Energies=        -1065.524458

                     E (Thermal)             CV                S
                      KCal/Mol        Cal/Mol-Kelvin    Cal/Mol-Kelvin
 Total                  160.387             57.786            125.194
 Electronic               0.000              0.000              0.000
 Translational            0.889              2.981             42.366
 Rotational               0.889              2.981             33.571
 Vibrational            158.609             51.825             49.258
 Vibration     1          0.594              1.984              5.790
 Vibration     2          0.595              1.979              4.938
 Vibration     3          0.596              1.975              4.589
 Vibration     4          0.600              1.962              3.847
 Vibration     5          0.601              1.958              3.716
 Vibration     6          0.614              1.915              2.821
 Vibration     7          0.623              1.888              2.515
 Vibration     8          0.639              1.836              2.108
 Vibration     9          0.656              1.783              1.818
 Vibration    10          0.664              1.760              1.719
 Vibration    11          0.683              1.702              1.506
 Vibration    12          0.723              1.587              1.192
 Vibration    13          0.752              1.506              1.027
 Vibration    14          0.764              1.476              0.974
 Vibration    15          0.765              1.474              0.969
 Vibration    16          0.778              1.438              0.909
 Vibration    17          0.790              1.409              0.865
 Vibration    18          0.796              1.393              0.842
 Vibration    19          0.842              1.281              0.694
 Vibration    20          0.886              1.181              0.585
 Vibration    21          0.916              1.118              0.524
 Vibration    22          0.937              1.074              0.485
 Vibration    23          0.966              1.017              0.438

 Optimization completed.
    -- Stationary point found.
 Normal termination of Gaussian 16 at Fri Dec 11 12:14:05 2020.

 ----------------------------------------------------------------------
 # B3LYP/6-311++G(d,p) empiricaldispersion=gd3bj scf=xqc pop=npa geom=c
 heck
 ----------------------------------------------------------------------

 --------------------------------------
 CID_55140600_JID_7336_Energie_neutraal
 --------------------------------------
 Structure from the checkpoint file:  "JID_7336.chk"
 Charge =  0 Multiplicity = 1

 SCF Done:  E(RB3LYP) =  -1065.92428112     A.U. after   16 cycles
 Normal termination of Gaussian 16 at Fri Dec 11 12:19:51 2020.

 ----------------------------------------------------------------------
 # B3LYP/6-311++G(d,p) empiricaldispersion=gd3bj scf=xqc pop=npa geom=c
 heck
 ----------------------------------------------------------------------

 ------------------------------------
 CID_55140600_JID_7336_Energie_kation
 ------------------------------------
 Structure from the checkpoint file:  "JID_7336.chk"
 Charge =  1 Multiplicity = 2

 SCF Done:  E(UB3LYP) =  -1065.65682446     A.U. after   30 cycles
 Normal termination of Gaussian 16 at Fri Dec 11 12:35:38 2020.
 Gaussian 16:  ES64L-G16RevA.03 25-Dec-2016

 ----------------------------------------------------------------------
 # B3LYP/6-311++G(d,p) empiricaldispersion=gd3bj scf=xqc pop=npa geom=c
 heck
 ----------------------------------------------------------------------

 -----------------------------------
 CID_55140600_JID_7336_Energie_anion
 -----------------------------------
 Structure from the checkpoint file:  "JID_7336.chk"
 Charge = -1 Multiplicity = 2

                         Standard orientation:
 ---------------------------------------------------------------------
 Center     Atomic      Atomic             Coordinates (Angstroms)
 Number     Number       Type             X           Y           Z
 ---------------------------------------------------------------------
      1          6           0       -2.021380    2.578222    0.115676
      2          7           0       -1.642813    1.183635   -0.085659
      3          6           0       -0.286675    0.844200   -0.041401
      4          6           0        0.168682   -0.382610   -0.572262
      5          6           0        1.512585   -0.705729   -0.560410
      6          6           0        2.474715    0.184259   -0.050109
      7          6           0        2.021558    1.407869    0.464887
      8          6           0        0.670024    1.735413    0.477014
      9          6           0        3.909121   -0.173746   -0.056793
     10         16           0        4.471971   -1.746268   -0.017466
     11          7           0        4.768787    0.876602   -0.062574
     12          6           0       -2.653236    0.199999   -0.015734
     13          6           0       -3.848350    0.341936   -0.734969
     14          6           0       -4.829947   -0.637972   -0.612861
     15          7           0       -4.712847   -1.733828    0.147046
     16          6           0       -3.564297   -1.862738    0.824954
     17          6           0       -2.521382   -0.941885    0.788250
     18          1           0       -1.428366    3.228936   -0.534006
     19          1           0       -1.876156    2.894076    1.158850
     20          1           0       -3.074879    2.706461   -0.127485
     21          1           0       -0.543902   -1.074216   -1.006213
     22          1           0        1.848818   -1.652865   -0.967475
     23          1           0        2.724691    2.099865    0.919218
     24          1           0        0.363131    2.676058    0.917557
     25          1           0        4.462432    1.790444   -0.367328
     26          1           0        5.756569    0.669317   -0.120787
     27          1           0       -4.004304    1.187011   -1.397218
     28          1           0       -5.759863   -0.539390   -1.170191
     29          1           0       -3.474449   -2.750493    1.448299
     30          1           0       -1.625662   -1.103086    1.377093
 ---------------------------------------------------------------------

 SCF Done:  E(UB3LYP) =  -1065.94682190     A.U. after   27 cycles

 The electronic state is 2-A.
 Alpha  occ. eigenvalues --  -88.64416 -14.23865 -14.20572 -14.19075 -10.11381
 Alpha  occ. eigenvalues --  -10.11240 -10.10026 -10.09810 -10.09746 -10.08649
 Alpha  occ. eigenvalues --  -10.07370 -10.06779 -10.05348 -10.04880 -10.04579
 Alpha  occ. eigenvalues --  -10.04369 -10.04231  -7.73197  -5.69548  -5.69108
 Alpha  occ. eigenvalues --   -5.68758  -0.85985  -0.82968  -0.80819  -0.72950
 Alpha  occ. eigenvalues --   -0.69168  -0.65852  -0.64270  -0.62898  -0.60135
 Alpha  occ. eigenvalues --   -0.58032  -0.53096  -0.52172  -0.49017  -0.48038
 Alpha  occ. eigenvalues --   -0.44419  -0.43290  -0.41487  -0.40332  -0.38143
 Alpha  occ. eigenvalues --   -0.37032  -0.35527  -0.35171  -0.34744  -0.32954
 Alpha  occ. eigenvalues --   -0.32343  -0.31259  -0.30532  -0.29568  -0.29040
 Alpha  occ. eigenvalues --   -0.26976  -0.26239  -0.25824  -0.24144  -0.22505
 Alpha  occ. eigenvalues --   -0.21056  -0.20526  -0.16295  -0.16251  -0.15462
 Alpha  occ. eigenvalues --   -0.13820  -0.10398  -0.08551  -0.06880   0.02740
 Alpha virt. eigenvalues --    0.06504   0.07101   0.07895   0.08075   0.08445
 Alpha virt. eigenvalues --    0.09245   0.10105   0.10279   0.10887   0.11482
 Alpha virt. eigenvalues --    0.11768   0.12225   0.12520   0.13045   0.13497

  Beta  occ. eigenvalues --  -88.64363 -14.23931 -14.20465 -14.18873 -10.11221
  Beta  occ. eigenvalues --  -10.11201 -10.10012 -10.09813 -10.09331 -10.08360
  Beta  occ. eigenvalues --  -10.07355 -10.06749 -10.05423 -10.04721 -10.04606
  Beta  occ. eigenvalues --  -10.04294 -10.04147  -7.73148  -5.69530  -5.68931
  Beta  occ. eigenvalues --   -5.68727  -0.85835  -0.82716  -0.80405  -0.72704
  Beta  occ. eigenvalues --   -0.68933  -0.65708  -0.63927  -0.62694  -0.59867
  Beta  occ. eigenvalues --   -0.57704  -0.52946  -0.51968  -0.48885  -0.47741
  Beta  occ. eigenvalues --   -0.44147  -0.43153  -0.41348  -0.40227  -0.38014
  Beta  occ. eigenvalues --   -0.36933  -0.35369  -0.35071  -0.34624  -0.32849
  Beta  occ. eigenvalues --   -0.32278  -0.31120  -0.30400  -0.29402  -0.28649
  Beta  occ. eigenvalues --   -0.26710  -0.25631  -0.25433  -0.23180  -0.22185
  Beta  occ. eigenvalues --   -0.20697  -0.19849  -0.15941  -0.15411  -0.15195
  Beta  occ. eigenvalues --   -0.13296  -0.09547  -0.07953  -0.06605
  Beta virt. eigenvalues --    0.06495   0.07209   0.07719   0.08104   0.08444
  Beta virt. eigenvalues --    0.09205   0.09317   0.10071   0.10262   0.11057
  Beta virt. eigenvalues --    0.11461   0.11806   0.12192   0.12524   0.13061

 Mulliken charges and spin densities:
               1          2
     1  C   -0.308095   0.002476
     2  N    0.369184  -0.029028
     3  C   -0.284742   0.146370
     4  C   -0.150609   0.012052
     5  C   -0.361300   0.070736
     6  C    1.188653  -0.014625
     7  C   -0.472062   0.154816
     8  C   -0.302646  -0.027032
     9  C   -0.538157   0.186575
    10  S   -0.816951   0.154854
    11  N   -0.172260   0.063914
    12  C   -0.948422   0.055157
    13  C    0.443352   0.047318
    14  C   -0.642952   0.009176
    15  N   -0.120538   0.090112
    16  C   -0.614033  -0.003511
    17  C    0.714614   0.075108
    18  H    0.148141   0.006922
    19  H    0.139434   0.001514
    20  H    0.106873  -0.002372
    21  H    0.182273  -0.001756
    22  H    0.122765  -0.003472
    23  H    0.129935  -0.003187
    24  H    0.102697  -0.000860
    25  H    0.190310   0.019298
    26  H    0.249508  -0.002944
    27  H    0.168538  -0.000565
    28  H    0.131156  -0.002216
    29  H    0.147402  -0.000926
    30  H    0.197934  -0.003904
 Sum of Mulliken charges =  -1.00000   1.00000

 Dipole moment (field-independent basis, Debye):
    X=             -5.2175    Y=              7.5483    Z=             -0.4271  Tot=              9.1860
 Quadrupole moment (field-independent basis, Debye-Ang):
   XX=           -197.7364   YY=           -124.3853   ZZ=           -118.0541
   XY=              8.6273   XZ=              1.1499   YZ=             -0.8080

 Summary of Natural Population Analysis:

                                       Natural Population
                Natural  -----------------------------------------------
    Atom  No    Charge         Core      Valence    Rydberg      Total
 -----------------------------------------------------------------------
      C    1   -0.16926      0.99965     2.16339    0.00623     3.16926
      N    2   -0.25233      0.99962     2.74250    0.01022     3.75233
      C    3    0.13429      0.99949     1.85477    0.01145     2.86571
      C    4   -0.13124      0.99954     2.12401    0.00768     3.13124
      C    5   -0.05408      0.99954     2.04619    0.00835     3.05408
      C    6   -0.05920      0.99945     2.04818    0.01157     3.05920
      C    7   -0.05769      0.99954     2.04987    0.00828     3.05769
      C    8   -0.14971      0.99954     2.14248    0.00768     3.14971
      C    9    0.12254      0.99960     1.85999    0.01787     2.87746
      S   10   -0.12893      4.99956     3.11454    0.01484     8.12893
      N   11   -0.37862      0.99968     2.86798    0.01097     3.87862
      C   12    0.13146      0.99947     1.85920    0.00987     2.86854
      C   13   -0.13967      0.99952     2.13265    0.00750     3.13967
      C   14    0.02459      0.99961     1.96045    0.01535     2.97541
      N   15   -0.22448      0.99972     2.71195    0.01282     3.72448
      C   16    0.02305      0.99960     1.96223    0.01512     2.97695
      C   17   -0.12931      0.99952     2.12245    0.00734     3.12931
      H   18    0.09520      0.00000     0.40342    0.00137     0.40480
      H   19    0.08645      0.00000     0.41198    0.00158     0.41355
      H   20    0.09793      0.00000     0.40118    0.00089     0.40207
      H   21    0.10306      0.00000     0.39570    0.00123     0.39694
      H   22    0.10986      0.00000     0.38904    0.00111     0.39014
      H   23    0.09275      0.00000     0.40582    0.00143     0.40725
      H   24    0.09564      0.00000     0.40328    0.00108     0.40436
      H   25    0.18587      0.00000     0.31263    0.00150     0.31413
      H   26    0.19093      0.00000     0.30731    0.00176     0.30907
      H   27    0.09968      0.00000     0.39927    0.00106     0.40032
      H   28    0.08313      0.00000     0.41556    0.00131     0.41687
      H   29    0.08573      0.00000     0.41299    0.00127     0.41427
      H   30    0.11235      0.00000     0.38672    0.00093     0.38765
 =======================================================================
   * Total *   -0.00000     20.99265    42.80770    0.19965    64.00000

 Normal termination of Gaussian 16 at Fri Dec 11 12:49:57 2020.
