 Gaussian 16, Revision A.03,

 -----------------------------------------------------------
 # opt freq B3LYP/6-31G(d) empiricaldispersion=gd3bj scf=xqc
 -----------------------------------------------------------

 -----------------------------
 CID_57245528_JID_470_neutraal
 -----------------------------
 Symbolic Z-matrix:
 Charge =  0 Multiplicity = 1

 SCF Done:  E(RB3LYP) =  -427.816328715     A.U. after   13 cycles
 SCF Done:  E(RB3LYP) =  -427.819203090     A.U. after   11 cycles
 SCF Done:  E(RB3LYP) =  -427.819392697     A.U. after   10 cycles
 SCF Done:  E(RB3LYP) =  -427.819415888     A.U. after   10 cycles
 SCF Done:  E(RB3LYP) =  -427.819430508     A.U. after    9 cycles
 SCF Done:  E(RB3LYP) =  -427.819432170     A.U. after    9 cycles
 SCF Done:  E(RB3LYP) =  -427.819459294     A.U. after   10 cycles
 SCF Done:  E(RB3LYP) =  -427.819497401     A.U. after   11 cycles
 SCF Done:  E(RB3LYP) =  -427.819521714     A.U. after   10 cycles
 SCF Done:  E(RB3LYP) =  -427.819553251     A.U. after   10 cycles
 SCF Done:  E(RB3LYP) =  -427.820349385     A.U. after   11 cycles
 SCF Done:  E(RB3LYP) =  -427.820353003     A.U. after   10 cycles
 SCF Done:  E(RB3LYP) =  -427.820347807     A.U. after   10 cycles
 SCF Done:  E(RB3LYP) =  -427.820356848     A.U. after   11 cycles
 SCF Done:  E(RB3LYP) =  -427.820356992     A.U. after    9 cycles
 SCF Done:  E(RB3LYP) =  -427.820357033     A.U. after    8 cycles
 Optimization completed.
    -- Stationary point found.

 1\1\GINC-NODE308\FOpt\RB3LYP\6-31G(d)\C9H16O1\VSC10255\08-Dec-2020\0\\
 # opt freq B3LYP/6-31G(d) empiricaldispersion=gd3bj scf=xqc\\CID_57245
 528_JID_470_neutraal\\0,1\C,0.2036133812,0.0057652273,-0.5236589818\O,
 0.4861426348,0.853461219,-1.613271137\C,1.484102603,1.8352721339,-1.33
 28045976\C,1.8594092207,2.4736724471,-2.6748570753\C,0.7939495959,3.55
 97318696,-2.8607427975\C,0.6946061227,4.1949173829,-1.4609140529\C,0.9
 185729521,3.0066127181,-0.4825753455\C,-0.6097824265,4.972427701,-1.22
 34356116\C,-0.6668941894,5.6363381104,0.1237999323\C,-0.7349751879,6.9

 Normal termination of Gaussian 16 at Tue Dec  8 10:57:05 2020.

 --------------------------------------------------------------------
 #N Geom=AllCheck Guess=TCheck SCRF=Check GenChk RB3LYP/6-31G(d) Freq
 --------------------------------------------------------------------

 Structure from the checkpoint file:  "JID_470.chk"
 -----------------------------
 CID_57245528_JID_470_neutraal
 -----------------------------
 Charge =  0 Multiplicity = 1

 SCF Done:  E(RB3LYP) =  -427.820357033     A.U. after    1 cycles

  Exact polarizability: 121.044  -2.264  90.517  -4.246  -3.020  76.797
 Approx polarizability: 149.970  -5.885 123.842  -8.965  -3.451 115.823

                      1                      2                      3
                      A                      A                      A
 Frequencies --     18.4099                69.3263                83.3324
 Red. masses --      2.8693                 2.9261                 2.8853
 Frc consts  --      0.0006                 0.0083                 0.0118
 IR Inten    --      0.4718                 0.2242                 0.0689

                      4                      5                      6
                      A                      A                      A
 Frequencies --    121.5691               165.4292               208.3014
 Red. masses --      1.9550                 2.2847                 2.0500
 Frc consts  --      0.0170                 0.0368                 0.0524
 IR Inten    --      2.8634                 0.7324                 0.5205

                      7                      8                      9
                      A                      A                      A
 Frequencies --    215.0077               313.6820               340.6015
 Red. masses --      1.3269                 2.4799                 2.7199
 Frc consts  --      0.0361                 0.1438                 0.1859
 IR Inten    --      2.4975                 1.6177                 0.2682

                     10                     11                     12
                      A                      A                      A
 Frequencies --    374.9123               400.6541               453.8788
 Red. masses --      2.4064                 2.4083                 1.8199
 Frc consts  --      0.1993                 0.2278                 0.2209
 IR Inten    --      0.5007                 2.3742                 0.1058

                     13                     14                     15
                      A                      A                      A
 Frequencies --    470.8772               547.1773               664.2980
 Red. masses --      2.6231                 2.0024                 1.7348
 Frc consts  --      0.3427                 0.3532                 0.4511
 IR Inten    --      5.1448                 1.3064                 5.3964

                     16                     17                     18
                      A                      A                      A
 Frequencies --    714.3970               811.2440               846.0068
 Red. masses --      2.6074                 2.6886                 2.2608
 Frc consts  --      0.7840                 1.0425                 0.9534
 IR Inten    --      1.3535                 1.8407                 8.8380

                     19                     20                     21
                      A                      A                      A
 Frequencies --    862.2650               903.5042               936.8382
 Red. masses --      2.0924                 1.5826                 1.3708
 Frc consts  --      0.9166                 0.7612                 0.7088
 IR Inten    --      2.3560                 4.0921                33.8849

                     22                     23                     24
                      A                      A                      A
 Frequencies --    937.5075               951.6575               961.3661
 Red. masses --      2.2284                 2.6129                 1.8464
 Frc consts  --      1.1540                 1.3942                 1.0054
 IR Inten    --      1.1074                 4.5576                 4.6677

                     25                     26                     27
                      A                      A                      A
 Frequencies --    995.7358              1021.3120              1037.9840
 Red. masses --      1.6084                 1.6030                 1.1399
 Frc consts  --      0.9396                 0.9851                 0.7236
 IR Inten    --      8.2955                 1.5793                10.4591

                     28                     29                     30
                      A                      A                      A
 Frequencies --   1060.1387              1077.8631              1117.8251
 Red. masses --      1.7369                 2.2771                 2.3273
 Frc consts  --      1.1501                 1.5587                 1.7134
 IR Inten    --      3.0107                 2.2718                11.9056

                     31                     32                     33
                      A                      A                      A
 Frequencies --   1142.2080              1160.2305              1189.2719
 Red. masses --      3.8195                 1.8913                 1.3116
 Frc consts  --      2.9359                 1.5001                 1.0930
 IR Inten    --    100.5266                38.0209                 2.7644

                     34                     35                     36
                      A                      A                      A
 Frequencies --   1196.9753              1207.0928              1238.6119
 Red. masses --      1.3428                 1.4895                 1.5112
 Frc consts  --      1.1335                 1.2787                 1.3660
 IR Inten    --      4.7219                 5.6418                 3.9438

                     37                     38                     39
                      A                      A                      A
 Frequencies --   1252.1669              1291.4625              1300.0266
 Red. masses --      1.6445                 1.4244                 1.3791
 Frc consts  --      1.5192                 1.3998                 1.3732
 IR Inten    --     29.1523                 2.3352                10.4059

                     40                     41                     42
                      A                      A                      A
 Frequencies --   1314.8504              1330.8037              1341.4471
 Red. masses --      1.2445                 1.3128                 1.2489
 Frc consts  --      1.2677                 1.3698                 1.3241
 IR Inten    --      2.6675                 6.9078                 2.0078

                     43                     44                     45
                      A                      A                      A
 Frequencies --   1359.7824              1365.5379              1384.9636
 Red. masses --      1.3991                 1.3067                 1.4151
 Frc consts  --      1.5242                 1.4355                 1.5993
 IR Inten    --      3.0758                 1.5793                 1.7379

                     46                     47                     48
                      A                      A                      A
 Frequencies --   1395.0022              1412.1580              1475.6359
 Red. masses --      1.3954                 1.3884                 1.1811
 Frc consts  --      1.5999                 1.6313                 1.5153
 IR Inten    --      8.8341                36.5752                 1.0609

                     49                     50                     51
                      A                      A                      A
 Frequencies --   1503.6536              1504.1671              1509.4056
 Red. masses --      1.1285                 1.1056                 1.0927
 Frc consts  --      1.5033                 1.4738                 1.4668
 IR Inten    --      0.6871                 4.0059                 3.7439

                     52                     53                     54
                      A                      A                      A
 Frequencies --   1512.8252              1518.1233              1528.4923
 Red. masses --      1.1041                 1.0613                 1.1069
 Frc consts  --      1.4888                 1.4411                 1.5237
 IR Inten    --      1.8026                 4.0165                 3.1768

                     55                     56                     57
                      A                      A                      A
 Frequencies --   1541.0967              1734.9079              2987.8618
 Red. masses --      1.0591                 4.5041                 1.0408
 Frc consts  --      1.4819                 7.9875                 5.4746
 IR Inten    --      5.7457                 8.8109                45.8039

                     58                     59                     60
                      A                      A                      A
 Frequencies --   3004.2961              3009.6590              3029.3002
 Red. masses --      1.0820                 1.0662                 1.0820
 Frc consts  --      5.7540                 5.6904                 5.8499
 IR Inten    --     74.8911                15.7529                20.0459

                     61                     62                     63
                      A                      A                      A
 Frequencies --   3032.6123              3052.1135              3057.0917
 Red. masses --      1.1026                 1.0686                 1.0608
 Frc consts  --      5.9747                 5.8651                 5.8414
 IR Inten    --     62.1565                22.5465                48.3939

                     64                     65                     66
                      A                      A                      A
 Frequencies --   3064.4472              3067.0430              3103.5869
 Red. masses --      1.0622                 1.0974                 1.1037
 Frc consts  --      5.8769                 6.0823                 6.2638
 IR Inten    --     19.8086                26.2979                19.5110

                     67                     68                     69
                      A                      A                      A
 Frequencies --   3107.5690              3124.7352              3132.3254
 Red. masses --      1.1029                 1.0988                 1.0963
 Frc consts  --      6.2751                 6.3209                 6.3374
 IR Inten    --     59.0541                28.8263                37.7515

                     70                     71                     72
                      A                      A                      A
 Frequencies --   3142.6965              3155.7331              3233.3327
 Red. masses --      1.0786                 1.0705                 1.1155
 Frc consts  --      6.2765                 6.2811                 6.8712
 IR Inten    --     26.6066                 6.0494                22.5798

 - Thermochemistry -
 -------------------
 Temperature   298.150 Kelvin.  Pressure   1.00000 Atm.
 Atom     1 has atomic number  6 and mass  12.00000

 Molecular mass:   140.12012 amu.
 Principal axes and moments of inertia in atomic units:
                           1         2         3
     Eigenvalues --   740.295312629.654383050.43786
           X            0.99995  -0.00940   0.00324
           Y            0.00944   0.99987  -0.01270
           Z           -0.00312   0.01273   0.99991
 This molecule is an asymmetric top.
 Rotational symmetry number  1.
 Warning -- assumption of classical behavior for rotation
           may cause significant error
 Rotational temperatures (Kelvin)      0.11700     0.03294     0.02839
 Rotational constants (GHZ):           2.43787     0.68630     0.59163
 Zero-point vibrational energy     620254.2 (Joules/Mol)
                                  148.24431 (Kcal/Mol)
 Warning -- explicit consideration of  14 degrees of freedom as
           vibrations may cause significant error
 Vibrational temperatures:     26.49    99.75   119.90   174.91   238.02
          (Kelvin)            299.70   309.35   451.32   490.05   539.42
                              576.45   653.03   677.49   787.27   955.78
                             1027.86  1167.20  1217.22  1240.61  1299.94
                             1347.90  1348.86  1369.22  1383.19  1432.64
                             1469.44  1493.43  1525.30  1550.80  1608.30
                             1643.38  1669.31  1711.10  1722.18  1736.74
                             1782.09  1801.59  1858.13  1870.45  1891.78
                             1914.73  1930.04  1956.42  1964.70  1992.65
                             2007.10  2031.78  2123.11  2163.42  2164.16
                             2171.70  2176.62  2184.24  2199.16  2217.29
                             2496.15  4298.87  4322.51  4330.23  4358.49
                             4363.25  4391.31  4398.47  4409.06  4412.79
                             4465.37  4471.10  4495.80  4506.72  4521.64
                             4540.40  4652.04

 Zero-point correction=                           0.236242 (Hartree/Particle)
 Thermal correction to Energy=                    0.247160
 Thermal correction to Enthalpy=                  0.248104
 Thermal correction to Gibbs Free Energy=         0.198319
 Sum of electronic and zero-point Energies=           -427.584115
 Sum of electronic and thermal Energies=              -427.573197
 Sum of electronic and thermal Enthalpies=            -427.572253
 Sum of electronic and thermal Free Energies=         -427.622038

                     E (Thermal)             CV                S
                      KCal/Mol        Cal/Mol-Kelvin    Cal/Mol-Kelvin
 Total                  155.095             40.385            104.782
 Electronic               0.000              0.000              0.000
 Translational            0.889              2.981             40.724
 Rotational               0.889              2.981             30.164
 Vibrational            153.318             34.423             33.895
 Vibration     1          0.593              1.986              6.799
 Vibration     2          0.598              1.969              4.172
 Vibration     3          0.600              1.961              3.811
 Vibration     4          0.609              1.931              3.075
 Vibration     5          0.624              1.885              2.487
 Vibration     6          0.642              1.828              2.059
 Vibration     7          0.645              1.818              2.001
 Vibration     8          0.702              1.648              1.343
 Vibration     9          0.720              1.594              1.209
 Vibration    10          0.746              1.524              1.060
 Vibration    11          0.766              1.469              0.960
 Vibration    12          0.812              1.352              0.784
 Vibration    13          0.828              1.315              0.735
 Vibration    14          0.902              1.146              0.550

 Optimization completed.
    -- Stationary point found.

 1\1\GINC-NODE308\Freq\RB3LYP\6-31G(d)\C9H16O1\VSC10255\08-Dec-2020\0\\
 #N Geom=AllCheck Guess=TCheck SCRF=Check GenChk RB3LYP/6-31G(d) Freq\\
 CID_57245528_JID_470_neutraal\\0,1\C,0.2036133812,0.0057652273,-0.5236
 589818\O,0.4861426348,0.853461219,-1.613271137\C,1.484102603,1.8352721
 339,-1.3328045976\C,1.8594092207,2.4736724471,-2.6748570753\C,0.793949
 5959,3.5597318696,-2.8607427975\C,0.6946061227,4.1949173829,-1.4609140
 529\C,0.9185729521,3.0066127181,-0.4825753455\C,-0.6097824265,4.972427
 701,-1.2234356116\C,-0.6668941894,5.6363381104,0.1237999323\C,-0.73497

 Normal termination of Gaussian 16 at Tue Dec  8 11:01:40 2020.

 ----------------------------------------------------------------------
 # B3LYP/6-311++G(d,p) empiricaldispersion=gd3bj scf=xqc pop=npa geom=c
 heck
 ----------------------------------------------------------------------

 -------------------------------------
 CID_57245528_JID_470_Energie_neutraal
 -------------------------------------
 Structure from the checkpoint file:  "JID_470.chk"
 Charge =  0 Multiplicity = 1

 SCF Done:  E(RB3LYP) =  -427.943596868     A.U. after   13 cycles
 Normal termination of Gaussian 16 at Tue Dec  8 11:04:22 2020.

 ----------------------------------------------------------------------
 # B3LYP/6-311++G(d,p) empiricaldispersion=gd3bj scf=xqc pop=npa geom=c
 heck
 ----------------------------------------------------------------------

 -----------------------------------
 CID_57245528_JID_470_Energie_kation
 -----------------------------------
 Structure from the checkpoint file:  "JID_470.chk"
 Charge =  1 Multiplicity = 2

 SCF Done:  E(UB3LYP) =  -427.621035859     A.U. after   23 cycles
 Normal termination of Gaussian 16 at Tue Dec  8 11:10:24 2020.
 Gaussian 16:  ES64L-G16RevA.03 25-Dec-2016

 ----------------------------------
 CID_57245528_JID_470_Energie_anion
 ----------------------------------
 Structure from the checkpoint file:  "JID_470.chk"
 Charge = -1 Multiplicity = 2

                         Standard orientation:
 ---------------------------------------------------------------------
 Center     Atomic      Atomic             Coordinates (Angstroms)
 Number     Number       Type             X           Y           Z
 ---------------------------------------------------------------------
      1          6           0        2.878406   -1.681983   -0.316044
      2          8           0        2.393824   -0.371484   -0.498909
      3          6           0        1.674357    0.136338    0.624934
      4          6           0        1.465883    1.633528    0.371012
      5          6           0        0.204130    1.673039   -0.498299
      6          6           0       -0.723514    0.651032    0.185680
      7          6           0        0.239266   -0.454120    0.706323
      8          6           0       -1.850709    0.131962   -0.721152
      9          6           0       -2.782726   -0.818261   -0.022937
     10          6           0       -4.080992   -0.600379    0.187030
     11          1           0        3.447654   -1.941907   -1.212507
     12          1           0        2.069888   -2.418734   -0.188735
     13          1           0        3.542056   -1.747955    0.561805
     14          1           0        2.257970   -0.060054    1.537522
     15          1           0        1.280600    2.142075    1.326036
     16          1           0        2.349886    2.081689   -0.090930
     17          1           0        0.449306    1.335454   -1.513107
     18          1           0       -0.247519    2.667920   -0.573553
     19          1           0       -1.188706    1.140674    1.052223
     20          1           0        0.182868   -1.348281    0.075248
     21          1           0       -0.017063   -0.765546    1.724080
     22          1           0       -2.422803    0.981312   -1.116509
     23          1           0       -1.387744   -0.369788   -1.585032
     24          1           0       -2.335160   -1.741593    0.347614
     25          1           0       -4.707101   -1.317216    0.711489
     26          1           0       -4.569334    0.306888   -0.163644
 ---------------------------------------------------------------------

 SCF Done:  E(UB3LYP) =  -427.925094887     A.U. after   32 cycles

 The electronic state is 2-A.
 Alpha  occ. eigenvalues --  -19.01581 -10.11112 -10.10130 -10.07514 -10.06945
 Alpha  occ. eigenvalues --  -10.06905 -10.06344 -10.05964 -10.05930 -10.05522
 Alpha  occ. eigenvalues --   -0.92931  -0.73778  -0.69071  -0.63075  -0.60647
 Alpha  occ. eigenvalues --   -0.57747  -0.54214  -0.46785  -0.46513  -0.44218
 Alpha  occ. eigenvalues --   -0.40128  -0.38354  -0.37379  -0.35282  -0.33484
 Alpha  occ. eigenvalues --   -0.32765  -0.32270  -0.30213  -0.28737  -0.26402
 Alpha  occ. eigenvalues --   -0.25928  -0.24536  -0.23824  -0.23013  -0.22100
 Alpha  occ. eigenvalues --   -0.21702  -0.20514  -0.16191  -0.15038   0.04881
 Alpha virt. eigenvalues --    0.06875   0.07445   0.08093   0.09075   0.09326
 Alpha virt. eigenvalues --    0.09433   0.10270   0.10624   0.11023   0.11420
 Alpha virt. eigenvalues --    0.12534   0.12753   0.13466   0.13884   0.14443

  Beta  occ. eigenvalues --  -19.01569 -10.11097 -10.10088 -10.07506 -10.06934
  Beta  occ. eigenvalues --  -10.06895 -10.06319 -10.05951 -10.05920 -10.05499
  Beta  occ. eigenvalues --   -0.92911  -0.73751  -0.69046  -0.63041  -0.60607
  Beta  occ. eigenvalues --   -0.57686  -0.54155  -0.46728  -0.46470  -0.44162
  Beta  occ. eigenvalues --   -0.40063  -0.38314  -0.37337  -0.35250  -0.33447
  Beta  occ. eigenvalues --   -0.32723  -0.32228  -0.30179  -0.28706  -0.26366
  Beta  occ. eigenvalues --   -0.25892  -0.24498  -0.23790  -0.22987  -0.22065
  Beta  occ. eigenvalues --   -0.21670  -0.20458  -0.16162  -0.15008
  Beta virt. eigenvalues --    0.07094   0.07842   0.08145   0.08618   0.09459
  Beta virt. eigenvalues --    0.09653   0.09882   0.10850   0.10965   0.11493
  Beta virt. eigenvalues --    0.11943   0.12858   0.13195   0.13771   0.14330

 Mulliken charges and spin densities:
               1          2
     1  C    1.157917  -1.383151
     2  O   -0.125754   0.056267
     3  C    0.245514  -0.716002
     4  C    0.072119  -0.455450
     5  C    0.206043  -0.628210
     6  C    0.540663   0.024832
     7  C   -0.752494   0.341595
     8  C    1.427219  -2.120097
     9  C   -1.282514   1.689450
    10  C   -0.040596  -0.570680
    11  H   -0.256569   0.391423
    12  H   -0.746123   0.875605
    13  H   -0.455921   0.584118
    14  H   -0.178015   0.356111
    15  H   -0.270221   0.406629
    16  H    0.105945   0.062392
    17  H    0.180513  -0.033249
    18  H   -0.133132   0.291066
    19  H    0.183855   0.009449
    20  H    0.942011  -0.850015
    21  H   -0.583953   0.758710
    22  H    0.059031   0.066447
    23  H   -0.066047   0.206682
    24  H   -0.737408   0.914488
    25  H   -0.062535   0.177552
    26  H   -0.429546   0.544040
 Sum of Mulliken charges =  -1.00000   1.00000

 Dipole moment (field-independent basis, Debye):
    X=             -0.7101    Y=              3.5720    Z=             -2.7688  Tot=              4.5748
 Quadrupole moment (field-independent basis, Debye-Ang):
   XX=           -131.3635   YY=           -108.4226   ZZ=            -97.4087
   XY=              5.4821   XZ=             -1.7366   YZ=              1.9571

 Summary of Natural Population Analysis:

                                       Natural Population
                Natural  -----------------------------------------------
    Atom  No    Charge         Core      Valence    Rydberg      Total
 -----------------------------------------------------------------------
      C    1   -0.09708      0.99961     2.08814    0.00933     3.09708
      O    2   -0.30518      0.99988     3.29510    0.01019     4.30518
      C    3    0.06753      0.99955     1.91771    0.01521     2.93247
      C    4   -0.19667      0.99961     2.18764    0.00942     3.19667
      C    5   -0.18964      0.99962     2.18131    0.00871     3.18964
      C    6   -0.10587      0.99959     2.09620    0.01008     3.10587
      C    7   -0.20729      0.99961     2.19812    0.00957     3.20729
      C    8   -0.20281      0.99959     2.19426    0.00897     3.20281
      C    9   -0.07887      0.99956     2.06835    0.01096     3.07887
      C   10   -0.19365      0.99956     2.18754    0.00656     3.19365
      H   11    0.08825      0.00000     0.41060    0.00115     0.41175
      H   12    0.07995      0.00000     0.41783    0.00221     0.42005
      H   13    0.07916      0.00000     0.41869    0.00215     0.42084
      H   14    0.08504      0.00000     0.41286    0.00209     0.41496
      H   15    0.09848      0.00000     0.40023    0.00129     0.40152
      H   16    0.10418      0.00000     0.39465    0.00118     0.39582
      H   17    0.09726      0.00000     0.40120    0.00154     0.40274
      H   18    0.09916      0.00000     0.39991    0.00093     0.40084
      H   19    0.09585      0.00000     0.40249    0.00166     0.40415
      H   20    0.10250      0.00000     0.39581    0.00170     0.39750
      H   21    0.10631      0.00000     0.39165    0.00204     0.39369
      H   22    0.09638      0.00000     0.40123    0.00238     0.40362
      H   23    0.10068      0.00000     0.39785    0.00148     0.39932
      H   24    0.09478      0.00000     0.40373    0.00149     0.40522
      H   25    0.09337      0.00000     0.40539    0.00124     0.40663
      H   26    0.08818      0.00000     0.41045    0.00138     0.41182
 =======================================================================
   * Total *   -0.00000      9.99618    28.87890    0.12492    39.00000

 Normal termination of Gaussian 16 at Tue Dec  8 11:16:33 2020.
