 Gaussian 16, Revision A.03,

 -----------------------------------------------------------
 # opt freq B3LYP/6-31G(d) empiricaldispersion=gd3bj scf=xqc
 -----------------------------------------------------------

 ------------------------------
 CID_136948985_JID_564_neutraal
 ------------------------------
 Symbolic Z-matrix:
 Charge =  0 Multiplicity = 1

 SCF Done:  E(RB3LYP) =  -495.987231139     A.U. after   15 cycles
 SCF Done:  E(RB3LYP) =  -495.989152607     A.U. after   13 cycles
 SCF Done:  E(RB3LYP) =  -495.989241707     A.U. after   12 cycles
 SCF Done:  E(RB3LYP) =  -495.989134183     A.U. after   13 cycles
 SCF Done:  E(RB3LYP) =  -495.989393153     A.U. after   11 cycles
 SCF Done:  E(RB3LYP) =  -495.989408871     A.U. after   10 cycles
 SCF Done:  E(RB3LYP) =  -495.989410922     A.U. after    9 cycles
 SCF Done:  E(RB3LYP) =  -495.989411298     A.U. after    8 cycles
 SCF Done:  E(RB3LYP) =  -495.989411409     A.U. after    8 cycles
 Optimization completed.
    -- Stationary point found.
 Normal termination of Gaussian 16 at Tue Dec  8 12:15:07 2020.

 --------------------------------------------------------------------
 #N Geom=AllCheck Guess=TCheck SCRF=Check GenChk RB3LYP/6-31G(d) Freq
 --------------------------------------------------------------------

 Structure from the checkpoint file:  "JID_564.chk"
 ------------------------------
 CID_136948985_JID_564_neutraal
 ------------------------------
 Charge =  0 Multiplicity = 1

 SCF Done:  E(RB3LYP) =  -495.989411409     A.U. after    1 cycles

  Exact polarizability: 114.190  -1.348  99.701   3.023   4.656  37.070
 Approx polarizability: 184.200   7.509 174.118   3.301  11.639  57.709

                      1                      2                      3
                      A                      A                      A
 Frequencies --     89.4410               107.2393               138.9091
 Red. masses --      3.8334                 6.5585                 4.3220
 Frc consts  --      0.0181                 0.0444                 0.0491
 IR Inten    --      1.9545                 0.7889                 0.2763

                      4                      5                      6
                      A                      A                      A
 Frequencies --    185.0542               209.2491               291.9551
 Red. masses --      2.3349                 6.3507                 2.6428
 Frc consts  --      0.0471                 0.1638                 0.1327
 IR Inten    --      6.9477                 5.7584                15.7592

                      7                      8                      9
                      A                      A                      A
 Frequencies --    366.4806               380.8383               407.2217
 Red. masses --      5.2401                 3.7863                 5.6576
 Frc consts  --      0.4147                 0.3236                 0.5528
 IR Inten    --      2.3545                10.1463                 0.2066

                     10                     11                     12
                      A                      A                      A
 Frequencies --    504.2873               565.9270               627.0254
 Red. masses --      1.2940                 5.5179                 4.5891
 Frc consts  --      0.1939                 1.0412                 1.0630
 IR Inten    --     90.2722                13.4310                 3.9581

                     13                     14                     15
                      A                      A                      A
 Frequencies --    687.1293               751.4370               783.2815
 Red. masses --      4.4968                 4.4343                 1.3598
 Frc consts  --      1.2509                 1.4752                 0.4915
 IR Inten    --      9.2939                19.0553                26.2362

                     16                     17                     18
                      A                      A                      A
 Frequencies --    831.8397               841.0303               866.2361
 Red. masses --      1.8452                 3.5485                 1.4938
 Frc consts  --      0.7523                 1.4788                 0.6604
 IR Inten    --     30.2712                30.6295                 7.0104

                     19                     20                     21
                      A                      A                      A
 Frequencies --    911.6025               980.6606              1012.1457
 Red. masses --      6.1286                 1.1578                 1.6496
 Frc consts  --      3.0007                 0.6560                 0.9957
 IR Inten    --     24.0298                48.5092                 2.6910

                     22                     23                     24
                      A                      A                      A
 Frequencies --   1092.7486              1118.7987              1154.1351
 Red. masses --      1.5655                 2.5976                 2.7102
 Frc consts  --      1.1014                 1.9157                 2.1270
 IR Inten    --     13.7988                34.2341               284.2884

                     25                     26                     27
                      A                      A                      A
 Frequencies --   1200.2329              1236.2054              1299.8196
 Red. masses --      2.8880                 1.6937                 3.9274
 Frc consts  --      2.4512                 1.5250                 3.9095
 IR Inten    --      5.8062                18.1478                64.9619

                     28                     29                     30
                      A                      A                      A
 Frequencies --   1321.2985              1351.4736              1411.9470
 Red. masses --      2.4069                 1.2952                 1.6385
 Frc consts  --      2.4758                 1.3938                 1.9246
 IR Inten    --      6.2871                30.4355                25.3168

                     31                     32                     33
                      A                      A                      A
 Frequencies --   1420.0051              1477.2722              1536.4862
 Red. masses --      1.3097                 3.1902                 3.8433
 Frc consts  --      1.5560                 4.1019                 5.3457
 IR Inten    --     13.9887                36.6019                44.3823

                     34                     35                     36
                      A                      A                      A
 Frequencies --   1616.1089              1719.8954              1774.8479
 Red. masses --      6.8888                 5.3228                 9.1552
 Frc consts  --     10.6008                 9.2767                16.9918
 IR Inten    --     28.6882               292.8184               321.8500

                     37                     38                     39
                      A                      A                      A
 Frequencies --   2942.1581              3148.8326              3233.4346
 Red. masses --      1.0828                 1.0884                 1.0922
 Frc consts  --      5.5223                 6.3583                 6.7281
 IR Inten    --     73.4300                25.1445                 4.9890

                     40                     41                     42
                      A                      A                      A
 Frequencies --   3267.8191              3297.6098              3720.9083
 Red. masses --      1.0919                 1.1044                 1.0653
 Frc consts  --      6.8701                 7.0757                 8.6898
 IR Inten    --      1.8467                 1.6179                49.0558

 - Thermochemistry -
 -------------------
 Temperature   298.150 Kelvin.  Pressure   1.00000 Atm.
 Atom     1 has atomic number  6 and mass  12.00000

 Molecular mass:   138.03169 amu.
 Principal axes and moments of inertia in atomic units:
                           1         2         3
     Eigenvalues --   917.912041862.890052741.31165
           X            0.99980  -0.01948   0.00501
           Y            0.01946   0.99980   0.00459
           Z           -0.00510  -0.00450   0.99998
 This molecule is an asymmetric top.
 Rotational symmetry number  1.
 Warning -- assumption of classical behavior for rotation
           may cause significant error
 Rotational temperatures (Kelvin)      0.09436     0.04649     0.03160
 Rotational constants (GHZ):           1.96614     0.96879     0.65835
 Zero-point vibrational energy     310317.5 (Joules/Mol)
                                   74.16765 (Kcal/Mol)
 Warning -- explicit consideration of  11 degrees of freedom as
           vibrations may cause significant error
 Vibrational temperatures:    128.69   154.29   199.86   266.25   301.06
          (Kelvin)            420.06   527.28   547.94   585.90   725.56
                              814.24   902.15   988.63  1081.15  1126.97
                             1196.83  1210.05  1246.32  1311.59  1410.95
                             1456.25  1572.22  1609.70  1660.54  1726.87
                             1778.62  1870.15  1901.05  1944.47  2031.48
                             2043.07  2125.47  2210.66  2325.22  2474.55
                             2553.61  4233.11  4530.47  4652.19  4701.66
                             4744.52  5353.56

 Zero-point correction=                           0.118194 (Hartree/Particle)
 Thermal correction to Energy=                    0.127027
 Thermal correction to Enthalpy=                  0.127972
 Thermal correction to Gibbs Free Energy=         0.083846
 Sum of electronic and zero-point Energies=           -495.871218
 Sum of electronic and thermal Energies=              -495.862384
 Sum of electronic and thermal Enthalpies=            -495.861440
 Sum of electronic and thermal Free Energies=         -495.905565

                     E (Thermal)             CV                S
                      KCal/Mol        Cal/Mol-Kelvin    Cal/Mol-Kelvin
 Total                   79.711             32.271             92.870
 Electronic               0.000              0.000              0.000
 Translational            0.889              2.981             40.679
 Rotational               0.889              2.981             29.929
 Vibrational             77.933             26.309             22.262
 Vibration     1          0.602              1.957              3.672
 Vibration     2          0.606              1.943              3.318
 Vibration     3          0.615              1.914              2.819
 Vibration     4          0.631              1.860              2.277
 Vibration     5          0.642              1.827              2.050
 Vibration     6          0.687              1.689              1.463
 Vibration     7          0.739              1.541              1.094
 Vibration     8          0.751              1.511              1.036
 Vibration     9          0.772              1.455              0.936
 Vibration    10          0.860              1.241              0.647
 Vibration    11          0.922              1.105              0.512

                           ! Non-Optimized Parameters !
 Normal termination of Gaussian 16 at Tue Dec  8 12:20:12 2020.

 ----------------------------------------------------------------------
 # B3LYP/6-311++G(d,p) empiricaldispersion=gd3bj scf=xqc pop=npa geom=c
 heck
 ----------------------------------------------------------------------

 --------------------------------------
 CID_136948985_JID_564_Energie_neutraal
 --------------------------------------
 Structure from the checkpoint file:  "JID_564.chk"
 Charge =  0 Multiplicity = 1

 SCF Done:  E(RB3LYP) =  -496.140691310     A.U. after   15 cycles
 Normal termination of Gaussian 16 at Tue Dec  8 12:24:04 2020.

 ----------------------------------------------------------------------
 # B3LYP/6-311++G(d,p) empiricaldispersion=gd3bj scf=xqc pop=npa geom=c
 heck
 ----------------------------------------------------------------------

 ------------------------------------
 CID_136948985_JID_564_Energie_kation
 ------------------------------------
 Structure from the checkpoint file:  "JID_564.chk"
 Charge =  1 Multiplicity = 2

 SCF Done:  E(UB3LYP) =  -495.830700753     A.U. after   24 cycles
 Normal termination of Gaussian 16 at Tue Dec  8 12:28:09 2020.
 Gaussian 16:  ES64L-G16RevA.03 25-Dec-2016

 ----------------------------------------------------------------------
 # B3LYP/6-311++G(d,p) empiricaldispersion=gd3bj scf=xqc pop=npa geom=c
 heck
 ----------------------------------------------------------------------

 -----------------------------------
 CID_136948985_JID_564_Energie_anion
 -----------------------------------
 Structure from the checkpoint file:  "JID_564.chk"
 Charge = -1 Multiplicity = 2

                         Standard orientation:
 ---------------------------------------------------------------------
 Center     Atomic      Atomic             Coordinates (Angstroms)
 Number     Number       Type             X           Y           Z
 ---------------------------------------------------------------------
      1          6           0        0.766990   -1.961640   -0.042748
      2          6           0        2.055320   -1.551793    0.136407
      3          8           0        2.140490   -0.204694    0.158645
      4          6           0        0.867859    0.284286   -0.019038
      5          6           0       -0.028609   -0.771451   -0.130879
      6          6           0       -1.474749   -0.731785   -0.282590
      7          6           0       -2.271524    0.198847    0.272518
      8          8           0       -3.617162    0.279186    0.147542
      9          6           0        0.707631    1.716113   -0.180165
     10          8           0        1.593658    2.542508   -0.036051
     11          1           0        0.410450   -2.981270   -0.084541
     12          1           0        2.986592   -2.083514    0.263622
     13          1           0       -1.929065   -1.546746   -0.846533
     14          1           0       -1.896209    0.986651    0.917194
     15          1           0       -3.925803   -0.418996   -0.454266
     16          1           0       -0.319368    2.012418   -0.477597
 ---------------------------------------------------------------------

 SCF Done:  E(UB3LYP) =  -496.154116214     A.U. after   30 cycles

 The electronic state is 2-A.
 Alpha  occ. eigenvalues --  -19.03353 -19.03136 -18.92058 -10.09123 -10.08073
 Alpha  occ. eigenvalues --  -10.06303 -10.06038 -10.03722 -10.03489 -10.03243
 Alpha  occ. eigenvalues --   -0.96433  -0.94361  -0.85612  -0.68224  -0.62615
 Alpha  occ. eigenvalues --   -0.59923  -0.51246  -0.48344  -0.45092  -0.41585
 Alpha  occ. eigenvalues --   -0.37293  -0.37205  -0.32352  -0.31251  -0.29243
 Alpha  occ. eigenvalues --   -0.28344  -0.27573  -0.26401  -0.25444  -0.24257
 Alpha  occ. eigenvalues --   -0.22185  -0.21833  -0.16659  -0.11281  -0.08610
 Alpha  occ. eigenvalues --   -0.07563   0.04426
 Alpha virt. eigenvalues --    0.07129   0.09134   0.10710   0.11966   0.12585
 Alpha virt. eigenvalues --    0.13493   0.14125   0.15716   0.16286   0.16731
 Alpha virt. eigenvalues --    0.17682   0.18094   0.18326   0.19444   0.20327

  Beta  occ. eigenvalues --  -19.03268 -19.02896 -18.91533 -10.08916 -10.07886
  Beta  occ. eigenvalues --  -10.06063 -10.05994 -10.03786 -10.03581 -10.02997
  Beta  occ. eigenvalues --   -0.96049  -0.94157  -0.84671  -0.67914  -0.62385
  Beta  occ. eigenvalues --   -0.59552  -0.50877  -0.47660  -0.44960  -0.41340
  Beta  occ. eigenvalues --   -0.37118  -0.36891  -0.32220  -0.30257  -0.28956
  Beta  occ. eigenvalues --   -0.28051  -0.27068  -0.26211  -0.25060  -0.24105
  Beta  occ. eigenvalues --   -0.21869  -0.19426  -0.15796  -0.10652  -0.07884
  Beta  occ. eigenvalues --   -0.06418
  Beta virt. eigenvalues --    0.07818   0.09095   0.10311   0.10823   0.12001
  Beta virt. eigenvalues --    0.12760   0.14060   0.14207   0.15886   0.16712
  Beta virt. eigenvalues --    0.16838   0.17903   0.18426   0.18640   0.19471

 Mulliken charges and spin densities:
               1          2
     1  C   -0.078440  -0.051769
     2  C   -0.119828   0.159289
     3  O   -0.057151   0.043044
     4  C    0.141722   0.057447
     5  C    0.804743   0.003766
     6  C   -0.893910   0.341933
     7  C    0.217964  -0.590576
     8  O   -0.194662  -0.002429
     9  C   -0.559420   0.196208
    10  O   -0.398196   0.173508
    11  H    0.096778   0.025493
    12  H    0.129187  -0.012327
    13  H   -0.260246   0.392182
    14  H    0.166887  -0.013298
    15  H   -0.032897   0.280969
    16  H    0.037469  -0.003438
 Sum of Mulliken charges =  -1.00000   1.00000

 Dipole moment (field-independent basis, Debye):
    X=             -0.8502    Y=             -4.3688    Z=              0.1956  Tot=              4.4550
 Quadrupole moment (field-independent basis, Debye-Ang):
   XX=            -92.6402   YY=            -81.9539   ZZ=            -67.1152
   XY=            -11.0298   XZ=              0.2612   YZ=             -0.0701

 Summary of Natural Population Analysis:

                                       Natural Population
                Natural  -----------------------------------------------
    Atom  No    Charge         Core      Valence    Rydberg      Total
 -----------------------------------------------------------------------
      C    1   -0.18134      0.99953     2.17167    0.01013     3.18134
      C    2    0.10175      0.99953     1.88544    0.01328     2.89825
      O    3   -0.20687      0.99986     3.19770    0.00930     4.20687
      C    4    0.10338      0.99940     1.88081    0.01641     2.89662
      C    5   -0.01469      0.99949     2.00460    0.01060     3.01469
      C    6   -0.18319      0.99953     2.17255    0.01111     3.18319
      C    7    0.13237      0.99947     1.85384    0.01432     2.86763
      O    8   -0.34002      0.99988     3.33317    0.00697     4.34002
      C    9    0.20197      0.99967     1.77845    0.01991     2.79803
      O   10   -0.24596      0.99988     3.23821    0.00786     4.24596
      H   11    0.09998      0.00000     0.39925    0.00076     0.40002
      H   12    0.08272      0.00000     0.41641    0.00087     0.41728
      H   13    0.09242      0.00000     0.40581    0.00176     0.40758
      H   14    0.08470      0.00000     0.41375    0.00154     0.41530
      H   15    0.23082      0.00000     0.26457    0.00461     0.26918
      H   16    0.04195      0.00000     0.45612    0.00193     0.45805
 =======================================================================
   * Total *   -0.00000      9.99626    25.87236    0.13137    36.00000

 Normal termination of Gaussian 16 at Tue Dec  8 12:32:39 2020.
