 Gaussian 16, Revision A.03,

 -----------------------------------------------------------
 # opt freq B3LYP/6-31G(d) empiricaldispersion=gd3bj scf=xqc
 -----------------------------------------------------------

 ------------------------------
 CID_81641684_JID_4915_neutraal
 ------------------------------
 Symbolic Z-matrix:
 Charge =  0 Multiplicity = 1

 SCF Done:  E(RB3LYP) =  -941.556271915     A.U. after   15 cycles
 SCF Done:  E(RB3LYP) =  -941.562138881     A.U. after   12 cycles
 SCF Done:  E(RB3LYP) =  -941.562812190     A.U. after   11 cycles
 SCF Done:  E(RB3LYP) =  -941.563153418     A.U. after   12 cycles
 SCF Done:  E(RB3LYP) =  -941.563344977     A.U. after   11 cycles
 SCF Done:  E(RB3LYP) =  -941.563500853     A.U. after   11 cycles
 SCF Done:  E(RB3LYP) =  -941.563565200     A.U. after   11 cycles
 SCF Done:  E(RB3LYP) =  -941.563595482     A.U. after   10 cycles
 SCF Done:  E(RB3LYP) =  -941.563602784     A.U. after   10 cycles
 SCF Done:  E(RB3LYP) =  -941.563608114     A.U. after   10 cycles
 SCF Done:  E(RB3LYP) =  -941.563609948     A.U. after    9 cycles
 SCF Done:  E(RB3LYP) =  -941.563610556     A.U. after    8 cycles
 SCF Done:  E(RB3LYP) =  -941.563610705     A.U. after    7 cycles
 Optimization completed.
    -- Stationary point found.
 Normal termination of Gaussian 16 at Thu Dec 10 10:51:37 2020.

 --------------------------------------------------------------------
 #N Geom=AllCheck Guess=TCheck SCRF=Check GenChk RB3LYP/6-31G(d) Freq
 --------------------------------------------------------------------

 Structure from the checkpoint file:  "JID_4915.chk"
 ------------------------------
 CID_81641684_JID_4915_neutraal
 ------------------------------
 Charge =  0 Multiplicity = 1

 SCF Done:  E(RB3LYP) =  -941.563610705     A.U. after    1 cycles

  Exact polarizability: 231.744  -3.318 130.867  -3.615 -10.345 103.663
 Approx polarizability: 310.233   0.249 219.364  -5.132 -29.008 161.033

                      1                      2                      3
                      A                      A                      A
 Frequencies --     22.2649                34.5586                62.2225
 Red. masses --      3.6652                 4.1086                 4.7778
 Frc consts  --      0.0011                 0.0029                 0.0109
 IR Inten    --      0.2487                 0.4742                 2.2559

                      4                      5                      6
                      A                      A                      A
 Frequencies --     81.6356               116.0973               133.3795
 Red. masses --      2.9322                 2.5777                 2.5929
 Frc consts  --      0.0115                 0.0205                 0.0272
 IR Inten    --      0.7612                 1.7334                 0.5552

                      7                      8                      9
                      A                      A                      A
 Frequencies --    163.4217               196.7687               233.3238
 Red. masses --      1.5303                 2.8069                 1.4967
 Frc consts  --      0.0241                 0.0640                 0.0480
 IR Inten    --      0.5072                 0.5608                 0.5025

                     10                     11                     12
                      A                      A                      A
 Frequencies --    253.5205               271.8806               283.3549
 Red. masses --      1.7864                 1.9410                 2.7881
 Frc consts  --      0.0676                 0.0845                 0.1319
 IR Inten    --      0.6815                 0.7933                 0.0871

                     13                     14                     15
                      A                      A                      A
 Frequencies --    290.9134               311.0393               313.4370
 Red. masses --      1.3820                 1.4938                 1.6190
 Frc consts  --      0.0689                 0.0851                 0.0937
 IR Inten    --      0.1016                 1.4588                 1.1726

                     16                     17                     18
                      A                      A                      A
 Frequencies --    335.3767               358.0078               366.0261
 Red. masses --      2.4241                 1.7620                 2.9082
 Frc consts  --      0.1606                 0.1331                 0.2296
 IR Inten    --     10.5948                37.6573                 0.8283

                     19                     20                     21
                      A                      A                      A
 Frequencies --    387.1491               415.9713               444.6422
 Red. masses --      2.3069                 2.5595                 3.0963
 Frc consts  --      0.2037                 0.2609                 0.3607
 IR Inten    --     38.3069                14.6615                 1.1770

                     22                     23                     24
                      A                      A                      A
 Frequencies --    469.0842               548.7639               577.4105
 Red. masses --      2.5017                 3.4473                 3.6160
 Frc consts  --      0.3243                 0.6116                 0.7103
 IR Inten    --     11.5735                 1.9577                 6.9601

                     25                     26                     27
                      A                      A                      A
 Frequencies --    597.2301               615.9849               659.4231
 Red. masses --      4.0626                 3.6842                 5.9732
 Frc consts  --      0.8538                 0.8236                 1.5303
 IR Inten    --      4.7495                 4.4004                 0.3833

                     28                     29                     30
                      A                      A                      A
 Frequencies --    741.7265               799.8436               818.3414
 Red. masses --      6.6854                 2.6446                 1.9515
 Frc consts  --      2.1670                 0.9968                 0.7700
 IR Inten    --      0.3738                 8.4816                24.0787

                     31                     32                     33
                      A                      A                      A
 Frequencies --    827.6227               837.3628               877.4490
 Red. masses --      2.5136                 2.9638                 1.4121
 Frc consts  --      1.0144                 1.2244                 0.6405
 IR Inten    --      5.4702                 1.7758                 6.8276

                     34                     35                     36
                      A                      A                      A
 Frequencies --    894.6011               940.6127               952.7052
 Red. masses --      1.4305                 1.7799                 1.7172
 Frc consts  --      0.6745                 0.9278                 0.9183
 IR Inten    --      1.2323                 0.6035                 0.7800

                     37                     38                     39
                      A                      A                      A
 Frequencies --    960.0756               977.6867              1020.1581
 Red. masses --      1.4001                 1.1980                 2.0623
 Frc consts  --      0.7604                 0.6747                 1.2646
 IR Inten    --     30.5868                 0.0190                13.3621

                     40                     41                     42
                      A                      A                      A
 Frequencies --   1044.5013              1063.5502              1063.7903
 Red. masses --      2.0232                 2.0990                 1.4090
 Frc consts  --      1.3005                 1.3989                 0.9395
 IR Inten    --    112.2155                31.8954                 2.2476

                     43                     44                     45
                      A                      A                      A
 Frequencies --   1072.6351              1085.0098              1108.5997
 Red. masses --      1.5716                 1.9157                 1.9389
 Frc consts  --      1.0654                 1.3287                 1.4040
 IR Inten    --      4.6311                 4.9646                 5.4972

                     46                     47                     48
                      A                      A                      A
 Frequencies --   1158.9774              1204.7520              1238.0644
 Red. masses --      2.1255                 1.6175                 2.0977
 Frc consts  --      1.6822                 1.3832                 1.8944
 IR Inten    --      5.0509                 8.4912                 5.5332

                     49                     50                     51
                      A                      A                      A
 Frequencies --   1242.2340              1248.6664              1278.0695
 Red. masses --      2.6578                 1.9660                 1.8797
 Frc consts  --      2.4165                 1.8060                 1.8091
 IR Inten    --      3.8080                 3.0992                 0.6471

                     52                     53                     54
                      A                      A                      A
 Frequencies --   1300.8071              1373.1984              1388.8253
 Red. masses --      2.4290                 3.0601                 1.2798
 Frc consts  --      2.4217                 3.3997                 1.4545
 IR Inten    --     59.2297                 0.3462                 0.3929

                     55                     56                     57
                      A                      A                      A
 Frequencies --   1414.2680              1425.8215              1426.4930
 Red. masses --      1.2150                 1.2385                 1.2173
 Frc consts  --      1.4318                 1.4835                 1.4595
 IR Inten    --     71.4378                 5.3602                 6.9640

                     58                     59                     60
                      A                      A                      A
 Frequencies --   1429.7368              1445.7542              1456.6395
 Red. masses --      1.4422                 1.2543                 1.2275
 Frc consts  --      1.7369                 1.5447                 1.5346
 IR Inten    --     13.7304                12.9905                 0.6820

                     61                     62                     63
                      A                      A                      A
 Frequencies --   1500.8404              1510.0947              1515.1123
 Red. masses --      1.0481                 1.0488                 1.0455
 Frc consts  --      1.3910                 1.4091                 1.4141
 IR Inten    --      6.7616                 0.0145                 0.0523

                     64                     65                     66
                      A                      A                      A
 Frequencies --   1519.8722              1522.3622              1526.2518
 Red. masses --      1.0511                 1.1028                 1.1455
 Frc consts  --      1.4306                 1.5058                 1.5721
 IR Inten    --      0.4521                12.8461                 1.8693

                     67                     68                     69
                      A                      A                      A
 Frequencies --   1531.4445              1532.8774              1534.0209
 Red. masses --      2.1068                 1.2599                 1.0522
 Frc consts  --      2.9113                 1.7442                 1.4589
 IR Inten    --      2.0561                10.7277                 5.4599

                     70                     71                     72
                      A                      A                      A
 Frequencies --   1551.7354              1605.2588              1710.0874
 Red. masses --      1.1829                 5.3406                 6.6802
 Frc consts  --      1.6782                 8.1083                11.5100
 IR Inten    --     12.7665                 1.0069                 2.5410

                     73                     74                     75
                      A                      A                      A
 Frequencies --   3036.3566              3042.4274              3045.6303
 Red. masses --      1.0460                 1.0560                 1.0346
 Frc consts  --      5.6818                 5.7590                 5.6544
 IR Inten    --     41.0237                22.9323                21.6544

                     76                     77                     78
                      A                      A                      A
 Frequencies --   3047.7749              3054.8835              3083.0704
 Red. masses --      1.0344                 1.0355                 1.1068
 Frc consts  --      5.6611                 5.6935                 6.1983
 IR Inten    --     24.2799                27.9897                30.2943

                     79                     80                     81
                      A                      A                      A
 Frequencies --   3098.5485              3113.9759              3116.9418
 Red. masses --      1.0884                 1.1023                 1.1026
 Frc consts  --      6.1570                 6.2978                 6.3115
 IR Inten    --     18.8481                 1.1157                16.0109

                     82                     83                     84
                      A                      A                      A
 Frequencies --   3122.4626              3123.8889              3126.3603
 Red. masses --      1.1038                 1.1017                 1.1026
 Frc consts  --      6.3404                 6.3342                 6.3494
 IR Inten    --      2.1189                88.9696                42.2419

                     85                     86                     87
                      A                      A                      A
 Frequencies --   3127.6023              3135.5670              3143.9183
 Red. masses --      1.1026                 1.1023                 1.0883
 Frc consts  --      6.3548                 6.3855                 6.3377
 IR Inten    --     32.6324                12.4484                26.6399

                     88                     89                     90
                      A                      A                      A
 Frequencies --   3223.0332              3237.8528              3734.3390
 Red. masses --      1.0888                 1.0959                 1.0662
 Frc consts  --      6.6642                 6.7694                 8.7605
 IR Inten    --     11.8616                 6.9261                10.6556

 - Thermochemistry -
 -------------------
 Temperature   298.150 Kelvin.  Pressure   1.00000 Atm.
 Atom     1 has atomic number  6 and mass  12.00000

 Molecular mass:   210.10784 amu.
 Principal axes and moments of inertia in atomic units:
                           1         2         3
     Eigenvalues --  1186.623126939.716477340.74333
           X            0.99995  -0.00891  -0.00380
           Y            0.00886   0.99989  -0.01206
           Z            0.00391   0.01202   0.99992
 This molecule is an asymmetric top.
 Rotational symmetry number  1.
 Warning -- assumption of classical behavior for rotation
           may cause significant error
 Rotational temperatures (Kelvin)      0.07299     0.01248     0.01180
 Rotational constants (GHZ):           1.52091     0.26006     0.24585
 Zero-point vibrational energy     722760.1 (Joules/Mol)
                                  172.74382 (Kcal/Mol)
 Warning -- explicit consideration of  26 degrees of freedom as
           vibrations may cause significant error
 Vibrational temperatures:     32.03    49.72    89.52   117.46   167.04
          (Kelvin)            191.90   235.13   283.11   335.70   364.76
                              391.18   407.68   418.56   447.52   450.97
                              482.53   515.09   526.63   557.02   598.49
                              639.74   674.91   789.55   830.76   859.28
                              886.26   948.76  1067.18  1150.80  1177.41
                             1190.76  1204.78  1262.45  1287.13  1353.33
                             1370.73  1381.33  1406.67  1467.78  1502.80
                             1530.21  1530.56  1543.28  1561.09  1595.03
                             1667.51  1733.37  1781.30  1787.30  1796.55
                             1838.86  1871.57  1975.73  1998.21  2034.82
                             2051.44  2052.41  2057.07  2080.12  2095.78
                             2159.37  2172.69  2179.91  2186.76  2190.34
                             2195.94  2203.41  2205.47  2207.11  2232.60
                             2309.61  2460.43  4368.64  4377.37  4381.98
                             4385.07  4395.30  4435.85  4458.12  4480.32
                             4484.58  4492.53  4494.58  4498.14  4499.92
                             4511.38  4523.40  4637.23  4658.55  5372.88

 Zero-point correction=                           0.275285 (Hartree/Particle)
 Thermal correction to Energy=                    0.291250
 Thermal correction to Enthalpy=                  0.292194
 Thermal correction to Gibbs Free Energy=         0.231310
 Sum of electronic and zero-point Energies=           -941.288326
 Sum of electronic and thermal Energies=              -941.272361
 Sum of electronic and thermal Enthalpies=            -941.271417
 Sum of electronic and thermal Free Energies=         -941.332301

                     E (Thermal)             CV                S
                      KCal/Mol        Cal/Mol-Kelvin    Cal/Mol-Kelvin
 Total                  182.762             59.910            128.142
 Electronic               0.000              0.000              0.000
 Translational            0.889              2.981             41.931
 Rotational               0.889              2.981             32.469
 Vibrational            180.985             53.948             53.742
 Vibration     1          0.593              1.985              6.421
 Vibration     2          0.594              1.983              5.549
 Vibration     3          0.597              1.972              4.385
 Vibration     4          0.600              1.962              3.851
 Vibration     5          0.608              1.936              3.164
 Vibration     6          0.613              1.920              2.897
 Vibration     7          0.623              1.887              2.510
 Vibration     8          0.636              1.844              2.163
 Vibration     9          0.654              1.790              1.853
 Vibration    10          0.665              1.757              1.706
 Vibration    11          0.675              1.725              1.584
 Vibration    12          0.682              1.705              1.513
 Vibration    13          0.687              1.691              1.469
 Vibration    14          0.700              1.653              1.357
 Vibration    15          0.701              1.648              1.344
 Vibration    16          0.716              1.605              1.234
 Vibration    17          0.733              1.559              1.131
 Vibration    18          0.739              1.542              1.096
 Vibration    19          0.756              1.498              1.011
 Vibration    20          0.779              1.436              0.906
 Vibration    21          0.804              1.373              0.812
 Vibration    22          0.826              1.319              0.740
 Vibration    23          0.904              1.142              0.547
 Vibration    24          0.934              1.080              0.490
 Vibration    25          0.955              1.038              0.454
 Vibration    26          0.976              0.998              0.423

                           ! Non-Optimized Parameters !
 Normal termination of Gaussian 16 at Thu Dec 10 11:00:14 2020.

 ----------------------------------------------------------------------
 # B3LYP/6-311++G(d,p) empiricaldispersion=gd3bj scf=xqc pop=npa geom=c
 heck
 ----------------------------------------------------------------------

 --------------------------------------
 CID_81641684_JID_4915_Energie_neutraal
 --------------------------------------
 Structure from the checkpoint file:  "JID_4915.chk"
 Charge =  0 Multiplicity = 1

 SCF Done:  E(RB3LYP) =  -941.748389282     A.U. after   15 cycles
 Normal termination of Gaussian 16 at Thu Dec 10 11:05:02 2020.

 ----------------------------------------------------------------------
 # B3LYP/6-311++G(d,p) empiricaldispersion=gd3bj scf=xqc pop=npa geom=c
 heck
 ----------------------------------------------------------------------

 ------------------------------------
 CID_81641684_JID_4915_Energie_kation
 ------------------------------------
 Structure from the checkpoint file:  "JID_4915.chk"
 Charge =  1 Multiplicity = 2

 SCF Done:  E(UB3LYP) =  -941.472276539     A.U. after   22 cycles
 Normal termination of Gaussian 16 at Thu Dec 10 11:14:34 2020.
 Gaussian 16:  ES64L-G16RevA.03 25-Dec-2016

 ----------------------------------------------------------------------
 # B3LYP/6-311++G(d,p) empiricaldispersion=gd3bj scf=xqc pop=npa geom=c
 heck
 ----------------------------------------------------------------------

 -----------------------------------
 CID_81641684_JID_4915_Energie_anion
 -----------------------------------
 Structure from the checkpoint file:  "JID_4915.chk"
 Charge = -1 Multiplicity = 2

                         Standard orientation:
 ---------------------------------------------------------------------
 Center     Atomic      Atomic             Coordinates (Angstroms)
 Number     Number       Type             X           Y           Z
 ---------------------------------------------------------------------
      1          6           0        4.517003   -1.205521   -0.244567
      2          6           0        3.256406   -0.382210   -0.195933
      3          6           0        2.046478   -0.961158   -0.340852
      4          6           0        0.746087   -0.306458   -0.396497
      5          6           0        0.361311    0.897262   -0.940939
      6          6           0       -1.032098    1.168670   -0.808610
      7          6           0       -1.737127    0.178021   -0.174858
      8         16           0       -0.655551   -1.126771    0.276263
      9          6           0       -3.216703    0.103271    0.149148
     10          6           0       -3.837546   -1.145303   -0.513662
     11          6           0       -3.414852    0.021812    1.678531
     12          6           0       -3.932164    1.357518   -0.380350
     13          6           0        3.455694    1.097967    0.032386
     14          8           0        4.425034    1.365123    1.048647
     15          1           0        4.297574   -2.271341   -0.356291
     16          1           0        5.122654   -1.057679    0.655216
     17          1           0        5.146995   -0.894907   -1.089981
     18          1           0        2.021601   -2.046993   -0.433558
     19          1           0        1.047872    1.550154   -1.467042
     20          1           0       -1.494755    2.071443   -1.188990
     21          1           0       -3.374862   -2.065766   -0.142107
     22          1           0       -4.911184   -1.195691   -0.297931
     23          1           0       -3.703624   -1.116026   -1.600085
     24          1           0       -2.974662    0.893464    2.174143
     25          1           0       -4.483226   -0.012578    1.922197
     26          1           0       -2.943664   -0.875315    2.093676
     27          1           0       -3.535081    2.267965    0.081036
     28          1           0       -3.827691    1.447287   -1.466843
     29          1           0       -5.000775    1.299928   -0.147304
     30          1           0        3.859316    1.573636   -0.870586
     31          1           0        2.501403    1.585806    0.264953
     32          1           0        4.065730    1.010745    1.877329
 ---------------------------------------------------------------------

 SCF Done:  E(UB3LYP) =  -941.740481591     A.U. after   33 cycles
 SCF Done:  E(UB3LYP) =  -941.740481591     a.u. after    1 cycles

 The electronic state is 2-A.
 Alpha  occ. eigenvalues --  -88.73879 -19.00888 -10.09752 -10.09043 -10.06969
 Alpha  occ. eigenvalues --  -10.06837 -10.05972 -10.05788 -10.05787 -10.05224
 Alpha  occ. eigenvalues --  -10.04835 -10.04804 -10.04653 -10.04146  -7.82552
 Alpha  occ. eigenvalues --   -5.78844  -5.78491  -5.78143  -0.90870  -0.75883
 Alpha  occ. eigenvalues --   -0.71423  -0.68508  -0.61589  -0.60576  -0.58592
 Alpha  occ. eigenvalues --   -0.58450  -0.57033  -0.54915  -0.47811  -0.45027
 Alpha  occ. eigenvalues --   -0.41052  -0.39788  -0.39156  -0.37256  -0.34127
 Alpha  occ. eigenvalues --   -0.34013  -0.33212  -0.32782  -0.32314  -0.30104
 Alpha  occ. eigenvalues --   -0.29588  -0.29206  -0.28188  -0.26803  -0.26482
 Alpha  occ. eigenvalues --   -0.26394  -0.25256  -0.24454  -0.23307  -0.22931
 Alpha  occ. eigenvalues --   -0.22843  -0.21897  -0.20610  -0.16755  -0.15413
 Alpha  occ. eigenvalues --   -0.12861  -0.09074   0.04693
 Alpha virt. eigenvalues --    0.06215   0.07680   0.08364   0.08690   0.09045
 Alpha virt. eigenvalues --    0.09267   0.09802   0.10849   0.11031   0.11291
 Alpha virt. eigenvalues --    0.11663   0.12336   0.12714   0.12947   0.13149

  Beta  occ. eigenvalues --  -88.73854 -19.00837 -10.09751 -10.09057 -10.06858
  Beta  occ. eigenvalues --  -10.06611 -10.05953 -10.05766 -10.05755 -10.05225
  Beta  occ. eigenvalues --  -10.04854 -10.04646 -10.04569 -10.04044  -7.82529
  Beta  occ. eigenvalues --   -5.78836  -5.78481  -5.78053  -0.90738  -0.75678
  Beta  occ. eigenvalues --   -0.71299  -0.68229  -0.61394  -0.60368  -0.58533
  Beta  occ. eigenvalues --   -0.58375  -0.56928  -0.54752  -0.47698  -0.44758
  Beta  occ. eigenvalues --   -0.40855  -0.39656  -0.39067  -0.37166  -0.34043
  Beta  occ. eigenvalues --   -0.33946  -0.33079  -0.32586  -0.32201  -0.30006
  Beta  occ. eigenvalues --   -0.29485  -0.29086  -0.28128  -0.26778  -0.26429
  Beta  occ. eigenvalues --   -0.26277  -0.24954  -0.24280  -0.23146  -0.22841
  Beta  occ. eigenvalues --   -0.22691  -0.21798  -0.20491  -0.16586  -0.14666
  Beta  occ. eigenvalues --   -0.12371  -0.08069
  Beta virt. eigenvalues --    0.06742   0.07463   0.08481   0.08672   0.09019
  Beta virt. eigenvalues --    0.09240   0.09430   0.10155   0.10880   0.11130
  Beta virt. eigenvalues --    0.11306   0.11674   0.12522   0.12797   0.13004

 Mulliken charges and spin densities:
               1          2
     1  C   -0.461179   0.073667
     2  C    0.583954   0.234727
     3  C   -1.110306   0.511283
     4  C    0.144061  -0.201485
     5  C    0.238902   0.002945
     6  C   -0.051725   0.096258
     7  C    1.776278  -1.401885
     8  S   -0.635412  -0.042111
     9  C   -1.683173   2.041511
    10  C   -0.027115  -0.652910
    11  C   -0.367965  -0.277896
    12  C    0.235738  -0.792267
    13  C    0.273436  -0.911269
    14  O   -0.252523   0.014838
    15  H    0.079428   0.051135
    16  H    0.113081   0.014446
    17  H   -0.049183   0.189862
    18  H    0.159463  -0.015803
    19  H    0.162026  -0.001799
    20  H    0.044964   0.082929
    21  H    0.128687  -0.006265
    22  H   -0.253613   0.398189
    23  H    0.071052   0.076697
    24  H    0.052060   0.094338
    25  H   -0.012459   0.148567
    26  H    0.052975   0.079964
    27  H    0.015680   0.112243
    28  H    0.045627   0.078514
    29  H   -0.273926   0.428054
    30  H    0.022632   0.133488
    31  H   -0.061131   0.247867
    32  H    0.039666   0.192165
 Sum of Mulliken charges =  -1.00000   1.00000

 Dipole moment (field-independent basis, Debye):
    X=             -0.6159    Y=             -1.6680    Z=             -0.4146  Tot=              1.8258
 Quadrupole moment (field-independent basis, Debye-Ang):
   XX=           -190.3472   YY=           -118.1911   ZZ=           -113.0712
   XY=             -7.3507   XZ=             -1.5404   YZ=             -3.8530

 Summary of Natural Population Analysis:

                                       Natural Population
                Natural  -----------------------------------------------
    Atom  No    Charge         Core      Valence    Rydberg      Total
 -----------------------------------------------------------------------
      C    1   -0.29564      0.99963     2.29081    0.00519     3.29564
      C    2    0.01787      0.99951     1.97267    0.00996     2.98213
      C    3   -0.11023      0.99944     2.10124    0.00955     3.11023
      C    4   -0.08880      0.99949     2.07590    0.01341     3.08880
      C    5   -0.11184      0.99948     2.10203    0.01033     3.11184
      C    6   -0.14796      0.99946     2.13854    0.00996     3.14796
      C    7   -0.05126      0.99945     2.03749    0.01432     3.05126
      S    8    0.19278      4.99939     2.78983    0.01800     7.80722
      C    9   -0.06352      0.99953     2.05294    0.01106     3.06352
      C   10   -0.27878      0.99963     2.27183    0.00732     3.27878
      C   11   -0.27633      0.99963     2.27083    0.00587     3.27633
      C   12   -0.28268      0.99964     2.27539    0.00765     3.28268
      C   13   -0.02546      0.99954     2.01404    0.01188     3.02546
      O   14   -0.37101      0.99990     3.36447    0.00663     4.37101
      H   15    0.09526      0.00000     0.40383    0.00091     0.40474
      H   16    0.10308      0.00000     0.39540    0.00153     0.39692
      H   17    0.09960      0.00000     0.39871    0.00169     0.40040
      H   18    0.09231      0.00000     0.40609    0.00160     0.40769
      H   19    0.10180      0.00000     0.39718    0.00102     0.39820
      H   20    0.10303      0.00000     0.39599    0.00099     0.39697
      H   21    0.10030      0.00000     0.39891    0.00079     0.39970
      H   22    0.09643      0.00000     0.40254    0.00103     0.40357
      H   23    0.10113      0.00000     0.39812    0.00075     0.39887
      H   24    0.10128      0.00000     0.39778    0.00094     0.39872
      H   25    0.09424      0.00000     0.40489    0.00086     0.40576
      H   26    0.10115      0.00000     0.39797    0.00088     0.39885
      H   27    0.10085      0.00000     0.39821    0.00095     0.39915
      H   28    0.10053      0.00000     0.39856    0.00090     0.39947
      H   29    0.09937      0.00000     0.39971    0.00092     0.40063
      H   30    0.08585      0.00000     0.41235    0.00180     0.41415
      H   31    0.09079      0.00000     0.40756    0.00166     0.40921
      H   32    0.22587      0.00000     0.27082    0.00331     0.27413
 =======================================================================
   * Total *   -0.00000     17.99372    38.84260    0.16367    57.00000

 Normal termination of Gaussian 16 at Thu Dec 10 11:28:14 2020.
