 Gaussian 16, Revision A.03,

 -----------------------------------------------------------
 # opt freq B3LYP/6-31G(d) empiricaldispersion=gd3bj scf=xqc
 -----------------------------------------------------------

 -------------------------------
 CID_148302034_JID_1865_neutraal
 -------------------------------
 Symbolic Z-matrix:
 Charge =  0 Multiplicity = 1

 SCF Done:  E(RB3LYP) =  -444.699462610     A.U. after   14 cycles
 SCF Done:  E(RB3LYP) =  -444.729716388     A.U. after   11 cycles
 SCF Done:  E(RB3LYP) =  -444.751435893     A.U. after   12 cycles
 SCF Done:  E(RB3LYP) =  -444.755948505     A.U. after   11 cycles
 SCF Done:  E(RB3LYP) =  -444.757364686     A.U. after   10 cycles
 SCF Done:  E(RB3LYP) =  -444.757544397     A.U. after   10 cycles
 SCF Done:  E(RB3LYP) =  -444.757566715     A.U. after    8 cycles
 SCF Done:  E(RB3LYP) =  -444.757569517     A.U. after    7 cycles
 SCF Done:  E(RB3LYP) =  -444.757569910     A.U. after    7 cycles
 Optimization completed.
    -- Stationary point found.
 Normal termination of Gaussian 16 at Tue Dec  8 21:29:23 2020.

 --------------------------------------------------------------------
 #N Geom=AllCheck Guess=TCheck SCRF=Check GenChk RB3LYP/6-31G(d) Freq
 --------------------------------------------------------------------

 Structure from the checkpoint file:  "JID_1865.chk"
 -------------------------------
 CID_148302034_JID_1865_neutraal
 -------------------------------
 Charge =  0 Multiplicity = 1

 SCF Done:  E(RB3LYP) =  -444.757569910     A.U. after    1 cycles

  Exact polarizability: 106.565   0.970 106.026   0.395   1.165  90.903
 Approx polarizability: 147.996   0.644 156.976   2.673   2.188 144.242

                      1                      2                      3
                      A                      A                      A
 Frequencies --    242.4619               266.3187               277.5976
 Red. masses --      1.3114                 2.3683                 2.3926
 Frc consts  --      0.0454                 0.0990                 0.1086
 IR Inten    --     17.8842                 2.0052                 3.3785

                      4                      5                      6
                      A                      A                      A
 Frequencies --    299.7032               383.4349               419.5662
 Red. masses --      1.7865                 2.8144                 1.8791
 Frc consts  --      0.0945                 0.2438                 0.1949
 IR Inten    --     18.6930                 1.2535                 2.6579

                      7                      8                      9
                      A                      A                      A
 Frequencies --    429.7696               468.6996               489.6858
 Red. masses --      2.4171                 2.9572                 4.1487
 Frc consts  --      0.2630                 0.3828                 0.5861
 IR Inten    --      8.1278                 0.6994                 0.2067

                     10                     11                     12
                      A                      A                      A
 Frequencies --    526.0557               537.7078               541.4536
 Red. masses --      4.8873                 1.8477                 3.6419
 Frc consts  --      0.7969                 0.3148                 0.6291
 IR Inten    --      1.0746                 0.1787                 3.5395

                     13                     14                     15
                      A                      A                      A
 Frequencies --    661.3998               724.3369               737.6821
 Red. masses --      3.7997                 2.9065                 2.9486
 Frc consts  --      0.9793                 0.8985                 0.9454
 IR Inten    --      0.0506                 1.9669                 0.3419

                     16                     17                     18
                      A                      A                      A
 Frequencies --    800.3287               813.3294               839.7120
 Red. masses --      3.5529                 3.5049                 2.6439
 Frc consts  --      1.3408                 1.3660                 1.0984
 IR Inten    --      0.7256                 2.3573                 1.2355

                     19                     20                     21
                      A                      A                      A
 Frequencies --    865.4216               896.3634               911.9292
 Red. masses --      3.1933                 1.6643                 1.7465
 Frc consts  --      1.4091                 0.7879                 0.8557
 IR Inten    --      8.1556                38.8058                28.5832

                     22                     23                     24
                      A                      A                      A
 Frequencies --    915.0851               939.1424               956.4080
 Red. masses --      1.8845                 1.7727                 2.3841
 Frc consts  --      0.9297                 0.9212                 1.2849
 IR Inten    --     46.6944                23.0185                 1.1573

                     25                     26                     27
                      A                      A                      A
 Frequencies --    964.5914               992.1806               998.0908
 Red. masses --      1.9964                 2.2893                 2.1976
 Frc consts  --      1.0944                 1.3278                 1.2898
 IR Inten    --     18.2130                 6.4866                 5.7837

                     28                     29                     30
                      A                      A                      A
 Frequencies --   1023.7012              1033.9877              1059.7353
 Red. masses --      2.1822                 1.7819                 1.4864
 Frc consts  --      1.3474                 1.1224                 0.9835
 IR Inten    --      2.8359                 1.6247                 0.7868

                     31                     32                     33
                      A                      A                      A
 Frequencies --   1072.9330              1099.3418              1112.7829
 Red. masses --      1.3168                 1.5759                 1.2487
 Frc consts  --      0.8931                 1.1221                 0.9110
 IR Inten    --      2.8354                 8.2953                 1.1686

                     34                     35                     36
                      A                      A                      A
 Frequencies --   1147.6075              1151.5998              1164.7400
 Red. masses --      1.5112                 1.4602                 1.5738
 Frc consts  --      1.1726                 1.1410                 1.2579
 IR Inten    --      1.0851                 0.3679                 5.7150

                     37                     38                     39
                      A                      A                      A
 Frequencies --   1190.9948              1204.3043              1219.1401
 Red. masses --      1.7863                 1.6064                 1.6871
 Frc consts  --      1.4929                 1.3727                 1.4774
 IR Inten    --      3.1268                 3.0886                 2.7305

                     40                     41                     42
                      A                      A                      A
 Frequencies --   1227.5366              1247.3069              1258.3027
 Red. masses --      1.3597                 1.7949                 1.5138
 Frc consts  --      1.2071                 1.6452                 1.4122
 IR Inten    --      3.1349                 3.0836                 1.3051

                     43                     44                     45
                      A                      A                      A
 Frequencies --   1268.7155              1277.8000              1304.0343
 Red. masses --      1.3703                 1.6447                 1.5051
 Frc consts  --      1.2995                 1.5822                 1.5079
 IR Inten    --      0.7078                 1.3658                 5.3265

                     46                     47                     48
                      A                      A                      A
 Frequencies --   1327.9834              1351.0952              1366.5301
 Red. masses --      1.5500                 1.6127                 1.6247
 Frc consts  --      1.6105                 1.7345                 1.7876
 IR Inten    --      3.0905                 7.0692                 5.7941

                     49                     50                     51
                      A                      A                      A
 Frequencies --   1398.9512              1399.8136              1423.2944
 Red. masses --      1.7057                 1.8359                 1.3690
 Frc consts  --      1.9668                 2.1195                 1.6340
 IR Inten    --      0.1041                 5.4750                 1.3094

                     52                     53                     54
                      A                      A                      A
 Frequencies --   1504.3418              1514.6394              1515.9176
 Red. masses --      1.0883                 1.0946                 1.1033
 Frc consts  --      1.4511                 1.4795                 1.4938
 IR Inten    --      1.0282                 0.4881                 0.4784

                     55                     56                     57
                      A                      A                      A
 Frequencies --   1518.7417              1561.6918              1691.6305
 Red. masses --      1.1025                 1.0885                 1.0945
 Frc consts  --      1.4982                 1.5641                 1.8453
 IR Inten    --      0.9115                 1.6709                25.8869

                     58                     59                     60
                      A                      A                      A
 Frequencies --   3019.6190              3029.0483              3042.9359
 Red. masses --      1.0593                 1.0660                 1.0657
 Frc consts  --      5.6910                 5.7628                 5.8138
 IR Inten    --     31.7207                44.2151                29.4886

                     61                     62                     63
                      A                      A                      A
 Frequencies --   3053.8941              3054.3009              3057.6532
 Red. masses --      1.0639                 1.0829                 1.0692
 Frc consts  --      5.8460                 5.9518                 5.8899
 IR Inten    --     29.6709                13.0370                49.0954

                     64                     65                     66
                      A                      A                      A
 Frequencies --   3060.8541              3069.1460              3077.1796
 Red. masses --      1.0894                 1.0869                 1.0855
 Frc consts  --      6.0133                 6.0324                 6.0558
 IR Inten    --    106.7891               124.1206                55.9025

                     67                     68                     69
                      A                      A                      A
 Frequencies --   3088.5340              3093.6022              3121.0407
 Red. masses --      1.0990                 1.0979                 1.1085
 Frc consts  --      6.1765                 6.1908                 6.3619
 IR Inten    --      7.4242                48.9902                12.1342

                     70                     71                     72
                      A                      A                      A
 Frequencies --   3124.0384              3435.2759              3520.2850
 Red. masses --      1.1087                 1.0493                 1.0916
 Frc consts  --      6.3752                 7.2955                 7.9703
 IR Inten    --     75.4845                 6.2938                 1.3364

 - Thermochemistry -
 -------------------
 Temperature   298.150 Kelvin.  Pressure   1.00000 Atm.
 Atom     1 has atomic number  6 and mass  12.00000

 Molecular mass:   149.12045 amu.
 Principal axes and moments of inertia in atomic units:
                           1         2         3
     Eigenvalues --  1010.867951353.270001679.71711
           X            0.99980   0.01962  -0.00482
           Y           -0.01959   0.99979   0.00662
           Z            0.00495  -0.00653   0.99997
 This molecule is an asymmetric top.
 Rotational symmetry number  1.
 Warning -- assumption of classical behavior for rotation
           may cause significant error
 Rotational temperatures (Kelvin)      0.08568     0.06400     0.05156
 Rotational constants (GHZ):           1.78534     1.33362     1.07443
 Zero-point vibrational energy     618380.0 (Joules/Mol)
                                  147.79636 (Kcal/Mol)
 Warning -- explicit consideration of  12 degrees of freedom as
           vibrations may cause significant error
 Vibrational temperatures:    348.85   383.17   399.40   431.21   551.68
          (Kelvin)            603.66   618.34   674.35   704.55   756.88
                              773.64   779.03   951.61  1042.16  1061.36
                             1151.49  1170.20  1208.16  1245.15  1289.67
                             1312.06  1316.60  1351.22  1376.06  1387.83
                             1427.53  1436.03  1472.88  1487.68  1524.72
                             1543.71  1581.71  1601.05  1651.15  1656.90
                             1675.80  1713.58  1732.73  1754.07  1766.15
                             1794.60  1810.42  1825.40  1838.47  1876.21
                             1910.67  1943.92  1966.13  2012.78  2014.02
                             2047.80  2164.41  2179.23  2181.07  2185.13
                             2246.93  2433.88  4344.56  4358.12  4378.11
                             4393.87  4394.46  4399.28  4403.89  4415.82
                             4427.38  4443.71  4451.00  4490.48  4494.79
                             4942.60  5064.90

 Zero-point correction=                           0.235528 (Hartree/Particle)
 Thermal correction to Energy=                    0.243579
 Thermal correction to Enthalpy=                  0.244523
 Thermal correction to Gibbs Free Energy=         0.203624
 Sum of electronic and zero-point Energies=           -444.522041
 Sum of electronic and thermal Energies=              -444.513991
 Sum of electronic and thermal Enthalpies=            -444.513046
 Sum of electronic and thermal Free Energies=         -444.553946

                     E (Thermal)             CV                S
                      KCal/Mol        Cal/Mol-Kelvin    Cal/Mol-Kelvin
 Total                  152.848             36.955             86.081
 Electronic               0.000              0.000              0.000
 Translational            0.889              2.981             40.909
 Rotational               0.889              2.981             29.220
 Vibrational            151.071             30.994             15.952
 Vibration     1          0.659              1.775              1.785
 Vibration     2          0.672              1.735              1.620
 Vibration     3          0.679              1.715              1.548
 Vibration     4          0.692              1.674              1.419
 Vibration     5          0.753              1.506              1.026
 Vibration     6          0.782              1.428              0.893
 Vibration     7          0.791              1.405              0.859
 Vibration     8          0.826              1.319              0.741
 Vibration     9          0.846              1.273              0.684
 Vibration    10          0.881              1.192              0.596
 Vibration    11          0.893              1.167              0.570
 Vibration    12          0.897              1.158              0.562

                           ! Non-Optimized Parameters !
 Normal termination of Gaussian 16 at Tue Dec  8 21:37:09 2020.

 ----------------------------------------------------------------------
 # B3LYP/6-311++G(d,p) empiricaldispersion=gd3bj scf=xqc pop=npa geom=c
 heck
 ----------------------------------------------------------------------

 ---------------------------------------
 CID_148302034_JID_1865_Energie_neutraal
 ---------------------------------------
 Structure from the checkpoint file:  "JID_1865.chk"
 Charge =  0 Multiplicity = 1

 SCF Done:  E(RB3LYP) =  -444.877135043     A.U. after   13 cycles
 Normal termination of Gaussian 16 at Tue Dec  8 21:42:00 2020.

 ----------------------------------------------------------------------
 # B3LYP/6-311++G(d,p) empiricaldispersion=gd3bj scf=xqc pop=npa geom=c
 heck
 ----------------------------------------------------------------------

 -------------------------------------
 CID_148302034_JID_1865_Energie_kation
 -------------------------------------
 Structure from the checkpoint file:  "JID_1865.chk"
 Charge =  1 Multiplicity = 2

 SCF Done:  E(UB3LYP) =  -444.585709193     A.U. after   19 cycles
 Normal termination of Gaussian 16 at Tue Dec  8 21:48:31 2020.
 Gaussian 16:  ES64L-G16RevA.03 25-Dec-2016

 ----------------------------------------------------------------------
 # B3LYP/6-311++G(d,p) empiricaldispersion=gd3bj scf=xqc pop=npa geom=c
 heck
 ----------------------------------------------------------------------

 ------------------------------------
 CID_148302034_JID_1865_Energie_anion
 ------------------------------------
 Structure from the checkpoint file:  "JID_1865.chk"
 Charge = -1 Multiplicity = 2

                         Standard orientation:
 ---------------------------------------------------------------------
 Center     Atomic      Atomic             Coordinates (Angstroms)
 Number     Number       Type             X           Y           Z
 ---------------------------------------------------------------------
      1          6           0       -1.468268    1.551914    0.582719
      2          6           0       -0.655553    1.432711   -0.801289
      3          6           0        0.875022    1.287887   -0.700723
      4          6           0        1.256147   -0.012191    0.070399
      5          6           0        0.864326   -1.314835   -0.676706
      6          6           0       -0.667149   -1.437903   -0.776206
      7          6           0       -1.214533   -0.000592   -0.806318
      8          6           0       -1.124334    0.011542    0.718968
      9          6           0       -1.483462   -1.527740    0.608420
     10          6           0        0.338363    0.004576    1.278928
     11          7           0        2.670922   -0.091907    0.440937
     12          1           0       -2.517332    1.780047    0.370047
     13          1           0       -1.093051    2.225526    1.362007
     14          1           0       -0.952632    2.134444   -1.589058
     15          1           0        1.294498    1.261879   -1.716288
     16          1           0        1.330837    2.144502   -0.184394
     17          1           0        1.318437   -2.157282   -0.142888
     18          1           0        1.279395   -1.308350   -1.694708
     19          1           0       -0.969649   -2.148903   -1.553106
     20          1           0       -2.276857    0.001881   -1.073649
     21          1           0       -1.114255   -2.190791    1.398872
     22          1           0       -2.534502   -1.749360    0.398344
     23          1           0        0.520220    0.889950    1.901044
     24          1           0        0.519751   -0.869527    1.912408
     25          1           0        3.241324   -0.100523   -0.406130
     26          1           0        2.934010    0.757633    0.941793
 ---------------------------------------------------------------------

 SCF Done:  E(UB3LYP) =  -444.860611827     A.U. after   32 cycles

 The electronic state is 2-A.
 Alpha  occ. eigenvalues --  -14.18136 -10.09243 -10.07532 -10.07482 -10.07290
 Alpha  occ. eigenvalues --  -10.07253 -10.07142 -10.05544 -10.05335 -10.05239
 Alpha  occ. eigenvalues --  -10.04985  -0.80863  -0.76871  -0.68120  -0.64751
 Alpha  occ. eigenvalues --   -0.61609  -0.57725  -0.52425  -0.48286  -0.47494
 Alpha  occ. eigenvalues --   -0.45472  -0.40205  -0.38429  -0.36762  -0.35272
 Alpha  occ. eigenvalues --   -0.33565  -0.32750  -0.30861  -0.30074  -0.29062
 Alpha  occ. eigenvalues --   -0.27442  -0.26025  -0.25373  -0.23158  -0.22187
 Alpha  occ. eigenvalues --   -0.21633  -0.19152  -0.18753  -0.18372  -0.13551
 Alpha  occ. eigenvalues --   -0.11620   0.04796
 Alpha virt. eigenvalues --    0.07219   0.07809   0.08175   0.09400   0.09808
 Alpha virt. eigenvalues --    0.10229   0.10641   0.10887   0.12550   0.12886
 Alpha virt. eigenvalues --    0.13084   0.13547   0.14006   0.14515   0.15150

  Beta  occ. eigenvalues --  -14.18100 -10.09245 -10.07520 -10.07470 -10.07275
  Beta  occ. eigenvalues --  -10.07236 -10.07143 -10.05523 -10.05304 -10.05225
  Beta  occ. eigenvalues --  -10.04964  -0.80835  -0.76821  -0.68086  -0.64701
  Beta  occ. eigenvalues --   -0.61574  -0.57677  -0.52378  -0.48246  -0.47447
  Beta  occ. eigenvalues --   -0.45420  -0.40136  -0.38380  -0.36719  -0.35224
  Beta  occ. eigenvalues --   -0.33535  -0.32710  -0.30823  -0.30047  -0.29031
  Beta  occ. eigenvalues --   -0.27408  -0.25985  -0.25345  -0.23130  -0.22152
  Beta  occ. eigenvalues --   -0.21602  -0.19114  -0.18725  -0.18339  -0.13513
  Beta  occ. eigenvalues --   -0.11587
  Beta virt. eigenvalues --    0.07191   0.08264   0.08551   0.08738   0.10065
  Beta virt. eigenvalues --    0.10464   0.10689   0.11133   0.11352   0.13062
  Beta virt. eigenvalues --    0.13365   0.13655   0.13987   0.14360   0.14727

 Mulliken charges and spin densities:
               1          2
     1  C    0.513522  -1.326258
     2  C   -0.529196   0.953544
     3  C    1.099844  -1.701724
     4  C   -1.449846   1.140773
     5  C    1.143025  -1.758599
     6  C   -0.595571   0.968237
     7  C    1.183345  -1.791775
     8  C   -0.454816   1.365734
     9  C   -0.279962  -0.514058
    10  C    1.511209  -1.881416
    11  N   -0.291218   0.051833
    12  H   -0.165836   0.323783
    13  H   -0.170336   0.292130
    14  H   -0.618455   0.844079
    15  H   -0.332755   0.493881
    16  H   -0.349650   0.504258
    17  H    0.078506   0.098393
    18  H   -0.304877   0.464268
    19  H   -0.371460   0.588841
    20  H   -0.301292   0.502015
    21  H    0.014836   0.101625
    22  H   -0.216926   0.362474
    23  H   -0.062472   0.231233
    24  H    0.093311   0.078192
    25  H   -0.091642   0.325308
    26  H   -0.051289   0.283229
 Sum of Mulliken charges =  -1.00000   1.00000

 Dipole moment (field-independent basis, Debye):
    X=             -0.9704    Y=             -1.8562    Z=              2.8938  Tot=              3.5724
 Quadrupole moment (field-independent basis, Debye-Ang):
   XX=           -122.1614   YY=           -108.0300   ZZ=           -106.1777
   XY=             -0.8328   XZ=             -2.4087   YZ=              0.3671

 Summary of Natural Population Analysis:

                                       Natural Population
                Natural  -----------------------------------------------
    Atom  No    Charge         Core      Valence    Rydberg      Total
 -----------------------------------------------------------------------
      C    1   -0.17258      0.99959     2.16291    0.01008     3.17258
      C    2   -0.10193      0.99958     2.08809    0.01427     3.10193
      C    3   -0.19388      0.99957     2.18171    0.01260     3.19388
      C    4    0.05287      0.99952     1.93238    0.01523     2.94713
      C    5   -0.18909      0.99957     2.17898    0.01054     3.18909
      C    6   -0.10151      0.99958     2.08819    0.01375     3.10151
      C    7   -0.10816      0.99947     2.09372    0.01497     3.10816
      C    8   -0.04079      0.99947     2.02789    0.01344     3.04079
      C    9   -0.17330      0.99959     2.16373    0.00998     3.17330
      C   10   -0.19365      0.99954     2.18153    0.01258     3.19365
      N   11   -0.42370      0.99974     2.91261    0.01135     3.92370
      H   12    0.10123      0.00000     0.39721    0.00156     0.39877
      H   13    0.09511      0.00000     0.40383    0.00106     0.40489
      H   14    0.09753      0.00000     0.40044    0.00202     0.40247
      H   15    0.10417      0.00000     0.39337    0.00247     0.39583
      H   16    0.09926      0.00000     0.39862    0.00212     0.40074
      H   17    0.10337      0.00000     0.39521    0.00143     0.39663
      H   18    0.10262      0.00000     0.39577    0.00161     0.39738
      H   19    0.09604      0.00000     0.40228    0.00168     0.40396
      H   20    0.10163      0.00000     0.39598    0.00239     0.39837
      H   21    0.09380      0.00000     0.40522    0.00097     0.40620
      H   22    0.10081      0.00000     0.39778    0.00141     0.39919
      H   23    0.09891      0.00000     0.39977    0.00131     0.40109
      H   24    0.10131      0.00000     0.39730    0.00140     0.39869
      H   25    0.17567      0.00000     0.32186    0.00247     0.32433
      H   26    0.17427      0.00000     0.32347    0.00226     0.32573
 =======================================================================
   * Total *    0.00000     10.99521    29.83984    0.16495    41.00000

 Normal termination of Gaussian 16 at Tue Dec  8 21:58:02 2020.
