 Gaussian 16, Revision A.03,

 -----------------------------------------------------------
 # opt freq B3LYP/6-31G(d) empiricaldispersion=gd3bj scf=xqc
 -----------------------------------------------------------

 -------------------------------
 CID_121598321_JID_6423_neutraal
 -------------------------------
 Symbolic Z-matrix:
 Charge =  0 Multiplicity = 1

 SCF Done:  E(RB3LYP) =  -1120.19375850     A.U. after   15 cycles
 SCF Done:  E(RB3LYP) =  -1120.20551594     A.U. after   13 cycles
 SCF Done:  E(RB3LYP) =  -1120.20654889     A.U. after   12 cycles
 SCF Done:  E(RB3LYP) =  -1120.20669239     A.U. after   11 cycles
 SCF Done:  E(RB3LYP) =  -1120.20673728     A.U. after   10 cycles
 SCF Done:  E(RB3LYP) =  -1120.20676842     A.U. after   10 cycles
 SCF Done:  E(RB3LYP) =  -1120.20682811     A.U. after   11 cycles
 SCF Done:  E(RB3LYP) =  -1120.20687698     A.U. after   11 cycles
 SCF Done:  E(RB3LYP) =  -1120.20690194     A.U. after   11 cycles
 SCF Done:  E(RB3LYP) =  -1120.20692000     A.U. after   11 cycles
 SCF Done:  E(RB3LYP) =  -1120.21280760     A.U. after    8 cycles
 SCF Done:  E(RB3LYP) =  -1120.21280790     A.U. after    9 cycles
 SCF Done:  E(RB3LYP) =  -1120.21280824     A.U. after    8 cycles
 SCF Done:  E(RB3LYP) =  -1120.21280856     A.U. after    8 cycles
 SCF Done:  E(RB3LYP) =  -1120.21280867     A.U. after    7 cycles
 Optimization completed.
    -- Stationary point found.
 Normal termination of Gaussian 16 at Thu Dec 10 23:24:37 2020.

 --------------------------------------------------------------------
 #N Geom=AllCheck Guess=TCheck SCRF=Check GenChk RB3LYP/6-31G(d) Freq
 --------------------------------------------------------------------

 Structure from the checkpoint file:  "JID_6423.chk"
 -------------------------------
 CID_121598321_JID_6423_neutraal
 -------------------------------
 Charge =  0 Multiplicity = 1

 SCF Done:  E(RB3LYP) =  -1120.21280867     A.U. after    1 cycles

  Exact polarizability: 163.319  -3.217 125.489   7.373   5.782 117.005
 Approx polarizability: 213.328  -8.819 209.206  12.566  13.662 185.468

                      1                      2                      3
                      A                      A                      A
 Frequencies --     23.8251                30.1231                45.6341
 Red. masses --      2.7037                 5.2230                 4.5706
 Frc consts  --      0.0009                 0.0028                 0.0056
 IR Inten    --      0.0343                 6.4476                 0.0480

                      4                      5                      6
                      A                      A                      A
 Frequencies --     54.2296                77.2643                91.0838
 Red. masses --      3.4849                 1.1276                 3.0637
 Frc consts  --      0.0060                 0.0040                 0.0150
 IR Inten    --      8.3786                 0.2897                 5.2520

                      7                      8                      9
                      A                      A                      A
 Frequencies --    116.6310               148.7401               174.5592
 Red. masses --      3.8845                 4.1622                 2.4074
 Frc consts  --      0.0311                 0.0543                 0.0432
 IR Inten    --      3.5162                23.4088                12.3551

                     10                     11                     12
                      A                      A                      A
 Frequencies --    220.9873               225.1874               242.9450
 Red. masses --      2.1433                 1.8205                 2.7509
 Frc consts  --      0.0617                 0.0544                 0.0957
 IR Inten    --      5.1270                11.7995                 2.7954

                     13                     14                     15
                      A                      A                      A
 Frequencies --    261.1242               295.8314               327.8422
 Red. masses --      3.6126                 4.5360                 6.2731
 Frc consts  --      0.1451                 0.2339                 0.3972
 IR Inten    --     11.0027                 2.4181                 1.2561

                     16                     17                     18
                      A                      A                      A
 Frequencies --    360.8089               384.1881               438.6357
 Red. masses --      2.0254                 3.9394                 4.8987
 Frc consts  --      0.1553                 0.3426                 0.5553
 IR Inten    --      1.6265                 5.4295                10.4780

                     19                     20                     21
                      A                      A                      A
 Frequencies --    444.4378               491.7732               518.7727
 Red. masses --      5.2138                 2.5932                 4.8066
 Frc consts  --      0.6068                 0.3695                 0.7622
 IR Inten    --      8.2755                 3.9265                12.0512

                     22                     23                     24
                      A                      A                      A
 Frequencies --    568.2676               595.0711               599.4449
 Red. masses --      4.3560                 5.1577                 2.4347
 Frc consts  --      0.8288                 1.0761                 0.5154
 IR Inten    --     17.2666                 5.3790                 3.8952

                     25                     26                     27
                      A                      A                      A
 Frequencies --    677.6514               696.1794               716.9330
 Red. masses --      4.4251                11.3746                 4.7694
 Frc consts  --      1.1973                 3.2481                 1.4443
 IR Inten    --     28.7766                 0.2270                19.0019

                     28                     29                     30
                      A                      A                      A
 Frequencies --    747.8114               778.3147               794.0380
 Red. masses --      3.2149                 3.6982                 1.4533
 Frc consts  --      1.0593                 1.3199                 0.5399
 IR Inten    --    580.0004                 4.7284                 7.1683

                     31                     32                     33
                      A                      A                      A
 Frequencies --    841.2481               862.3686               868.6035
 Red. masses --      2.2407                 2.3445                 2.2621
 Frc consts  --      0.9343                 1.0273                 1.0056
 IR Inten    --      1.4849                 2.7643                10.8820

                     34                     35                     36
                      A                      A                      A
 Frequencies --    901.2951               910.4203               964.0663
 Red. masses --      2.0237                 2.6299                 1.6208
 Frc consts  --      0.9686                 1.2843                 0.8875
 IR Inten    --      1.6501                 0.3973                 0.6487

                     37                     38                     39
                      A                      A                      A
 Frequencies --    988.5542              1000.8910              1014.9565
 Red. masses --      1.7851                 3.1267                 1.5936
 Frc consts  --      1.0278                 1.8455                 0.9672
 IR Inten    --      0.2806                 1.3088                 0.6617

                     40                     41                     42
                      A                      A                      A
 Frequencies --   1041.6169              1071.5603              1082.1045
 Red. masses --      1.9466                 2.3637                 3.5191
 Frc consts  --      1.2444                 1.5991                 2.4278
 IR Inten    --      0.2462                 1.2155                 5.5753

                     43                     44                     45
                      A                      A                      A
 Frequencies --   1101.5823              1123.7739              1140.4473
 Red. masses --      2.8623                 1.2567                 6.7293
 Frc consts  --      2.0464                 0.9351                 5.1567
 IR Inten    --      1.2830                 4.0032               132.7052

                     46                     47                     48
                      A                      A                      A
 Frequencies --   1162.4594              1165.4484              1189.0959
 Red. masses --      2.4345                 1.3050                 1.3740
 Frc consts  --      1.9383                 1.0444                 1.1447
 IR Inten    --     14.0572                 0.2559                 3.0071

                     49                     50                     51
                      A                      A                      A
 Frequencies --   1213.0881              1225.6385              1247.1758
 Red. masses --      1.5985                 1.8282                 1.4643
 Frc consts  --      1.3859                 1.6180                 1.3419
 IR Inten    --      1.7152                12.0284                 0.4713

                     52                     53                     54
                      A                      A                      A
 Frequencies --   1275.3525              1294.5721              1322.0665
 Red. masses --      2.4071                 1.2398                 1.3162
 Frc consts  --      2.3068                 1.2242                 1.3555
 IR Inten    --      5.1285                 0.8071                 3.5149

                     55                     56                     57
                      A                      A                      A
 Frequencies --   1322.8719              1347.6649              1359.5642
 Red. masses --      1.3524                 1.2824                10.1887
 Frc consts  --      1.3944                 1.3723                11.0960
 IR Inten    --      0.4393                 1.6343               183.3157

                     58                     59                     60
                      A                      A                      A
 Frequencies --   1365.5686              1366.2368              1375.9539
 Red. masses --      1.5082                 1.3134                 1.5083
 Frc consts  --      1.6570                 1.4444                 1.6825
 IR Inten    --      2.1315                 1.6407                 1.6092

                     61                     62                     63
                      A                      A                      A
 Frequencies --   1396.4226              1409.8090              1448.0910
 Red. masses --      3.1510                 1.5850                 2.2487
 Frc consts  --      3.6202                 1.8561                 2.7782
 IR Inten    --      4.7584                27.4960                19.2238

                     64                     65                     66
                      A                      A                      A
 Frequencies --   1473.3688              1510.5144              1511.9767
 Red. masses --      3.0464                 1.1784                 1.0650
 Frc consts  --      3.8964                 1.5842                 1.4345
 IR Inten    --      3.6218                10.8777                 7.5775

                     67                     68                     69
                      A                      A                      A
 Frequencies --   1520.8767              1522.3084              1525.2028
 Red. masses --      1.0852                 1.0894                 2.1913
 Frc consts  --      1.4789                 1.4874                 3.0034
 IR Inten    --      2.9979                 3.2875                31.7512

                     70                     71                     72
                      A                      A                      A
 Frequencies --   1529.2080              1533.9238              1551.1197
 Red. masses --      1.1458                 1.5127                 1.1150
 Frc consts  --      1.5786                 2.0971                 1.5806
 IR Inten    --      5.1921                 3.0001                 3.4873

                     73                     74                     75
                      A                      A                      A
 Frequencies --   1558.4388              1633.6315              3030.1884
 Red. masses --      2.2208                 1.1004                 1.0825
 Frc consts  --      3.1778                 1.7303                 5.8561
 IR Inten    --     32.7696                39.8313                11.8599

                     76                     77                     78
                      A                      A                      A
 Frequencies --   3042.0948              3046.7619              3060.9511
 Red. masses --      1.0662                 1.0645                 1.0634
 Frc consts  --      5.8136                 5.8219                 5.8702
 IR Inten    --     20.6987                49.5564                22.3821

                     79                     80                     81
                      A                      A                      A
 Frequencies --   3064.2110              3073.6763              3092.0017
 Red. masses --      1.0643                 1.0660                 1.0692
 Frc consts  --      5.8879                 5.9338                 6.0227
 IR Inten    --     27.7763                33.0192                 7.8865

                     82                     83                     84
                      A                      A                      A
 Frequencies --   3092.8716              3100.6935              3108.1491
 Red. masses --      1.0620                 1.0953                 1.1030
 Frc consts  --      5.9857                 6.2043                 6.2780
 IR Inten    --     47.7830                28.0525                19.2059

                     85                     86                     87
                      A                      A                      A
 Frequencies --   3111.4561              3123.8548              3166.7048
 Red. masses --      1.1002                 1.1048                 1.1067
 Frc consts  --      6.2754                 6.3519                 6.5389
 IR Inten    --     15.9767                47.1904                 2.2926

                     88                     89                     90
                      A                      A                      A
 Frequencies --   3196.3037              3498.5164              3603.8623
 Red. masses --      1.1045                 1.0473                 1.0977
 Frc consts  --      6.6486                 7.5523                 8.3999
 IR Inten    --      5.7825                39.3313                40.0300

 - Thermochemistry -
 -------------------
 Temperature   298.150 Kelvin.  Pressure   1.00000 Atm.
 Atom     1 has atomic number  6 and mass  12.00000

 Molecular mass:   244.09940 amu.
 Principal axes and moments of inertia in atomic units:
                           1         2         3
     Eigenvalues --  1814.824656943.563187065.38493
           X            0.99995   0.01009  -0.00236
           Y           -0.00939   0.97869   0.20515
           Z            0.00438  -0.20512   0.97873
 This molecule is an asymmetric top.
 Rotational symmetry number  1.
 Warning -- assumption of classical behavior for rotation
           may cause significant error
 Rotational temperatures (Kelvin)      0.04773     0.01247     0.01226
 Rotational constants (GHZ):           0.99444     0.25992     0.25543
 Zero-point vibrational energy     698809.2 (Joules/Mol)
                                  167.01940 (Kcal/Mol)
 Warning -- explicit consideration of  24 degrees of freedom as
           vibrations may cause significant error
 Vibrational temperatures:     34.28    43.34    65.66    78.02   111.17
          (Kelvin)            131.05   167.81   214.00   251.15   317.95
                              323.99   349.54   375.70   425.64   471.69
                              519.12   552.76   631.10   639.45   707.55
                              746.40   817.61   856.17   862.47   974.99
                             1001.65  1031.51  1075.93  1119.82  1142.44
                             1210.37  1240.76  1249.73  1296.76  1309.89
                             1387.08  1422.31  1440.06  1460.30  1498.65
                             1541.74  1556.91  1584.93  1616.86  1640.85
                             1672.52  1676.82  1710.84  1745.36  1763.42
                             1794.41  1834.95  1862.60  1902.16  1903.32
                             1938.99  1956.11  1964.75  1965.71  1979.69
                             2009.14  2028.40  2083.48  2119.85  2173.29
                             2175.40  2188.20  2190.26  2194.43  2200.19
                             2206.97  2231.72  2242.25  2350.43  4359.77
                             4376.90  4383.61  4404.03  4408.72  4422.33
                             4448.70  4449.95  4461.21  4471.93  4476.69
                             4494.53  4556.18  4598.77  5033.58  5185.15

 Zero-point correction=                           0.266162 (Hartree/Particle)
 Thermal correction to Energy=                    0.282366
 Thermal correction to Enthalpy=                  0.283310
 Thermal correction to Gibbs Free Energy=         0.220059
 Sum of electronic and zero-point Energies=          -1119.946646
 Sum of electronic and thermal Energies=             -1119.930443
 Sum of electronic and thermal Enthalpies=           -1119.929499
 Sum of electronic and thermal Free Energies=        -1119.992749

                     E (Thermal)             CV                S
                      KCal/Mol        Cal/Mol-Kelvin    Cal/Mol-Kelvin
 Total                  177.187             59.404            133.122
 Electronic               0.000              0.000              0.000
 Translational            0.889              2.981             42.378
 Rotational               0.889              2.981             32.854
 Vibrational            175.410             53.442             57.890
 Vibration     1          0.593              1.985              6.287
 Vibration     2          0.594              1.984              5.821
 Vibration     3          0.595              1.979              4.998
 Vibration     4          0.596              1.976              4.657
 Vibration     5          0.599              1.964              3.959
 Vibration     6          0.602              1.956              3.637
 Vibration     7          0.608              1.936              3.155
 Vibration     8          0.618              1.904              2.688
 Vibration     9          0.627              1.874              2.386
 Vibration    10          0.648              1.809              1.951
 Vibration    11          0.650              1.803              1.917
 Vibration    12          0.659              1.774              1.781
 Vibration    13          0.669              1.744              1.654
 Vibration    14          0.690              1.682              1.440
 Vibration    15          0.711              1.620              1.271
 Vibration    16          0.735              1.553              1.119
 Vibration    17          0.753              1.504              1.023
 Vibration    18          0.799              1.386              0.831
 Vibration    19          0.804              1.373              0.813
 Vibration    20          0.848              1.268              0.679
 Vibration    21          0.874              1.208              0.613
 Vibration    22          0.924              1.100              0.508
 Vibration    23          0.953              1.042              0.458
 Vibration    24          0.958              1.033              0.451

                           ! Non-Optimized Parameters !
 Normal termination of Gaussian 16 at Thu Dec 10 23:36:38 2020.

 ----------------------------------------------------------------------
 # B3LYP/6-311++G(d,p) empiricaldispersion=gd3bj scf=xqc pop=npa geom=c
 heck
 ----------------------------------------------------------------------

 ---------------------------------------
 CID_121598321_JID_6423_Energie_neutraal
 ---------------------------------------
 Structure from the checkpoint file:  "JID_6423.chk"
 Charge =  0 Multiplicity = 1

 SCF Done:  E(RB3LYP) =  -1120.44304565     A.U. after   15 cycles
 Normal termination of Gaussian 16 at Thu Dec 10 23:42:36 2020.

 ----------------------------------------------------------------------
 # B3LYP/6-311++G(d,p) empiricaldispersion=gd3bj scf=xqc pop=npa geom=c
 heck
 ----------------------------------------------------------------------

 -------------------------------------
 CID_121598321_JID_6423_Energie_kation
 -------------------------------------
 Structure from the checkpoint file:  "JID_6423.chk"
 Charge =  1 Multiplicity = 2

 SCF Done:  E(UB3LYP) =  -1120.09565416     A.U. after   31 cycles
 Normal termination of Gaussian 16 at Thu Dec 10 23:59:54 2020.
 Gaussian 16:  ES64L-G16RevA.03 25-Dec-2016

 ----------------------------------------------------------------------
 # B3LYP/6-311++G(d,p) empiricaldispersion=gd3bj scf=xqc pop=npa geom=c
 heck
 ----------------------------------------------------------------------

 ------------------------------------
 CID_121598321_JID_6423_Energie_anion
 ------------------------------------
 Structure from the checkpoint file:  "JID_6423.chk"
 Charge = -1 Multiplicity = 2

                         Standard orientation:
 ---------------------------------------------------------------------
 Center     Atomic      Atomic             Coordinates (Angstroms)
 Number     Number       Type             X           Y           Z
 ---------------------------------------------------------------------
      1          6           0        0.482949   -1.423035   -1.492205
      2          7           0        0.411879   -0.101246   -0.875403
      3          6           0       -0.590228    0.842610   -0.918582
      4          7           0       -0.236865    1.902661   -0.210919
      5          7           0        1.013212    1.665579    0.318008
      6          6           0        1.373003    0.473922   -0.092775
      7         16           0        2.911829   -0.316752    0.330775
      8          8           0        2.586272   -1.465710    1.172229
      9          8           0        3.681258   -0.467456   -0.902479
     10          7           0        3.682919    0.814457    1.278978
     11          6           0       -1.900657    0.678850   -1.614808
     12          6           0       -3.017766    0.094049   -0.720920
     13          6           0       -2.709296   -1.263013   -0.062149
     14          6           0       -3.769866   -1.358163    1.041771
     15          6           0       -3.786402    0.064009    1.639269
     16          6           0       -3.429086    1.013301    0.461756
     17          1           0       -0.345131   -1.534252   -2.190510
     18          1           0        1.431034   -1.518139   -2.025071
     19          1           0        0.420320   -2.196602   -0.723610
     20          1           0        3.868660    1.666753    0.753057
     21          1           0        3.140634    1.021414    2.116030
     22          1           0       -2.203609    1.670975   -1.963799
     23          1           0       -1.773978    0.054641   -2.507032
     24          1           0       -3.889370   -0.046840   -1.374071
     25          1           0       -2.733738   -2.099508   -0.770328
     26          1           0       -1.712302   -1.242839    0.398148
     27          1           0       -3.552624   -2.132998    1.784068
     28          1           0       -4.744288   -1.595562    0.595076
     29          1           0       -3.025127    0.141360    2.423942
     30          1           0       -4.746862    0.309637    2.102714
     31          1           0       -2.604764    1.679531    0.732612
     32          1           0       -4.272281    1.650457    0.175586
 ---------------------------------------------------------------------

 SCF Done:  E(UB3LYP) =  -1120.43721603     A.U. after   33 cycles
 SCF Done:  E(UB3LYP) =  -1120.43721603     a.u. after    1 cycles

 The electronic state is 2-A.
 Alpha  occ. eigenvalues --  -88.99382 -19.04167 -19.03977 -14.29606 -14.27094
 Alpha  occ. eigenvalues --  -14.24388 -14.23248 -10.15869 -10.14619 -10.12593
 Alpha  occ. eigenvalues --  -10.08636 -10.07533 -10.06550 -10.06436 -10.06192
 Alpha  occ. eigenvalues --  -10.05845  -8.05456  -6.01751  -6.01673  -6.01599
 Alpha  occ. eigenvalues --   -1.04797  -0.97852  -0.93523  -0.84736  -0.84005
 Alpha  occ. eigenvalues --   -0.75399  -0.73101  -0.66161  -0.64557  -0.60862
 Alpha  occ. eigenvalues --   -0.60376  -0.57812  -0.53332  -0.49985  -0.47257
 Alpha  occ. eigenvalues --   -0.46308  -0.46013  -0.45118  -0.42271  -0.40858
 Alpha  occ. eigenvalues --   -0.40104  -0.38412  -0.37244  -0.36842  -0.35121
 Alpha  occ. eigenvalues --   -0.33736  -0.32535  -0.31966  -0.31218  -0.30228
 Alpha  occ. eigenvalues --   -0.27325  -0.25867  -0.25657  -0.24353  -0.24122
 Alpha  occ. eigenvalues --   -0.23997  -0.23788  -0.23509  -0.22840  -0.22630
 Alpha  occ. eigenvalues --   -0.22051  -0.21116  -0.20478  -0.17748  -0.17071
 Alpha  occ. eigenvalues --    0.04094
 Alpha virt. eigenvalues --    0.05896   0.06925   0.07263   0.07743   0.08936
 Alpha virt. eigenvalues --    0.09370   0.09857   0.10110   0.10898   0.11262
 Alpha virt. eigenvalues --    0.11478   0.11914   0.12562   0.12699   0.12890

  Beta  occ. eigenvalues --  -88.99378 -19.04149 -19.03941 -14.29516 -14.27073
  Beta  occ. eigenvalues --  -14.24348 -14.23269 -10.15785 -10.14554 -10.12563
  Beta  occ. eigenvalues --  -10.08618 -10.07508 -10.06544 -10.06419 -10.06167
  Beta  occ. eigenvalues --  -10.05834  -8.05451  -6.01747  -6.01663  -6.01597
  Beta  occ. eigenvalues --   -1.04737  -0.97759  -0.93457  -0.84661  -0.83914
  Beta  occ. eigenvalues --   -0.75309  -0.73035  -0.66080  -0.64481  -0.60817
  Beta  occ. eigenvalues --   -0.60295  -0.57753  -0.53265  -0.49889  -0.47198
  Beta  occ. eigenvalues --   -0.46239  -0.45963  -0.45054  -0.42217  -0.40637
  Beta  occ. eigenvalues --   -0.39998  -0.38339  -0.37182  -0.36776  -0.35037
  Beta  occ. eigenvalues --   -0.33667  -0.32421  -0.31917  -0.31183  -0.30161
  Beta  occ. eigenvalues --   -0.27257  -0.25820  -0.25575  -0.24295  -0.24081
  Beta  occ. eigenvalues --   -0.23948  -0.23751  -0.23451  -0.22787  -0.22583
  Beta  occ. eigenvalues --   -0.21994  -0.21055  -0.20178  -0.17710  -0.16772
  Beta virt. eigenvalues --    0.06092   0.06854   0.07721   0.07921   0.08285
  Beta virt. eigenvalues --    0.09295   0.09580   0.10059   0.10686   0.11268
  Beta virt. eigenvalues --    0.11490   0.11683   0.12332   0.12636   0.12827

 Mulliken charges and spin densities:
               1          2
     1  C    0.347651  -0.742000
     2  N   -0.012376   0.164194
     3  C    0.316289  -0.557823
     4  N   -0.063537   0.022263
     5  N   -0.075762   0.043245
     6  C   -1.280552   0.447138
     7  S    1.347475  -0.359267
     8  O   -0.083696  -0.021489
     9  O   -0.134788   0.013892
    10  N   -0.399838  -0.026344
    11  C   -0.014292  -0.723052
    12  C    0.119008   0.412254
    13  C    0.201234  -0.466392
    14  C    0.156726  -0.717579
    15  C   -0.144814  -0.196953
    16  C   -0.182929  -0.375016
    17  H   -0.234952   0.398776
    18  H   -0.003973   0.172276
    19  H   -0.037266   0.262952
    20  H    0.158201   0.143643
    21  H    0.212532   0.087180
    22  H    0.044572   0.158467
    23  H   -0.406466   0.574077
    24  H   -0.677665   0.931726
    25  H   -0.379141   0.560579
    26  H    0.240320  -0.110981
    27  H   -0.091566   0.249238
    28  H   -0.075230   0.209787
    29  H    0.078912   0.043384
    30  H    0.057773   0.087255
    31  H    0.113328   0.078536
    32  H   -0.095178   0.236033
 Sum of Mulliken charges =  -1.00000   1.00000

 Dipole moment (field-independent basis, Debye):
    X=              4.8263    Y=              2.5367    Z=              3.4652  Tot=              6.4603
 Quadrupole moment (field-independent basis, Debye-Ang):
   XX=           -184.2665   YY=           -143.5578   ZZ=           -138.5545
   XY=              0.3613   XZ=            -11.2247   YZ=             -2.3253

 Summary of Natural Population Analysis:

                                       Natural Population
                Natural  -----------------------------------------------
    Atom  No    Charge         Core      Valence    Rydberg      Total
 -----------------------------------------------------------------------
      C    1   -0.18330      0.99963     2.17553    0.00814     3.18330
      N    2   -0.19883      0.99956     2.68924    0.01004     3.69883
      C    3    0.21305      0.99959     1.76889    0.01847     2.78695
      N    4   -0.17078      0.99968     2.65885    0.01224     3.67078
      N    5   -0.16156      0.99966     2.64733    0.01457     3.66156
      C    6    0.06568      0.99946     1.91216    0.02271     2.93432
      S    7    1.09606      4.99926     1.79950    0.10517     6.90394
      O    8   -0.45110      0.99990     3.44549    0.00571     4.45110
      O    9   -0.45652      0.99990     3.45097    0.00565     4.45652
      N   10   -0.50881      0.99977     3.00003    0.00902     4.00881
      C   11   -0.21365      0.99957     2.20283    0.01125     3.21365
      C   12   -0.10513      0.99959     2.09261    0.01294     3.10513
      C   13   -0.19320      0.99961     2.18430    0.00929     3.19320
      C   14   -0.18898      0.99964     2.18153    0.00782     3.18898
      C   15   -0.19065      0.99964     2.18445    0.00656     3.19065
      C   16   -0.19704      0.99962     2.18875    0.00867     3.19704
      H   17    0.11079      0.00000     0.38768    0.00153     0.38921
      H   18    0.10792      0.00000     0.39105    0.00103     0.39208
      H   19    0.11038      0.00000     0.38834    0.00128     0.38962
      H   20    0.19963      0.00000     0.29797    0.00240     0.30037
      H   21    0.19962      0.00000     0.29814    0.00225     0.30038
      H   22    0.11602      0.00000     0.38262    0.00135     0.38398
      H   23    0.11223      0.00000     0.38531    0.00246     0.38777
      H   24    0.10294      0.00000     0.39264    0.00442     0.39706
      H   25    0.10544      0.00000     0.39204    0.00252     0.39456
      H   26    0.09178      0.00000     0.40626    0.00196     0.40822
      H   27    0.09727      0.00000     0.40190    0.00083     0.40273
      H   28    0.09527      0.00000     0.40330    0.00143     0.40473
      H   29    0.09361      0.00000     0.40519    0.00120     0.40639
      H   30    0.09631      0.00000     0.40273    0.00097     0.40369
      H   31    0.10745      0.00000     0.39079    0.00176     0.39255
      H   32    0.09813      0.00000     0.40092    0.00095     0.40187
 =======================================================================
   * Total *   -0.00000     19.99410    44.70932    0.29658    65.00000

 Normal termination of Gaussian 16 at Fri Dec 11 00:18:28 2020.
