 Gaussian 16, Revision A.03,

 -----------------------------------------------------------
 # opt freq B3LYP/6-31G(d) empiricaldispersion=gd3bj scf=xqc
 -----------------------------------------------------------

 ------------------------------
 CID_81246288_JID_7330_neutraal
 ------------------------------
 Symbolic Z-matrix:
 Charge =  0 Multiplicity = 1

 SCF Done:  E(RB3LYP) =  -711.605493590     A.U. after   14 cycles
 SCF Done:  E(RB3LYP) =  -711.611988630     A.U. after   12 cycles
 SCF Done:  E(RB3LYP) =  -711.613162550     A.U. after   12 cycles
 SCF Done:  E(RB3LYP) =  -711.613109324     A.U. after   12 cycles
 SCF Done:  E(RB3LYP) =  -711.613813254     A.U. after   11 cycles
 SCF Done:  E(RB3LYP) =  -711.613867252     A.U. after   11 cycles
 SCF Done:  E(RB3LYP) =  -711.613930892     A.U. after   11 cycles
 SCF Done:  E(RB3LYP) =  -711.613947334     A.U. after    9 cycles
 SCF Done:  E(RB3LYP) =  -711.613951172     A.U. after    9 cycles
 SCF Done:  E(RB3LYP) =  -711.613952061     A.U. after    8 cycles
 SCF Done:  E(RB3LYP) =  -711.613952190     A.U. after    7 cycles
 SCF Done:  E(RB3LYP) =  -711.613952269     A.U. after    7 cycles
 SCF Done:  E(RB3LYP) =  -711.613952249     A.U. after    7 cycles
 SCF Done:  E(RB3LYP) =  -711.613952233     A.U. after    6 cycles
 Optimization completed.
    -- Stationary point found.
 Normal termination of Gaussian 16 at Sun Dec 13 12:33:29 2020.

 --------------------------------------------------------------------
 #N Geom=AllCheck Guess=TCheck SCRF=Check GenChk RB3LYP/6-31G(d) Freq
 --------------------------------------------------------------------

 Structure from the checkpoint file:  "JID_7330.chk"
 ------------------------------
 CID_81246288_JID_7330_neutraal
 ------------------------------
 Charge =  0 Multiplicity = 1

 SCF Done:  E(RB3LYP) =  -711.613952233     A.U. after    1 cycles

  Exact polarizability: 168.347  -5.073 169.803  12.607   8.905 145.482
 Approx polarizability: 237.474 -15.729 249.814  31.053  22.429 218.485

                      1                      2                      3
                      A                      A                      A
 Frequencies --     26.5817                31.1097                51.3016
 Red. masses --      2.7124                 3.8423                 3.2125
 Frc consts  --      0.0011                 0.0022                 0.0050
 IR Inten    --      0.0536                 0.0589                 0.4609

                      4                      5                      6
                      A                      A                      A
 Frequencies --     67.3396                74.1375                98.4545
 Red. masses --      3.0613                 3.7148                 3.6715
 Frc consts  --      0.0082                 0.0120                 0.0210
 IR Inten    --      0.3172                 0.2036                 0.2054

                      7                      8                      9
                      A                      A                      A
 Frequencies --     98.5413               128.6947               150.0393
 Red. masses --      2.6218                 1.9745                 3.1987
 Frc consts  --      0.0150                 0.0193                 0.0424
 IR Inten    --      1.3838                 0.9487                 0.7740

                     10                     11                     12
                      A                      A                      A
 Frequencies --    198.0647               221.2324               233.0472
 Red. masses --      2.5421                 1.3204                 1.7291
 Frc consts  --      0.0588                 0.0381                 0.0553
 IR Inten    --      0.4093                 0.0698                 0.3635

                     13                     14                     15
                      A                      A                      A
 Frequencies --    247.0605               261.1248               263.1951
 Red. masses --      1.9612                 1.5064                 1.6339
 Frc consts  --      0.0705                 0.0605                 0.0667
 IR Inten    --      0.3099                 1.5839                 0.2885

                     16                     17                     18
                      A                      A                      A
 Frequencies --    287.2568               311.4300               330.5769
 Red. masses --      2.3774                 2.8739                 2.8738
 Frc consts  --      0.1156                 0.1642                 0.1850
 IR Inten    --      0.4133                 1.0622                 0.4492

                     19                     20                     21
                      A                      A                      A
 Frequencies --    339.1113               369.0834               416.0616
 Red. masses --      3.2729                 2.6560                 2.0260
 Frc consts  --      0.2218                 0.2132                 0.2066
 IR Inten    --      1.1958                 0.3924                 0.5616

                     22                     23                     24
                      A                      A                      A
 Frequencies --    444.1127               462.7751               475.8128
 Red. masses --      2.5180                 2.7713                 3.3041
 Frc consts  --      0.2926                 0.3497                 0.4407
 IR Inten    --      0.8801                 1.2104                 3.6752

                     25                     26                     27
                      A                      A                      A
 Frequencies --    545.7895               586.3959               618.9470
 Red. masses --      4.4361                 3.4774                 3.7833
 Frc consts  --      0.7786                 0.7045                 0.8539
 IR Inten    --      1.8181                 8.2748                14.6216

                     28                     29                     30
                      A                      A                      A
 Frequencies --    658.0348               757.3741               769.4315
 Red. masses --      5.5846                 2.2132                 2.1668
 Frc consts  --      1.4247                 0.7480                 0.7558
 IR Inten    --      1.8142                 3.0998                23.8930

                     31                     32                     33
                      A                      A                      A
 Frequencies --    798.8155               809.7563               825.6468
 Red. masses --      1.6969                 1.5338                 2.1387
 Frc consts  --      0.6380                 0.5926                 0.8590
 IR Inten    --      0.7505                90.9534                 1.8689

                     34                     35                     36
                      A                      A                      A
 Frequencies --    845.4224               850.8208               859.5901
 Red. masses --      1.3098                 1.8332                 2.8812
 Frc consts  --      0.5516                 0.7819                 1.2543
 IR Inten    --     10.9461                 2.0306                 4.3479

                     37                     38                     39
                      A                      A                      A
 Frequencies --    884.1489               926.0344               938.9406
 Red. masses --      2.0280                 1.8911                 1.2762
 Frc consts  --      0.9340                 0.9555                 0.6629
 IR Inten    --     18.6079                 2.3598                 1.8148

                     40                     41                     42
                      A                      A                      A
 Frequencies --    951.9987               958.3457               979.2612
 Red. masses --      1.3778                 2.1566                 1.6588
 Frc consts  --      0.7357                 1.1670                 0.9372
 IR Inten    --      2.1275                 0.1332                 3.7575

                     43                     44                     45
                      A                      A                      A
 Frequencies --    980.3766               985.5995               992.1043
 Red. masses --      1.5973                 1.7627                 2.2658
 Frc consts  --      0.9045                 1.0089                 1.3140
 IR Inten    --      1.0338                 1.6286                 3.1360

                     46                     47                     48
                      A                      A                      A
 Frequencies --   1005.6453              1024.2363              1061.4488
 Red. masses --      1.4931                 2.4538                 1.3274
 Frc consts  --      0.8897                 1.5166                 0.8811
 IR Inten    --     10.1971                 6.3530                10.8787

                     49                     50                     51
                      A                      A                      A
 Frequencies --   1085.0026              1090.7394              1111.4022
 Red. masses --      1.4016                 2.1833                 3.0213
 Frc consts  --      0.9722                 1.5304                 2.1988
 IR Inten    --      0.8313                 6.5911                27.5371

                     52                     53                     54
                      A                      A                      A
 Frequencies --   1141.7619              1145.1577              1154.3670
 Red. masses --      2.2025                 1.2361                 2.0935
 Frc consts  --      1.6917                 0.9551                 1.6437
 IR Inten    --     17.4982                 1.3847                13.7767

                     55                     56                     57
                      A                      A                      A
 Frequencies --   1161.9829              1181.8577              1190.8977
 Red. masses --      1.8226                 1.8478                 1.8080
 Frc consts  --      1.4499                 1.5207                 1.5108
 IR Inten    --     20.8834                 2.5978                 5.3640

                     58                     59                     60
                      A                      A                      A
 Frequencies --   1204.3700              1205.0336              1209.5347
 Red. masses --      1.9006                 2.0626                 1.4748
 Frc consts  --      1.6243                 1.7647                 1.2712
 IR Inten    --      2.1593                12.3167                 1.7480

                     61                     62                     63
                      A                      A                      A
 Frequencies --   1218.2456              1232.0295              1256.9169
 Red. masses --      2.3383                 1.7326                 2.0830
 Frc consts  --      2.0446                 1.5495                 1.9388
 IR Inten    --     11.4998                 5.8088                13.3370

                     64                     65                     66
                      A                      A                      A
 Frequencies --   1269.0502              1285.0429              1307.6147
 Red. masses --      1.9895                 1.6839                 3.5603
 Frc consts  --      1.8877                 1.6383                 3.5867
 IR Inten    --      0.9514                34.6252                 2.4086

                     67                     68                     69
                      A                      A                      A
 Frequencies --   1322.7535              1344.2864              1353.0370
 Red. masses --      1.4067                 1.5130                 1.3984
 Frc consts  --      1.4501                 1.6110                 1.5083
 IR Inten    --     18.9186                 1.6646                 0.9614

                     70                     71                     72
                      A                      A                      A
 Frequencies --   1397.1722              1401.2781              1408.6656
 Red. masses --      1.3863                 1.4781                 1.4563
 Frc consts  --      1.5945                 1.7100                 1.7026
 IR Inten    --     10.5046                 9.4953                32.8237

                     73                     74                     75
                      A                      A                      A
 Frequencies --   1431.4280              1436.1991              1455.1344
 Red. masses --      1.2635                 1.3513                 1.6004
 Frc consts  --      1.5253                 1.6422                 1.9965
 IR Inten    --      4.8343                 7.6728                17.1913

                     76                     77                     78
                      A                      A                      A
 Frequencies --   1457.4974              1481.3489              1483.2267
 Red. masses --      1.5764                 1.1817                 1.0926
 Frc consts  --      1.9730                 1.5278                 1.4162
 IR Inten    --      7.0631                 1.2761                 1.1129

                     79                     80                     81
                      A                      A                      A
 Frequencies --   1502.6733              1514.9710              1517.6995
 Red. masses --      1.2116                 1.0707                 1.0551
 Frc consts  --      1.6120                 1.4478                 1.4319
 IR Inten    --     22.8101                 0.5316                 8.4467

                     82                     83                     84
                      A                      A                      A
 Frequencies --   1520.8053              1525.4834              1527.9899
 Red. masses --      1.0700                 1.2217                 1.2207
 Frc consts  --      1.4581                 1.6751                 1.6792
 IR Inten    --      1.2351                11.3819                 6.1827

                     85                     86                     87
                      A                      A                      A
 Frequencies --   1535.9058              1538.6580              1543.1615
 Red. masses --      1.0565                 1.7813                 1.1365
 Frc consts  --      1.4685                 2.4847                 1.5946
 IR Inten    --      4.7642                17.2431                15.7695

                     88                     89                     90
                      A                      A                      A
 Frequencies --   1543.8308              1557.0411              1620.5156
 Red. masses --      1.0725                 1.1043                 7.3207
 Frc consts  --      1.5061                 1.5773                11.3268
 IR Inten    --     15.7120                 1.3315                30.2576

                     91                     92                     93
                      A                      A                      A
 Frequencies --   1641.3637              2953.1294              2969.2261
 Red. masses --      5.6250                 1.0606                 1.0712
 Frc consts  --      8.9285                 5.4499                 5.5640
 IR Inten    --     58.7064                86.8872                41.5437

                     94                     95                     96
                      A                      A                      A
 Frequencies --   3006.5770              3032.9847              3035.5687
 Red. masses --      1.0585                 1.0827                 1.1017
 Frc consts  --      5.6375                 5.8683                 5.9811
 IR Inten    --     36.5257                14.2443                28.9356

                     97                     98                     99
                      A                      A                      A
 Frequencies --   3038.7479              3048.1951              3065.1339
 Red. masses --      1.0372                 1.0415                 1.0863
 Frc consts  --      5.6429                 5.7013                 6.0133
 IR Inten    --     28.7232                34.4577                44.2825

                    100                    101                    102
                      A                      A                      A
 Frequencies --   3073.3159              3093.1255              3100.8819
 Red. masses --      1.0738                 1.0903                 1.1009
 Frc consts  --      5.9755                 6.1461                 6.2371
 IR Inten    --     46.4458                13.1369                14.9519

                    103                    104                    105
                      A                      A                      A
 Frequencies --   3106.3844              3115.6512              3123.1262
 Red. masses --      1.1008                 1.1017                 1.1019
 Frc consts  --      6.2582                 6.3008                 6.3323
 IR Inten    --     58.8450                45.2435                31.3292

                    106                    107                    108
                      A                      A                      A
 Frequencies --   3152.8310              3154.3217              3164.6694
 Red. masses --      1.0961                 1.0531                 1.0574
 Frc consts  --      6.4195                 6.1736                 6.2396
 IR Inten    --     22.6366                14.3764                10.2076

                    109                    110                    111
                      A                      A                      A
 Frequencies --   3169.1061              3183.0817              3205.4590
 Red. masses --      1.0885                 1.0906                 1.0932
 Frc consts  --      6.4412                 6.5106                 6.6182
 IR Inten    --     31.4258                16.1879                13.3358

                    112                    113                    114
                      A                      A                      A
 Frequencies --   3235.8969              3252.5773              3495.8623
 Red. masses --      1.1191                 1.1154                 1.0741
 Frc consts  --      6.9041                 6.9523                 7.7340
 IR Inten    --      3.4056                15.1818                 0.4704

 - Thermochemistry -
 -------------------
 Temperature   298.150 Kelvin.  Pressure   1.00000 Atm.
 Atom     1 has atomic number  6 and mass  12.00000

 Molecular mass:   233.18920 amu.
 Principal axes and moments of inertia in atomic units:
                           1         2         3
     Eigenvalues --  3688.419124799.183325760.32345
           X            0.99796   0.06379   0.00029
           Y           -0.06378   0.99791  -0.01080
           Z           -0.00098   0.01076   0.99994
 This molecule is an asymmetric top.
 Rotational symmetry number  1.
 Warning -- assumption of classical behavior for rotation
           may cause significant error
 Rotational temperatures (Kelvin)      0.02348     0.01805     0.01504
 Rotational constants (GHZ):           0.48930     0.37605     0.31331
 Zero-point vibrational energy     936013.9 (Joules/Mol)
                                  223.71268 (Kcal/Mol)
 Warning -- explicit consideration of  27 degrees of freedom as
           vibrations may cause significant error
 Vibrational temperatures:     38.25    44.76    73.81    96.89   106.67
          (Kelvin)            141.65   141.78   185.16   215.87   284.97
                              318.30   335.30   355.46   375.70   378.68
                              413.30   448.08   475.63   487.91   531.03
                              598.62   638.98   665.83   684.59   785.27
                              843.69   890.53   946.77  1089.69  1107.04
                             1149.32  1165.06  1187.92  1216.37  1224.14
                             1236.76  1272.09  1332.36  1350.93  1369.71
                             1378.85  1408.94  1410.54  1418.06  1427.42
                             1446.90  1473.65  1527.19  1561.08  1569.33
                             1599.06  1642.74  1647.63  1660.88  1671.83
                             1700.43  1713.44  1732.82  1733.77  1740.25
                             1752.78  1772.62  1808.42  1825.88  1848.89
                             1881.37  1903.15  1934.13  1946.72  2010.22
                             2016.13  2026.76  2059.51  2066.37  2093.61
                             2097.01  2131.33  2134.03  2162.01  2179.71
                             2183.63  2188.10  2194.83  2198.44  2209.83
                             2213.79  2220.27  2221.23  2240.23  2331.56
                             2361.56  4248.89  4272.05  4325.79  4363.79
                             4367.51  4372.08  4385.67  4410.04  4421.82
                             4450.32  4461.48  4469.39  4482.73  4493.48
                             4536.22  4538.37  4553.25  4559.64  4579.74
                             4611.94  4655.73  4679.73  5029.77

 Zero-point correction=                           0.356509 (Hartree/Particle)
 Thermal correction to Energy=                    0.374544
 Thermal correction to Enthalpy=                  0.375489
 Thermal correction to Gibbs Free Energy=         0.309406
 Sum of electronic and zero-point Energies=           -711.257443
 Sum of electronic and thermal Energies=              -711.239408
 Sum of electronic and thermal Enthalpies=            -711.238464
 Sum of electronic and thermal Free Energies=         -711.304547

                     E (Thermal)             CV                S
                      KCal/Mol        Cal/Mol-Kelvin    Cal/Mol-Kelvin
 Total                  235.030             67.778            139.083
 Electronic               0.000              0.000              0.000
 Translational            0.889              2.981             42.242
 Rotational               0.889              2.981             32.989
 Vibrational            233.253             61.816             63.853
 Vibration     1          0.593              1.984              6.069
 Vibration     2          0.594              1.983              5.757
 Vibration     3          0.596              1.977              4.767
 Vibration     4          0.598              1.970              4.230
 Vibration     5          0.599              1.966              4.040
 Vibration     6          0.604              1.950              3.485
 Vibration     7          0.604              1.950              3.483
 Vibration     8          0.611              1.925              2.965
 Vibration     9          0.618              1.903              2.672
 Vibration    10          0.637              1.843              2.151
 Vibration    11          0.648              1.809              1.949
 Vibration    12          0.654              1.790              1.855
 Vibration    13          0.661              1.768              1.751
 Vibration    14          0.669              1.744              1.654
 Vibration    15          0.670              1.740              1.640
 Vibration    16          0.684              1.697              1.490
 Vibration    17          0.700              1.652              1.355
 Vibration    18          0.713              1.614              1.257
 Vibration    19          0.719              1.597              1.216
 Vibration    20          0.741              1.536              1.084
 Vibration    21          0.779              1.435              0.905
 Vibration    22          0.804              1.374              0.814
 Vibration    23          0.820              1.333              0.758
 Vibration    24          0.832              1.304              0.721
 Vibration    25          0.901              1.149              0.553
 Vibration    26          0.943              1.061              0.474
 Vibration    27          0.979              0.992              0.418

 Optimization completed.
    -- Stationary point found.
 Normal termination of Gaussian 16 at Sun Dec 13 12:51:08 2020.

 ----------------------------------------------------------------------
 # B3LYP/6-311++G(d,p) empiricaldispersion=gd3bj scf=xqc pop=npa geom=c
 heck
 ----------------------------------------------------------------------

 --------------------------------------
 CID_81246288_JID_7330_Energie_neutraal
 --------------------------------------
 Structure from the checkpoint file:  "JID_7330.chk"
 Charge =  0 Multiplicity = 1

 SCF Done:  E(RB3LYP) =  -711.805903288     A.U. after   14 cycles
 Normal termination of Gaussian 16 at Sun Dec 13 12:59:50 2020.

 ----------------------------------------------------------------------
 # B3LYP/6-311++G(d,p) empiricaldispersion=gd3bj scf=xqc pop=npa geom=c
 heck
 ----------------------------------------------------------------------

 ------------------------------------
 CID_81246288_JID_7330_Energie_kation
 ------------------------------------
 Structure from the checkpoint file:  "JID_7330.chk"
 Charge =  1 Multiplicity = 2

 SCF Done:  E(UB3LYP) =  -711.520541705     A.U. after   23 cycles
 Normal termination of Gaussian 16 at Sun Dec 13 13:20:28 2020.
 Gaussian 16:  ES64L-G16RevA.03 25-Dec-2016

 ----------------------------------------------------------------------
 # B3LYP/6-311++G(d,p) empiricaldispersion=gd3bj scf=xqc pop=npa geom=c
 heck
 ----------------------------------------------------------------------

 -----------------------------------
 CID_81246288_JID_7330_Energie_anion
 -----------------------------------
 Structure from the checkpoint file:  "JID_7330.chk"
 Charge = -1 Multiplicity = 2

                         Standard orientation:
 ---------------------------------------------------------------------
 Center     Atomic      Atomic             Coordinates (Angstroms)
 Number     Number       Type             X           Y           Z
 ---------------------------------------------------------------------
      1          6           0        2.112373    1.190041   -1.737868
      2          6           0        2.567870   -0.162975   -1.176143
      3          6           0        4.087250   -0.316724   -1.333432
      4          6           0        2.194076   -0.380178    0.298883
      5          7           0        0.753903   -0.549166    0.545706
      6          6           0        0.475757   -1.368712    1.704407
      7          6           0       -0.773201   -2.206443    1.707971
      8          6           0        0.578272   -2.861507    1.545680
      9          6           0       -0.027567    0.658593    0.563511
     10          6           0       -1.153157    0.789902   -0.262799
     11          6           0       -1.892973    1.977332   -0.165672
     12          7           0       -1.598929    2.998421    0.643550
     13          6           0       -0.514940    2.857653    1.419104
     14          6           0        0.288102    1.722126    1.417890
     15          6           0       -1.585404   -0.275907   -1.238540
     16          7           0       -2.963780   -0.695261   -0.969621
     17          6           0       -3.380776   -1.810729   -1.809287
     18          1           0        2.511130    2.016255   -1.135569
     19          1           0        1.025098    1.289115   -1.754438
     20          1           0        2.476633    1.318995   -2.763705
     21          1           0        2.074945   -0.961375   -1.748099
     22          1           0        4.619920    0.448166   -0.753581
     23          1           0        4.431951   -1.298638   -0.988243
     24          1           0        4.385801   -0.203284   -2.381305
     25          1           0        2.664443   -1.308937    0.636359
     26          1           0        2.630091    0.431348    0.908227
     27          1           0        0.781036   -0.956934    2.672074
     28          1           0       -1.303531   -2.326505    2.647895
     29          1           0       -1.408299   -2.158330    0.830357
     30          1           0        0.833991   -3.227978    0.556210
     31          1           0        0.981234   -3.443527    2.369342
     32          1           0       -2.778971    2.091860   -0.786921
     33          1           0       -0.281586    3.694825    2.074909
     34          1           0        1.149056    1.663079    2.076584
     35          1           0       -1.565663    0.131238   -2.259838
     36          1           0       -0.860083   -1.103234   -1.212009
     37          1           0       -3.043598   -0.951214    0.012703
     38          1           0       -2.716933   -2.693849   -1.754410
     39          1           0       -4.392909   -2.120537   -1.530742
     40          1           0       -3.406213   -1.483321   -2.855479
 ---------------------------------------------------------------------

 SCF Done:  E(UB3LYP) =  -711.793570711     A.U. after   33 cycles
 SCF Done:  E(UB3LYP) =  -711.793570711     a.u. after    1 cycles

 The electronic state is 2-A.
 Alpha  occ. eigenvalues --  -14.21463 -14.20828 -14.19819 -10.10760 -10.10720
 Alpha  occ. eigenvalues --  -10.10120 -10.09864 -10.09837 -10.09752 -10.09541
 Alpha  occ. eigenvalues --  -10.07892 -10.07740 -10.07663 -10.07561 -10.07415
 Alpha  occ. eigenvalues --  -10.06306 -10.06032  -0.85135  -0.83149  -0.81384
 Alpha  occ. eigenvalues --   -0.75111  -0.70932  -0.68494  -0.66577  -0.60413
 Alpha  occ. eigenvalues --   -0.58956  -0.57954  -0.55066  -0.52996  -0.50790
 Alpha  occ. eigenvalues --   -0.50336  -0.47689  -0.46644  -0.42924  -0.41155
 Alpha  occ. eigenvalues --   -0.39587  -0.39439  -0.38189  -0.36494  -0.35654
 Alpha  occ. eigenvalues --   -0.34916  -0.34552  -0.33880  -0.32636  -0.32049
 Alpha  occ. eigenvalues --   -0.30374  -0.29742  -0.29601  -0.29000  -0.28866
 Alpha  occ. eigenvalues --   -0.27824  -0.27470  -0.27176  -0.25763  -0.24909
 Alpha  occ. eigenvalues --   -0.23857  -0.23369  -0.21395  -0.19805  -0.17542
 Alpha  occ. eigenvalues --   -0.15954  -0.15700  -0.14253  -0.12411   0.04326
 Alpha virt. eigenvalues --    0.06106   0.06263   0.06687   0.07429   0.07659
 Alpha virt. eigenvalues --    0.08239   0.08411   0.08939   0.09608   0.09695
 Alpha virt. eigenvalues --    0.10168   0.10354   0.11308   0.11638   0.12168

  Beta  occ. eigenvalues --  -14.21463 -14.20814 -14.19666 -10.10739 -10.10556
  Beta  occ. eigenvalues --  -10.10097 -10.09863 -10.09817 -10.09738 -10.09523
  Beta  occ. eigenvalues --  -10.07879 -10.07734 -10.07651 -10.07568 -10.07386
  Beta  occ. eigenvalues --  -10.06274 -10.06024  -0.85006  -0.82984  -0.81355
  Beta  occ. eigenvalues --   -0.75043  -0.70850  -0.68414  -0.66483  -0.60344
  Beta  occ. eigenvalues --   -0.58918  -0.57882  -0.55014  -0.52867  -0.50733
  Beta  occ. eigenvalues --   -0.50256  -0.47622  -0.46592  -0.42866  -0.41112
  Beta  occ. eigenvalues --   -0.39532  -0.39360  -0.38107  -0.36449  -0.35614
  Beta  occ. eigenvalues --   -0.34862  -0.34518  -0.33842  -0.32582  -0.32010
  Beta  occ. eigenvalues --   -0.30298  -0.29599  -0.29539  -0.28961  -0.28767
  Beta  occ. eigenvalues --   -0.27734  -0.27373  -0.27142  -0.25709  -0.24833
  Beta  occ. eigenvalues --   -0.23815  -0.23342  -0.21302  -0.19756  -0.16992
  Beta  occ. eigenvalues --   -0.15728  -0.15506  -0.14182  -0.12339
  Beta virt. eigenvalues --    0.06269   0.06709   0.07110   0.07457   0.07810
  Beta virt. eigenvalues --    0.07985   0.08558   0.08706   0.09178   0.09717
  Beta virt. eigenvalues --    0.09988   0.10442   0.10614   0.11533   0.11865

 Mulliken charges and spin densities:
               1          2
     1  C   -0.084198  -0.597812
     2  C   -1.168380   1.897556
     3  C    0.669369  -1.405672
     4  C    0.639112  -1.316459
     5  N    0.498926   0.000942
     6  C   -1.254667   1.379336
     7  C    0.281409  -0.631638
     8  C    1.289719  -1.670613
     9  C   -0.235554   0.188885
    10  C   -0.080293   0.332823
    11  C   -0.330363  -0.142019
    12  N   -0.079550   0.070730
    13  C   -0.524358   0.056633
    14  C   -0.037605   0.111737
    15  C   -0.603825  -0.373393
    16  N   -0.132004   0.082443
    17  C    0.133806  -0.460263
    18  H    0.133959   0.016204
    19  H    0.171972  -0.036960
    20  H   -0.054578   0.202250
    21  H   -0.213112   0.381473
    22  H   -0.029503   0.156272
    23  H   -0.296721   0.435852
    24  H   -0.272517   0.418134
    25  H    0.239847  -0.070148
    26  H    0.069600   0.053720
    27  H   -0.245386   0.431512
    28  H   -0.195270   0.373672
    29  H    0.423790  -0.331204
    30  H   -0.170794   0.311051
    31  H   -0.359284   0.522120
    32  H    0.163789   0.029987
    33  H    0.104254   0.051429
    34  H    0.025618   0.114039
    35  H    0.141910   0.052357
    36  H    0.566050  -0.406595
    37  H    0.086102   0.116309
    38  H   -0.171187   0.289844
    39  H   -0.038702   0.173547
    40  H   -0.061381   0.191919
 Sum of Mulliken charges =  -1.00000   1.00000

 Dipole moment (field-independent basis, Debye):
    X=             -1.6721    Y=              2.9877    Z=             -0.4766  Tot=              3.4568
 Quadrupole moment (field-independent basis, Debye-Ang):
   XX=           -171.1422   YY=           -163.9826   ZZ=           -150.0566
   XY=             13.1843   XZ=              6.9015   YZ=              5.5079

 Summary of Natural Population Analysis:

                                       Natural Population
                Natural  -----------------------------------------------
    Atom  No    Charge         Core      Valence    Rydberg      Total
 -----------------------------------------------------------------------
      C    1   -0.28528      0.99964     2.28012    0.00551     3.28528
      C    2   -0.11956      0.99961     2.11059    0.00936     3.11956
      C    3   -0.28320      0.99965     2.27782    0.00573     3.28320
      C    4   -0.07455      0.99957     2.06396    0.01102     3.07455
      N    5   -0.29278      0.99966     2.77737    0.01576     3.79278
      C    6   -0.00888      0.99954     1.99664    0.01270     3.00888
      C    7   -0.19981      0.99960     2.19011    0.01010     3.19981
      C    8   -0.19821      0.99961     2.18876    0.00984     3.19821
      C    9    0.13376      0.99941     1.85450    0.01234     2.86624
      C   10   -0.04648      0.99943     2.03688    0.01017     3.04648
      C   11    0.03766      0.99954     1.94907    0.01373     2.96234
      N   12   -0.22110      0.99972     2.70929    0.01209     3.72110
      C   13    0.02693      0.99960     1.95953    0.01394     2.97307
      C   14   -0.13571      0.99949     2.12739    0.00883     3.13571
      C   15   -0.10010      0.99959     2.08844    0.01206     3.10010
      N   16   -0.33450      0.99975     2.82479    0.00996     3.83450
      C   17   -0.17665      0.99967     2.17032    0.00665     3.17665
      H   18    0.09547      0.00000     0.40375    0.00078     0.40453
      H   19    0.10381      0.00000     0.39516    0.00102     0.39619
      H   20    0.09738      0.00000     0.40188    0.00074     0.40262
      H   21    0.09517      0.00000     0.40252    0.00230     0.40483
      H   22    0.09444      0.00000     0.40463    0.00093     0.40556
      H   23    0.10056      0.00000     0.39839    0.00105     0.39944
      H   24    0.10011      0.00000     0.39880    0.00108     0.39989
      H   25    0.10215      0.00000     0.39623    0.00162     0.39785
      H   26    0.08047      0.00000     0.41810    0.00143     0.41953
      H   27    0.09077      0.00000     0.40769    0.00155     0.40923
      H   28    0.10251      0.00000     0.39639    0.00110     0.39749
      H   29    0.10171      0.00000     0.39633    0.00196     0.39829
      H   30    0.10618      0.00000     0.39232    0.00150     0.39382
      H   31    0.10478      0.00000     0.39329    0.00193     0.39522
      H   32    0.09175      0.00000     0.40644    0.00181     0.40825
      H   33    0.08570      0.00000     0.41303    0.00127     0.41430
      H   34    0.10342      0.00000     0.39534    0.00124     0.39658
      H   35    0.09405      0.00000     0.40481    0.00114     0.40595
      H   36    0.09447      0.00000     0.40262    0.00291     0.40553
      H   37    0.17114      0.00000     0.32539    0.00347     0.32886
      H   38    0.07927      0.00000     0.41894    0.00179     0.42073
      H   39    0.09321      0.00000     0.40587    0.00092     0.40679
      H   40    0.08991      0.00000     0.40884    0.00125     0.41009
 =======================================================================
   * Total *    0.00000     16.99308    46.79235    0.21458    64.00000

 Normal termination of Gaussian 16 at Sun Dec 13 13:49:54 2020.
