 Gaussian 16, Revision A.03,

 -----------------------------------------------------------
 # opt freq B3LYP/6-31G(d) empiricaldispersion=gd3bj scf=xqc
 -----------------------------------------------------------

 ------------------------------
 CID_83637810_JID_5033_neutraal
 ------------------------------
 Symbolic Z-matrix:
 Charge =  0 Multiplicity = 1

 SCF Done:  E(RB3LYP) =  -614.552438538     A.U. after   16 cycles
 SCF Done:  E(RB3LYP) =  -614.579592117     A.U. after   13 cycles
 SCF Done:  E(RB3LYP) =  -614.581481985     A.U. after   12 cycles
 SCF Done:  E(RB3LYP) =  -614.583722160     A.U. after   13 cycles
 SCF Done:  E(RB3LYP) =  -614.583935857     A.U. after   12 cycles
 SCF Done:  E(RB3LYP) =  -614.584199292     A.U. after   11 cycles
 SCF Done:  E(RB3LYP) =  -614.584274708     A.U. after   10 cycles
 SCF Done:  E(RB3LYP) =  -614.584294972     A.U. after   10 cycles
 SCF Done:  E(RB3LYP) =  -614.584303553     A.U. after   10 cycles
 SCF Done:  E(RB3LYP) =  -614.584304975     A.U. after    8 cycles
 SCF Done:  E(RB3LYP) =  -614.584305282     A.U. after    8 cycles
 SCF Done:  E(RB3LYP) =  -614.584305489     A.U. after    7 cycles
 SCF Done:  E(RB3LYP) =  -614.584305531     A.U. after    7 cycles
 Optimization completed.
    -- Stationary point found.
 Normal termination of Gaussian 16 at Thu Dec 10 14:47:18 2020.

 --------------------------------------------------------------------
 #N Geom=AllCheck Guess=TCheck SCRF=Check GenChk RB3LYP/6-31G(d) Freq
 --------------------------------------------------------------------

 Structure from the checkpoint file:  "JID_5033.chk"
 ------------------------------
 CID_83637810_JID_5033_neutraal
 ------------------------------
 Charge =  0 Multiplicity = 1

 SCF Done:  E(RB3LYP) =  -614.584305531     A.U. after    1 cycles

  Exact polarizability: 169.142  -0.995 158.953  -1.245   0.836  95.720
 Approx polarizability: 245.740  -3.326 248.954  -9.386   5.298 154.447

                      1                      2                      3
                      A                      A                      A
 Frequencies --     58.9898                93.8301               135.2878
 Red. masses --      4.3797                 4.3614                 2.9977
 Frc consts  --      0.0090                 0.0226                 0.0323
 IR Inten    --      2.1219                 1.3069                 1.3762

                      4                      5                      6
                      A                      A                      A
 Frequencies --    145.7729               164.9437               209.1466
 Red. masses --      3.7288                 3.1965                 1.4348
 Frc consts  --      0.0467                 0.0512                 0.0370
 IR Inten    --      2.9180                 5.2784                 1.3198

                      7                      8                      9
                      A                      A                      A
 Frequencies --    210.4130               225.6499               256.6657
 Red. masses --      1.5502                 1.2029                 1.6101
 Frc consts  --      0.0404                 0.0361                 0.0625
 IR Inten    --      2.2069                 0.4047                 1.8548

                     10                     11                     12
                      A                      A                      A
 Frequencies --    287.1042               317.0525               330.6219
 Red. masses --      2.1302                 2.8431                 2.1375
 Frc consts  --      0.1035                 0.1684                 0.1377
 IR Inten    --      0.1452                 0.2396                 3.7423

                     13                     14                     15
                      A                      A                      A
 Frequencies --    333.8492               350.0060               380.5582
 Red. masses --      2.7315                 3.3812                 3.2913
 Frc consts  --      0.1794                 0.2440                 0.2808
 IR Inten    --      0.3931                 3.5384                 3.7089

                     16                     17                     18
                      A                      A                      A
 Frequencies --    412.3204               432.6205               467.4453
 Red. masses --      3.8950                 4.7726                 4.8041
 Frc consts  --      0.3901                 0.5263                 0.6185
 IR Inten    --      2.9273                14.2404                 5.5154

                     19                     20                     21
                      A                      A                      A
 Frequencies --    497.8713               532.7999               546.1029
 Red. masses --      2.5571                 1.8740                 3.5561
 Frc consts  --      0.3735                 0.3134                 0.6248
 IR Inten    --     12.6663                58.8034                 3.4558

                     22                     23                     24
                      A                      A                      A
 Frequencies --    576.4872               601.8657               612.2075
 Red. masses --      4.6412                 3.8529                 4.1870
 Frc consts  --      0.9088                 0.8223                 0.9246
 IR Inten    --      5.3258                 2.0414                 7.1893

                     25                     26                     27
                      A                      A                      A
 Frequencies --    632.8047               683.2347               742.9335
 Red. masses --      4.8874                 2.2144                 4.6560
 Frc consts  --      1.1531                 0.6090                 1.5141
 IR Inten    --      0.0709                37.8352                 0.4128

                     28                     29                     30
                      A                      A                      A
 Frequencies --    768.7788               810.9191               813.7936
 Red. masses --      6.8985                 2.2006                 1.4978
 Frc consts  --      2.4022                 0.8526                 0.5844
 IR Inten    --      8.5466                 5.3720                14.4123

                     31                     32                     33
                      A                      A                      A
 Frequencies --    887.0093               912.9337               935.7453
 Red. masses --      2.6290                 2.3589                 1.2811
 Frc consts  --      1.2187                 1.1583                 0.6609
 IR Inten    --      0.5768                 0.1772                 0.4681

                     34                     35                     36
                      A                      A                      A
 Frequencies --    971.0040               984.2495              1022.4793
 Red. masses --      1.9594                 2.2488                 1.6685
 Frc consts  --      1.0885                 1.2835                 1.0278
 IR Inten    --      1.0477                 0.9727                 2.4364

                     37                     38                     39
                      A                      A                      A
 Frequencies --   1043.5272              1052.1017              1070.6263
 Red. masses --      1.5299                 1.7839                 1.4842
 Frc consts  --      0.9816                 1.1634                 1.0023
 IR Inten    --      7.6716                 2.8094                 1.7474

                     40                     41                     42
                      A                      A                      A
 Frequencies --   1074.8512              1080.4740              1122.1854
 Red. masses --      1.5091                 1.8296                 2.9939
 Frc consts  --      1.0272                 1.2584                 2.2214
 IR Inten    --      7.3905                 0.4979                 6.5357

                     43                     44                     45
                      A                      A                      A
 Frequencies --   1140.0674              1170.5009              1195.3565
 Red. masses --      2.9986                 2.1793                 2.0230
 Frc consts  --      2.2963                 1.7592                 1.7031
 IR Inten    --     11.0126                11.6614                 5.3097

                     46                     47                     48
                      A                      A                      A
 Frequencies --   1204.9729              1232.3906              1270.8422
 Red. masses --      1.5857                 2.5578                 1.4926
 Frc consts  --      1.3565                 2.2888                 1.4203
 IR Inten    --      1.3226                 0.4138                 9.9102

                     49                     50                     51
                      A                      A                      A
 Frequencies --   1297.9172              1299.6647              1318.0709
 Red. masses --      1.6782                 2.2705                 2.4333
 Frc consts  --      1.6657                 2.2596                 2.4907
 IR Inten    --      7.6305                10.4019                30.6166

                     52                     53                     54
                      A                      A                      A
 Frequencies --   1359.0723              1388.2320              1404.3101
 Red. masses --      3.9324                 1.4354                 1.5330
 Frc consts  --      4.2795                 1.6299                 1.7813
 IR Inten    --     33.0600                 5.1165                57.2679

                     55                     56                     57
                      A                      A                      A
 Frequencies --   1436.9891              1440.2798              1447.0066
 Red. masses --      1.2214                 1.3524                 1.2202
 Frc consts  --      1.4860                 1.6529                 1.5053
 IR Inten    --      2.8664                 1.9907                 1.8124

                     58                     59                     60
                      A                      A                      A
 Frequencies --   1470.8210              1491.0478              1506.5675
 Red. masses --      2.1155                 2.0894                 1.0955
 Frc consts  --      2.6964                 2.7369                 1.4651
 IR Inten    --     23.2186                 1.0883                 7.6993

                     61                     62                     63
                      A                      A                      A
 Frequencies --   1516.2337              1516.4792              1525.0738
 Red. masses --      1.0560                 1.0542                 1.1394
 Frc consts  --      1.4303                 1.4285                 1.5613
 IR Inten    --      6.2634                 2.3449                13.7820

                     64                     65                     66
                      A                      A                      A
 Frequencies --   1531.8001              1540.2538              1541.8520
 Red. masses --      1.1842                 1.1031                 1.0771
 Frc consts  --      1.6371                 1.5418                 1.5087
 IR Inten    --     20.7507                 3.9839                11.5655

                     67                     68                     69
                      A                      A                      A
 Frequencies --   1549.6721              1561.7301              1642.6549
 Red. masses --      1.0870                 1.7688                 4.8708
 Frc consts  --      1.5380                 2.5417                 7.7437
 IR Inten    --     16.6561                51.1246                33.7999

                     70                     71                     72
                      A                      A                      A
 Frequencies --   1660.5875              2348.9160              2985.0913
 Red. masses --      6.1485                12.6985                 1.0724
 Frc consts  --      9.9895                41.2797                 5.6301
 IR Inten    --     11.7319                11.7758                52.8280

                     73                     74                     75
                      A                      A                      A
 Frequencies --   3012.7201              3052.8346              3067.8658
 Red. masses --      1.0487                 1.0426                 1.0557
 Frc consts  --      5.6083                 5.7251                 5.8539
 IR Inten    --     42.9508                26.2308                 0.6236

                     76                     77                     78
                      A                      A                      A
 Frequencies --   3067.9590              3073.3255              3098.5510
 Red. masses --      1.0881                 1.0493                 1.0909
 Frc consts  --      6.0342                 5.8396                 6.1708
 IR Inten    --     23.5792                38.1727                44.8898

                     79                     80                     81
                      A                      A                      A
 Frequencies --   3113.0468              3122.0147              3131.0468
 Red. masses --      1.0950                 1.1052                 1.0973
 Frc consts  --      6.2523                 6.3470                 6.3380
 IR Inten    --     20.3684                14.8741                14.2529

                     82                     83                     84
                      A                      A                      A
 Frequencies --   3136.5921              3144.2791              3177.3915
 Red. masses --      1.1025                 1.1009                 1.0872
 Frc consts  --      6.3906                 6.4125                 6.4669
 IR Inten    --     24.1661                 8.2720                14.0363

                     85                     86                     87
                      A                      A                      A
 Frequencies --   3197.3177              3204.0720              3596.5944
 Red. masses --      1.0943                 1.0956                 1.0753
 Frc consts  --      6.5912                 6.6269                 8.1955
 IR Inten    --     27.0330                10.9763                 8.7446

 - Thermochemistry -
 -------------------
 Temperature   298.150 Kelvin.  Pressure   1.00000 Atm.
 Atom     1 has atomic number  6 and mass  12.00000

 Molecular mass:   200.13135 amu.
 Principal axes and moments of inertia in atomic units:
                           1         2         3
     Eigenvalues --  2085.982313061.132504346.16764
           X            0.99910  -0.03232   0.02755
           Y            0.03246   0.99946  -0.00461
           Z           -0.02739   0.00550   0.99961
 This molecule is an asymmetric top.
 Rotational symmetry number  1.
 Warning -- assumption of classical behavior for rotation
           may cause significant error
 Rotational temperatures (Kelvin)      0.04152     0.02829     0.01993
 Rotational constants (GHZ):           0.86518     0.58957     0.41525
 Zero-point vibrational energy     699691.8 (Joules/Mol)
                                  167.23035 (Kcal/Mol)
 Warning -- explicit consideration of  24 degrees of freedom as
           vibrations may cause significant error
 Vibrational temperatures:     84.87   135.00   194.65   209.73   237.32
          (Kelvin)            300.92   302.74   324.66   369.28   413.08
                              456.17   475.69   480.33   503.58   547.54
                              593.24   622.44   672.55   716.33   766.58
                              785.72   829.44   865.95   880.83   910.46
                              983.02  1068.92  1106.10  1166.73  1170.87
                             1276.21  1313.51  1346.33  1397.06  1416.12
                             1471.12  1501.40  1513.74  1540.39  1546.47
                             1554.56  1614.57  1640.30  1684.09  1719.85
                             1733.69  1773.14  1828.46  1867.41  1869.93
                             1896.41  1955.40  1997.36  2020.49  2067.51
                             2072.24  2081.92  2116.18  2145.29  2167.61
                             2181.52  2181.88  2194.24  2203.92  2216.08
                             2218.38  2229.63  2246.98  2363.41  2389.21
                             3379.57  4294.88  4334.63  4392.35  4413.97
                             4414.11  4421.83  4458.12  4478.98  4491.88
                             4504.88  4512.86  4523.92  4571.56  4600.23
                             4609.95  5174.70

 Zero-point correction=                           0.266499 (Hartree/Particle)
 Thermal correction to Energy=                    0.280404
 Thermal correction to Enthalpy=                  0.281348
 Thermal correction to Gibbs Free Energy=         0.227275
 Sum of electronic and zero-point Energies=           -614.317807
 Sum of electronic and thermal Energies=              -614.303901
 Sum of electronic and thermal Enthalpies=            -614.302957
 Sum of electronic and thermal Free Energies=         -614.357031

                     E (Thermal)             CV                S
                      KCal/Mol        Cal/Mol-Kelvin    Cal/Mol-Kelvin
 Total                  175.956             55.421            113.808
 Electronic               0.000              0.000              0.000
 Translational            0.889              2.981             41.786
 Rotational               0.889              2.981             31.696
 Vibrational            174.179             49.459             40.326
 Vibration     1          0.596              1.974              4.491
 Vibration     2          0.603              1.954              3.579
 Vibration     3          0.613              1.918              2.869
 Vibration     4          0.617              1.907              2.727
 Vibration     5          0.623              1.886              2.492
 Vibration     6          0.642              1.827              2.051
 Vibration     7          0.643              1.825              2.040
 Vibration     8          0.650              1.802              1.913
 Vibration     9          0.666              1.752              1.684
 Vibration    10          0.684              1.698              1.491
 Vibration    11          0.704              1.641              1.325
 Vibration    12          0.713              1.614              1.257
 Vibration    13          0.715              1.608              1.241
 Vibration    14          0.727              1.575              1.166
 Vibration    15          0.750              1.512              1.037
 Vibration    16          0.776              1.443              0.918
 Vibration    17          0.794              1.399              0.850
 Vibration    18          0.825              1.322              0.745
 Vibration    19          0.853              1.255              0.663
 Vibration    20          0.888              1.177              0.581
 Vibration    21          0.901              1.148              0.552
 Vibration    22          0.933              1.082              0.492
 Vibration    23          0.960              1.028              0.446
 Vibration    24          0.971              1.006              0.429

 Optimization completed.
    -- Stationary point found.
 Normal termination of Gaussian 16 at Thu Dec 10 14:58:12 2020.

 ----------------------------------------------------------------------
 # B3LYP/6-311++G(d,p) empiricaldispersion=gd3bj scf=xqc pop=npa geom=c
 heck
 ----------------------------------------------------------------------

 --------------------------------------
 CID_83637810_JID_5033_Energie_neutraal
 --------------------------------------
 Structure from the checkpoint file:  "JID_5033.chk"
 Charge =  0 Multiplicity = 1

 SCF Done:  E(RB3LYP) =  -614.745992870     A.U. after   15 cycles
 Normal termination of Gaussian 16 at Thu Dec 10 15:03:19 2020.

 ----------------------------------------------------------------------
 # B3LYP/6-311++G(d,p) empiricaldispersion=gd3bj scf=xqc pop=npa geom=c
 heck
 ----------------------------------------------------------------------

 ------------------------------------
 CID_83637810_JID_5033_Energie_kation
 ------------------------------------
 Structure from the checkpoint file:  "JID_5033.chk"
 Charge =  1 Multiplicity = 2

 SCF Done:  E(UB3LYP) =  -614.472837288     A.U. after   20 cycles
 Normal termination of Gaussian 16 at Thu Dec 10 15:16:23 2020.
 Gaussian 16:  ES64L-G16RevA.03 25-Dec-2016

 ----------------------------------------------------------------------
 # B3LYP/6-311++G(d,p) empiricaldispersion=gd3bj scf=xqc pop=npa geom=c
 heck
 ----------------------------------------------------------------------

 -----------------------------------
 CID_83637810_JID_5033_Energie_anion
 -----------------------------------
 Structure from the checkpoint file:  "JID_5033.chk"
 Charge = -1 Multiplicity = 2

                         Standard orientation:
 ---------------------------------------------------------------------
 Center     Atomic      Atomic             Coordinates (Angstroms)
 Number     Number       Type             X           Y           Z
 ---------------------------------------------------------------------
      1          6           0       -1.045681    2.706193    0.007629
      2          6           0        0.090962    1.705772   -0.030251
      3          6           0       -0.091595    0.307947   -0.137849
      4          6           0        1.038207   -0.541488   -0.040673
      5          6           0        2.344494   -0.002923    0.039620
      6          6           0        2.492909    1.376356    0.087757
      7          6           0        1.385328    2.218042    0.078752
      8          6           0        3.542730   -0.916406    0.084741
      9          7           0        0.913395   -1.934025   -0.048014
     10          6           0       -0.378853   -2.500958    0.297166
     11          6           0       -1.409396   -1.843338   -0.598468
     12          6           0       -1.493231   -0.312769   -0.346155
     13          6           0       -2.250868    0.283818   -1.559270
     14          6           0       -2.294043   -0.113330    0.879090
     15          7           0       -2.925146    0.018639    1.845461
     16          1           0       -0.712588    3.616201    0.515309
     17          1           0       -1.920860    2.335200    0.546675
     18          1           0       -1.367814    3.002386   -0.997855
     19          1           0        3.492758    1.797774    0.158167
     20          1           0        1.522570    3.292289    0.161872
     21          1           0        3.570196   -1.525051    1.001695
     22          1           0        3.555280   -1.612310   -0.764272
     23          1           0        4.470141   -0.337813    0.059182
     24          1           0        1.695168   -2.405228    0.386922
     25          1           0       -0.642198   -2.338441    1.356310
     26          1           0       -0.345425   -3.580339    0.119666
     27          1           0       -1.113422   -1.999282   -1.641597
     28          1           0       -2.400659   -2.283741   -0.456880
     29          1           0       -3.148811   -0.310146   -1.758704
     30          1           0       -2.559462    1.315184   -1.404848
     31          1           0       -1.598401    0.239532   -2.436295
 ---------------------------------------------------------------------

 SCF Done:  E(UB3LYP) =  -614.735134817     A.U. after   33 cycles
 SCF Done:  E(UB3LYP) =  -614.735134817     a.u. after    1 cycles

 The electronic state is 2-A.
 Alpha  occ. eigenvalues --  -14.22239 -14.21507 -10.13896 -10.11681 -10.11403
 Alpha  occ. eigenvalues --  -10.10420 -10.08980 -10.08923 -10.08606 -10.08256
 Alpha  occ. eigenvalues --  -10.07890 -10.07735 -10.07314 -10.06967 -10.06615
 Alpha  occ. eigenvalues --   -0.84870  -0.81439  -0.75945  -0.74147  -0.68592
 Alpha  occ. eigenvalues --   -0.66087  -0.63274  -0.61843  -0.56651  -0.55996
 Alpha  occ. eigenvalues --   -0.54070  -0.49567  -0.47868  -0.41992  -0.41038
 Alpha  occ. eigenvalues --   -0.40337  -0.38316  -0.36403  -0.35232  -0.34102
 Alpha  occ. eigenvalues --   -0.33144  -0.32764  -0.32086  -0.30791  -0.30622
 Alpha  occ. eigenvalues --   -0.29785  -0.29142  -0.29032  -0.28433  -0.27475
 Alpha  occ. eigenvalues --   -0.26516  -0.25153  -0.25131  -0.24646  -0.22614
 Alpha  occ. eigenvalues --   -0.22061  -0.19907  -0.14570  -0.10593   0.04190
 Alpha virt. eigenvalues --    0.06201   0.06705   0.07645   0.08139   0.08298
 Alpha virt. eigenvalues --    0.08854   0.09095   0.09744   0.10323   0.10743
 Alpha virt. eigenvalues --    0.11265   0.11545   0.11813   0.12938   0.13091

  Beta  occ. eigenvalues --  -14.22218 -14.21490 -10.13894 -10.11672 -10.11404
  Beta  occ. eigenvalues --  -10.10389 -10.08972 -10.08911 -10.08581 -10.08228
  Beta  occ. eigenvalues --  -10.07891 -10.07727 -10.07291 -10.06921 -10.06614
  Beta  occ. eigenvalues --   -0.84828  -0.81412  -0.75916  -0.74117  -0.68564
  Beta  occ. eigenvalues --   -0.66043  -0.63233  -0.61798  -0.56595  -0.55946
  Beta  occ. eigenvalues --   -0.54013  -0.49521  -0.47815  -0.41941  -0.41001
  Beta  occ. eigenvalues --   -0.40307  -0.38283  -0.36367  -0.35185  -0.34066
  Beta  occ. eigenvalues --   -0.33114  -0.32721  -0.32043  -0.30754  -0.30589
  Beta  occ. eigenvalues --   -0.29753  -0.29112  -0.28992  -0.28396  -0.27439
  Beta  occ. eigenvalues --   -0.26485  -0.25120  -0.25083  -0.24608  -0.22577
  Beta  occ. eigenvalues --   -0.22031  -0.19861  -0.14493  -0.10554
  Beta virt. eigenvalues --    0.06295   0.06995   0.07352   0.07972   0.08565
  Beta virt. eigenvalues --    0.08760   0.09244   0.09463   0.10173   0.10747
  Beta virt. eigenvalues --    0.11217   0.11492   0.11859   0.11969   0.13178

 Mulliken charges and spin densities:
               1          2
     1  C    0.275143  -0.850370
     2  C    0.527711  -0.034925
     3  C   -1.113906   0.986128
     4  C   -0.869219   0.326611
     5  C   -0.044282   1.099373
     6  C   -1.573514   0.598145
     7  C   -0.224508  -0.238173
     8  C    3.569797  -4.067008
     9  N   -0.300221   0.356179
    10  C    1.002506  -1.417216
    11  C   -1.462141   0.868422
    12  C    0.383459   1.116073
    13  C    0.758784  -1.417248
    14  C    0.925031  -1.665733
    15  N   -0.376357   0.091325
    16  H    0.100252   0.037292
    17  H    0.225356  -0.049294
    18  H    0.021153   0.136684
    19  H   -0.187565   0.288787
    20  H    0.005824   0.129659
    21  H   -0.305948   0.479661
    22  H   -0.228294   0.409512
    23  H   -0.275829   0.427099
    24  H   -0.186453   0.458670
    25  H    0.201912  -0.015325
    26  H   -1.170146   1.365938
    27  H   -0.125763   0.322406
    28  H   -0.242175   0.453155
    29  H   -0.184935   0.353570
    30  H   -0.050738   0.197708
    31  H   -0.074934   0.252894
 Sum of Mulliken charges =  -1.00000   1.00000

 Dipole moment (field-independent basis, Debye):
    X=             -1.2250    Y=              6.5124    Z=             -0.4516  Tot=              6.6420
 Quadrupole moment (field-independent basis, Debye-Ang):
   XX=           -156.1679   YY=           -145.8458   ZZ=           -128.5011
   XY=              6.6156   XZ=              4.4431   YZ=             -1.1290

 Summary of Natural Population Analysis:

                                       Natural Population
                Natural  -----------------------------------------------
    Atom  No    Charge         Core      Valence    Rydberg      Total
 -----------------------------------------------------------------------
      C    1   -0.29606      0.99963     2.29168    0.00474     3.29606
      C    2   -0.00632      0.99948     1.99705    0.00979     3.00632
      C    3   -0.03532      0.99943     2.02467    0.01122     3.03532
      C    4    0.10133      0.99942     1.88763    0.01162     2.89867
      C    5   -0.03356      0.99948     2.02363    0.01045     3.03356
      C    6   -0.08517      0.99951     2.07677    0.00889     3.08517
      C    7   -0.11850      0.99952     2.11017    0.00881     3.11850
      C    8   -0.29808      0.99964     2.29233    0.00611     3.29808
      N    9   -0.31358      0.99968     2.80230    0.01160     3.81358
      C   10   -0.08618      0.99961     2.07469    0.01188     3.08618
      C   11   -0.18075      0.99961     2.17022    0.01093     3.18075
      C   12   -0.09026      0.99947     2.07823    0.01255     3.09026
      C   13   -0.27322      0.99963     2.26622    0.00737     3.27322
      C   14    0.16913      0.99961     1.80998    0.02128     2.83087
      N   15   -0.18858      0.99979     2.67675    0.01204     3.68858
      H   16    0.10199      0.00000     0.39714    0.00087     0.39801
      H   17    0.10826      0.00000     0.39054    0.00121     0.39174
      H   18    0.10241      0.00000     0.39637    0.00122     0.39759
      H   19    0.09754      0.00000     0.40159    0.00087     0.40246
      H   20    0.09510      0.00000     0.40371    0.00119     0.40490
      H   21    0.10282      0.00000     0.39546    0.00172     0.39718
      H   22    0.10796      0.00000     0.39034    0.00170     0.39204
      H   23    0.10458      0.00000     0.39419    0.00123     0.39542
      H   24    0.19403      0.00000     0.30113    0.00484     0.30597
      H   25    0.08726      0.00000     0.41057    0.00217     0.41274
      H   26    0.10463      0.00000     0.39257    0.00280     0.39537
      H   27    0.10652      0.00000     0.39167    0.00182     0.39348
      H   28    0.10754      0.00000     0.39070    0.00176     0.39246
      H   29    0.10336      0.00000     0.39541    0.00123     0.39664
      H   30    0.10424      0.00000     0.39453    0.00122     0.39576
      H   31    0.10686      0.00000     0.39210    0.00104     0.39314
 =======================================================================
   * Total *    0.00000     14.99351    38.82033    0.18616    54.00000

 Normal termination of Gaussian 16 at Thu Dec 10 15:33:11 2020.
