 Gaussian 16, Revision A.03,

 -----------------------------------------------------------
 # opt freq B3LYP/6-31G(d) empiricaldispersion=gd3bj scf=xqc
 -----------------------------------------------------------

 -------------------------------
 CID_154218033_JID_6196_neutraal
 -------------------------------
 Symbolic Z-matrix:
 Charge =  0 Multiplicity = 1

 SCF Done:  E(RB3LYP) =  -671.315994751     A.U. after   14 cycles
 SCF Done:  E(RB3LYP) =  -671.318504169     A.U. after   13 cycles
 SCF Done:  E(RB3LYP) =  -671.319640405     A.U. after   13 cycles
 SCF Done:  E(RB3LYP) =  -671.320873626     A.U. after   12 cycles
 SCF Done:  E(RB3LYP) =  -671.322242421     A.U. after   12 cycles
 SCF Done:  E(RB3LYP) =  -671.323207191     A.U. after   13 cycles
 SCF Done:  E(RB3LYP) =  -671.323421901     A.U. after   11 cycles
 SCF Done:  E(RB3LYP) =  -671.323497845     A.U. after   11 cycles
 SCF Done:  E(RB3LYP) =  -671.323529931     A.U. after   11 cycles
 SCF Done:  E(RB3LYP) =  -671.323550823     A.U. after   10 cycles
 SCF Done:  E(RB3LYP) =  -671.323557000     A.U. after   10 cycles
 SCF Done:  E(RB3LYP) =  -671.323557633     A.U. after    8 cycles
 Optimization completed.
    -- Stationary point found.
 Normal termination of Gaussian 16 at Thu Dec 10 21:17:18 2020.

 --------------------------------------------------------------------
 #N Geom=AllCheck Guess=TCheck SCRF=Check GenChk RB3LYP/6-31G(d) Freq
 --------------------------------------------------------------------

 Structure from the checkpoint file:  "JID_6196.chk"
 -------------------------------
 CID_154218033_JID_6196_neutraal
 -------------------------------
 Charge =  0 Multiplicity = 1

 SCF Done:  E(RB3LYP) =  -671.323557633     A.U. after    1 cycles

  Exact polarizability: 226.660   9.023 139.155 -16.731  16.314 109.031
 Approx polarizability: 342.520  22.501 225.433 -38.731  36.601 194.296

                      1                      2                      3
                      A                      A                      A
 Frequencies --     36.8034                47.8925                80.5386
 Red. masses --      5.2951                 4.0546                 3.5657
 Frc consts  --      0.0042                 0.0055                 0.0136
 IR Inten    --      0.3267                 0.1621                 0.2671

                      4                      5                      6
                      A                      A                      A
 Frequencies --    104.1449               158.2619               205.6778
 Red. masses --      4.2678                 2.2049                 4.4054
 Frc consts  --      0.0273                 0.0325                 0.1098
 IR Inten    --      0.0399                 0.7110                 2.9701

                      7                      8                      9
                      A                      A                      A
 Frequencies --    223.5662               234.0828               296.9338
 Red. masses --      5.2845                 4.2888                 4.1261
 Frc consts  --      0.1556                 0.1385                 0.2143
 IR Inten    --      0.7722                 0.9745                 0.8922

                     10                     11                     12
                      A                      A                      A
 Frequencies --    320.1223               330.1820               362.9129
 Red. masses --      3.4585                 2.9483                 1.1363
 Frc consts  --      0.2088                 0.1894                 0.0882
 IR Inten    --      6.4119                 3.9843               114.6974

                     13                     14                     15
                      A                      A                      A
 Frequencies --    416.1590               419.3844               451.4994
 Red. masses --      4.2571                 3.2706                 4.0900
 Frc consts  --      0.4344                 0.3389                 0.4912
 IR Inten    --     11.5570                 0.7516                 7.9500

                     16                     17                     18
                      A                      A                      A
 Frequencies --    460.6710               483.1219               518.4176
 Red. masses --      2.9079                 1.8794                 3.4014
 Frc consts  --      0.3636                 0.2585                 0.5386
 IR Inten    --     18.0037                88.4628                 4.6243

                     19                     20                     21
                      A                      A                      A
 Frequencies --    556.1147               589.3558               625.0306
 Red. masses --      2.6790                 5.0787                 4.6012
 Frc consts  --      0.4882                 1.0394                 1.0591
 IR Inten    --     25.3179                18.7331                 7.4588

                     22                     23                     24
                      A                      A                      A
 Frequencies --    638.1040               653.9210               690.3385
 Red. masses --      5.8389                 2.0361                 4.1589
 Frc consts  --      1.4008                 0.5130                 1.1678
 IR Inten    --      0.2979                 0.9638                15.6824

                     25                     26                     27
                      A                      A                      A
 Frequencies --    705.3270               747.5604               757.5393
 Red. masses --      2.2362                 4.1507                 2.6002
 Frc consts  --      0.6554                 1.3667                 0.8792
 IR Inten    --     11.5076                 1.5156                 1.3165

                     28                     29                     30
                      A                      A                      A
 Frequencies --    761.1378               793.3465               830.6032
 Red. masses --      1.6747                 2.7130                 2.1245
 Frc consts  --      0.5716                 1.0061                 0.8636
 IR Inten    --     39.1768                20.4654                10.6108

                     31                     32                     33
                      A                      A                      A
 Frequencies --    834.7716               840.5603               869.3669
 Red. masses --      1.2949                 1.6189                 3.3368
 Frc consts  --      0.5317                 0.6739                 1.4859
 IR Inten    --      4.8637                33.0106                 0.5084

                     34                     35                     36
                      A                      A                      A
 Frequencies --    893.0615               930.7009               952.2685
 Red. masses --      1.5178                 1.3640                 1.2991
 Frc consts  --      0.7132                 0.6961                 0.6941
 IR Inten    --      5.5928                35.9260                 0.5641

                     37                     38                     39
                      A                      A                      A
 Frequencies --    952.6070               980.6720              1007.9467
 Red. masses --      1.3194                 1.2277                 3.3424
 Frc consts  --      0.7054                 0.6957                 2.0007
 IR Inten    --      0.0038                 0.3295                 7.5645

                     40                     41                     42
                      A                      A                      A
 Frequencies --   1017.9694              1034.4042              1060.5351
 Red. masses --      5.7515                 1.1108                 1.6771
 Frc consts  --      3.5115                 0.7003                 1.1113
 IR Inten    --      0.7974                16.0466                 4.7301

                     43                     44                     45
                      A                      A                      A
 Frequencies --   1061.6100              1119.3715              1159.3933
 Red. masses --      2.0897                 1.5514                 1.3722
 Frc consts  --      1.3876                 1.1453                 1.0868
 IR Inten    --      4.8904                 4.9943                21.8203

                     46                     47                     48
                      A                      A                      A
 Frequencies --   1192.0403              1210.2928              1215.3415
 Red. masses --      1.0874                 2.0160                 1.1341
 Frc consts  --      0.9103                 1.7398                 0.9870
 IR Inten    --      1.2298               218.5666                 8.8550

                     49                     50                     51
                      A                      A                      A
 Frequencies --   1220.2272              1238.0134              1278.1890
 Red. masses --      1.8334                 1.9494                 1.9753
 Frc consts  --      1.6084                 1.7604                 1.9014
 IR Inten    --      3.7683                41.0496                96.6729

                     52                     53                     54
                      A                      A                      A
 Frequencies --   1305.7205              1335.2651              1362.7560
 Red. masses --      2.2487                 2.8268                 2.3126
 Frc consts  --      2.2588                 2.9694                 2.5304
 IR Inten    --     47.5363                37.7945                48.3778

                     55                     56                     57
                      A                      A                      A
 Frequencies --   1366.5340              1376.2256              1392.3620
 Red. masses --      2.2837                 2.3070                 1.8900
 Frc consts  --      2.5126                 2.5744                 2.1589
 IR Inten    --     16.6594                18.4809                27.8462

                     58                     59                     60
                      A                      A                      A
 Frequencies --   1448.4309              1476.5370              1501.6748
 Red. masses --      1.6654                 1.5115                 2.0691
 Frc consts  --      2.0586                 1.9416                 2.7491
 IR Inten    --     52.0861                24.4705                26.9684

                     61                     62                     63
                      A                      A                      A
 Frequencies --   1542.0569              1549.0451              1572.1126
 Red. masses --      2.3947                 2.2950                 2.3752
 Frc consts  --      3.3551                 3.2446                 3.4588
 IR Inten    --     88.6688               143.5670                30.7121

                     64                     65                     66
                      A                      A                      A
 Frequencies --   1640.7472              1652.2086              1668.2381
 Red. masses --      5.5838                 4.9838                 5.5698
 Frc consts  --      8.8566                 8.0157                 9.1329
 IR Inten    --     45.9850                14.0363               208.8634

                     67                     68                     69
                      A                      A                      A
 Frequencies --   1673.6095              1709.5997              3138.6945
 Red. masses --      5.7296                 4.3353                 1.0856
 Frc consts  --      9.4555                 7.4655                 6.3009
 IR Inten    --     66.7893                11.0321                18.2323

                     70                     71                     72
                      A                      A                      A
 Frequencies --   3160.0888              3169.8904              3185.8563
 Red. masses --      1.0901                 1.0872                 1.0867
 Frc consts  --      6.4138                 6.4366                 6.4985
 IR Inten    --     19.4455                13.1394                 0.3999

                     73                     74                     75
                      A                      A                      A
 Frequencies --   3186.5491              3187.5192              3194.2191
 Red. masses --      1.0767                 1.0795                 1.0921
 Frc consts  --      6.4414                 6.4622                 6.5649
 IR Inten    --      3.6264                24.2489                32.0283

                     76                     77                     78
                      A                      A                      A
 Frequencies --   3211.4068              3224.3012              3232.7478
 Red. masses --      1.0964                 1.0933                 1.0920
 Frc consts  --      6.6618                 6.6969                 6.7241
 IR Inten    --     32.4747                 7.9638                 3.9356

                     79                     80                     81
                      A                      A                      A
 Frequencies --   3292.1871              3575.1892              3750.9759
 Red. masses --      1.1093                 1.0749                 1.0659
 Frc consts  --      7.0839                 8.0950                 8.8360
 IR Inten    --      6.0426                 9.9273                48.0298

 - Thermochemistry -
 -------------------
 Temperature   298.150 Kelvin.  Pressure   1.00000 Atm.
 Atom     1 has atomic number  6 and mass  12.00000

 Molecular mass:   211.09971 amu.
 Principal axes and moments of inertia in atomic units:
                           1         2         3
     Eigenvalues --  1736.477115563.198716341.34835
           X            0.99999  -0.00293  -0.00199
           Y            0.00298   0.99966   0.02585
           Z            0.00191  -0.02586   0.99966
 This molecule is an asymmetric top.
 Rotational symmetry number  1.
 Warning -- assumption of classical behavior for rotation
           may cause significant error
 Rotational temperatures (Kelvin)      0.04988     0.01557     0.01366
 Rotational constants (GHZ):           1.03931     0.32441     0.28460
 Zero-point vibrational energy     619969.7 (Joules/Mol)
                                  148.17632 (Kcal/Mol)
 Warning -- explicit consideration of  20 degrees of freedom as
           vibrations may cause significant error
 Vibrational temperatures:     52.95    68.91   115.88   149.84   227.70
          (Kelvin)            295.92   321.66   336.79   427.22   460.58
                              475.06   522.15   598.76   603.40   649.61
                              662.80   695.10   745.89   800.12   847.95
                              899.28   918.09   940.85   993.24  1014.81
                             1075.57  1089.93  1095.11  1141.45  1195.05
                             1201.05  1209.38  1250.83  1284.92  1339.07
                             1370.10  1370.59  1410.97  1450.21  1464.63
                             1488.28  1525.87  1527.42  1610.53  1668.11
                             1715.08  1741.34  1748.61  1755.63  1781.23
                             1839.03  1878.64  1921.15  1960.70  1966.14
                             1980.08  2003.30  2083.97  2124.41  2160.58
                             2218.68  2228.73  2261.92  2360.67  2377.16
                             2400.22  2407.95  2459.73  4515.88  4546.66
                             4560.77  4583.74  4584.73  4586.13  4595.77
                             4620.50  4639.05  4651.20  4736.72  5143.90
                             5396.82

 Zero-point correction=                           0.236134 (Hartree/Particle)
 Thermal correction to Energy=                    0.249726
 Thermal correction to Enthalpy=                  0.250670
 Thermal correction to Gibbs Free Energy=         0.195456
 Sum of electronic and zero-point Energies=           -671.087424
 Sum of electronic and thermal Energies=              -671.073831
 Sum of electronic and thermal Enthalpies=            -671.072887
 Sum of electronic and thermal Free Energies=         -671.128102

                     E (Thermal)             CV                S
                      KCal/Mol        Cal/Mol-Kelvin    Cal/Mol-Kelvin
 Total                  156.706             54.490            116.209
 Electronic               0.000              0.000              0.000
 Translational            0.889              2.981             41.945
 Rotational               0.889              2.981             32.482
 Vibrational            154.928             48.528             41.781
 Vibration     1          0.594              1.982              5.424
 Vibration     2          0.595              1.978              4.903
 Vibration     3          0.600              1.962              3.878
 Vibration     4          0.605              1.946              3.375
 Vibration     5          0.621              1.893              2.570
 Vibration     6          0.640              1.832              2.082
 Vibration     7          0.649              1.805              1.930
 Vibration     8          0.654              1.789              1.847
 Vibration     9          0.691              1.679              1.434
 Vibration    10          0.706              1.635              1.309
 Vibration    11          0.713              1.615              1.259
 Vibration    12          0.737              1.549              1.110
 Vibration    13          0.779              1.435              0.905
 Vibration    14          0.782              1.428              0.894
 Vibration    15          0.810              1.358              0.791
 Vibration    16          0.818              1.337              0.764
 Vibration    17          0.839              1.287              0.702
 Vibration    18          0.873              1.209              0.614
 Vibration    19          0.912              1.126              0.532
 Vibration    20          0.947              1.054              0.468

                           ! Non-Optimized Parameters !
 Normal termination of Gaussian 16 at Thu Dec 10 21:27:40 2020.

 ----------------------------------------------------------------------
 # B3LYP/6-311++G(d,p) empiricaldispersion=gd3bj scf=xqc pop=npa geom=c
 heck
 ----------------------------------------------------------------------

 ---------------------------------------
 CID_154218033_JID_6196_Energie_neutraal
 ---------------------------------------
 Structure from the checkpoint file:  "JID_6196.chk"
 Charge =  0 Multiplicity = 1

 SCF Done:  E(RB3LYP) =  -671.511726715     A.U. after   15 cycles
 Normal termination of Gaussian 16 at Thu Dec 10 21:32:19 2020.

 ----------------------------------------------------------------------
 # B3LYP/6-311++G(d,p) empiricaldispersion=gd3bj scf=xqc pop=npa geom=c
 heck
 ----------------------------------------------------------------------

 -------------------------------------
 CID_154218033_JID_6196_Energie_kation
 -------------------------------------
 Structure from the checkpoint file:  "JID_6196.chk"
 Charge =  1 Multiplicity = 2

 SCF Done:  E(UB3LYP) =  -671.245666022     A.U. after   24 cycles
 Normal termination of Gaussian 16 at Thu Dec 10 21:42:59 2020.
 Gaussian 16:  ES64L-G16RevA.03 25-Dec-2016

 ----------------------------------------------------------------------
 # B3LYP/6-311++G(d,p) empiricaldispersion=gd3bj scf=xqc pop=npa geom=c
 heck
 ----------------------------------------------------------------------

 ------------------------------------
 CID_154218033_JID_6196_Energie_anion
 ------------------------------------
 Structure from the checkpoint file:  "JID_6196.chk"
 Charge = -1 Multiplicity = 2

                         Standard orientation:
 ---------------------------------------------------------------------
 Center     Atomic      Atomic             Coordinates (Angstroms)
 Number     Number       Type             X           Y           Z
 ---------------------------------------------------------------------
      1          6           0        0.745123    2.552399   -0.935111
      2          6           0       -0.385889    2.373538   -0.238650
      3          6           0       -1.223891    1.178668   -0.077769
      4          6           0       -0.907438   -0.137306   -0.497198
      5          6           0       -1.860730   -1.157320   -0.386907
      6          6           0       -3.125648   -0.914242    0.147116
      7          6           0       -3.442149    0.364054    0.613645
      8          6           0       -2.495105    1.369872    0.500374
      9          8           0       -4.075090   -1.888866    0.264681
     10          7           0        0.341063   -0.468650   -1.071705
     11          6           0        1.555325   -0.484917   -0.357255
     12          6           0        2.702944   -0.960282   -1.011570
     13          6           0        3.930009   -0.984891   -0.356050
     14          6           0        4.040444   -0.525400    0.958009
     15          6           0        2.900829   -0.047743    1.605102
     16          6           0        1.664439   -0.027250    0.962246
     17          1           0        1.233407    1.764010   -1.490851
     18          1           0        1.206159    3.535229   -0.967795
     19          1           0       -0.796346    3.245561    0.271186
     20          1           0       -1.587717   -2.164681   -0.697478
     21          1           0       -4.419155    0.547377    1.047071
     22          1           0       -2.751890    2.368410    0.844338
     23          1           0       -3.720935   -2.718914   -0.090168
     24          1           0        0.278487   -1.222818   -1.744127
     25          1           0        2.624698   -1.305749   -2.040234
     26          1           0        4.805057   -1.361712   -0.878662
     27          1           0        4.999163   -0.538823    1.467311
     28          1           0        2.967490    0.310918    2.628728
     29          1           0        0.785282    0.337583    1.479275
 ---------------------------------------------------------------------

 SCF Done:  E(UB3LYP) =  -671.505162733     A.U. after   33 cycles
 SCF Done:  E(UB3LYP) =  -671.505162733     a.u. after    1 cycles

 The electronic state is 2-A.
 Alpha  occ. eigenvalues --  -19.04332 -14.22112 -10.12279 -10.10748 -10.09699
 Alpha  occ. eigenvalues --  -10.07331 -10.07228 -10.06946 -10.06569 -10.06469
 Alpha  occ. eigenvalues --  -10.06457 -10.06232 -10.06025 -10.05802 -10.05679
 Alpha  occ. eigenvalues --  -10.04087  -0.95392  -0.83845  -0.75107  -0.73211
 Alpha  occ. eigenvalues --   -0.67311  -0.65168  -0.64308  -0.61773  -0.60483
 Alpha  occ. eigenvalues --   -0.52675  -0.51817  -0.50583  -0.48939  -0.45008
 Alpha  occ. eigenvalues --   -0.43808  -0.41960  -0.40486  -0.38135  -0.37151
 Alpha  occ. eigenvalues --   -0.35311  -0.33621  -0.33314  -0.32830  -0.32030
 Alpha  occ. eigenvalues --   -0.31580  -0.30361  -0.28649  -0.27748  -0.27408
 Alpha  occ. eigenvalues --   -0.26208  -0.25085  -0.24376  -0.24066  -0.23644
 Alpha  occ. eigenvalues --   -0.20371  -0.17389  -0.15193  -0.14792  -0.10726
 Alpha  occ. eigenvalues --   -0.09526   0.04477
 Alpha virt. eigenvalues --    0.06837   0.06946   0.07792   0.08166   0.08637
 Alpha virt. eigenvalues --    0.08977   0.09102   0.09540   0.10442   0.10652
 Alpha virt. eigenvalues --    0.11041   0.12041   0.12974   0.13280   0.13627

  Beta  occ. eigenvalues --  -19.04273 -14.22123 -10.12215 -10.10697 -10.09520
  Beta  occ. eigenvalues --  -10.07331 -10.07226 -10.06966 -10.06546 -10.06435
  Beta  occ. eigenvalues --  -10.06425 -10.06224 -10.06001 -10.05790 -10.05635
  Beta  occ. eigenvalues --  -10.03962  -0.95264  -0.83719  -0.75012  -0.73146
  Beta  occ. eigenvalues --   -0.67144  -0.65040  -0.64262  -0.61672  -0.60334
  Beta  occ. eigenvalues --   -0.52567  -0.51638  -0.50509  -0.48811  -0.44900
  Beta  occ. eigenvalues --   -0.43681  -0.41876  -0.40400  -0.38045  -0.37078
  Beta  occ. eigenvalues --   -0.35219  -0.33551  -0.33251  -0.32758  -0.31991
  Beta  occ. eigenvalues --   -0.31514  -0.30131  -0.28518  -0.27660  -0.27331
  Beta  occ. eigenvalues --   -0.26166  -0.24935  -0.24198  -0.23985  -0.23551
  Beta  occ. eigenvalues --   -0.20230  -0.17014  -0.15068  -0.14460  -0.10456
  Beta  occ. eigenvalues --   -0.09169
  Beta virt. eigenvalues --    0.06874   0.07849   0.07959   0.08149   0.08620
  Beta virt. eigenvalues --    0.08717   0.09083   0.09230   0.09819   0.10668
  Beta virt. eigenvalues --    0.10985   0.11203   0.12446   0.13083   0.13275

 Mulliken charges and spin densities:
               1          2
     1  C   -0.732254   0.105196
     2  C    0.312956  -0.154050
     3  C    0.428475  -0.064835
     4  C   -0.175401   0.363473
     5  C   -0.737372   0.763691
     6  C    1.317811  -2.160890
     7  C    0.377983  -0.443748
     8  C   -0.372474   0.188820
     9  O   -0.291863   0.051386
    10  N   -0.035895  -0.013047
    11  C    0.274362  -0.268826
    12  C   -1.372496   0.980749
    13  C    0.313116  -0.511052
    14  C   -0.008461  -0.315181
    15  C   -0.335901   0.282218
    16  C    0.783215  -0.697297
    17  H    0.179798  -0.032003
    18  H    0.104215  -0.000711
    19  H    0.143491  -0.005278
    20  H   -1.218530   1.388039
    21  H    0.158232   0.003856
    22  H    0.115356   0.012394
    23  H   -0.206905   0.485406
    24  H    0.045587   0.254309
    25  H   -0.391918   0.540114
    26  H   -0.037654   0.185590
    27  H    0.066834   0.049993
    28  H    0.092081   0.065706
    29  H    0.203611  -0.054024
 Sum of Mulliken charges =  -1.00000   1.00000

 Dipole moment (field-independent basis, Debye):
    X=              2.6269    Y=              6.0244    Z=              2.9843  Tot=              7.2180
 Quadrupole moment (field-independent basis, Debye-Ang):
   XX=           -149.5636   YY=           -138.0648   ZZ=           -116.9683
   XY=            -13.4784   XZ=             -0.8119   YZ=             -3.6214

 Summary of Natural Population Analysis:

                                       Natural Population
                Natural  -----------------------------------------------
    Atom  No    Charge         Core      Valence    Rydberg      Total
 -----------------------------------------------------------------------
      C    1   -0.16429      0.99959     2.15812    0.00659     3.16429
      C    2   -0.09884      0.99956     2.09031    0.00896     3.09884
      C    3   -0.06182      0.99945     2.05197    0.01039     3.06182
      C    4    0.12486      0.99945     1.86344    0.01225     2.87514
      C    5   -0.14973      0.99948     2.13998    0.01027     3.14973
      C    6    0.17553      0.99938     1.81189    0.01320     2.82447
      C    7   -0.13319      0.99951     2.12342    0.01026     3.13319
      C    8   -0.08172      0.99955     2.07480    0.00737     3.08172
      O    9   -0.34084      0.99988     3.33413    0.00684     4.34084
      N   10   -0.31274      0.99965     2.80075    0.01234     3.81274
      C   11    0.09643      0.99947     1.89226    0.01184     2.90357
      C   12   -0.11795      0.99952     2.10827    0.01017     3.11795
      C   13   -0.10018      0.99957     2.09025    0.01036     3.10018
      C   14   -0.12266      0.99956     2.11347    0.00962     3.12266
      C   15   -0.09510      0.99957     2.08655    0.00897     3.09510
      C   16   -0.11981      0.99951     2.11100    0.00930     3.11981
      H   17    0.09769      0.00000     0.40106    0.00125     0.40231
      H   18    0.08471      0.00000     0.41424    0.00105     0.41529
      H   19    0.08657      0.00000     0.41199    0.00144     0.41343
      H   20    0.10519      0.00000     0.39065    0.00416     0.39481
      H   21    0.10084      0.00000     0.39797    0.00119     0.39916
      H   22    0.09342      0.00000     0.40544    0.00113     0.40658
      H   23    0.23940      0.00000     0.25296    0.00764     0.26060
      H   24    0.19321      0.00000     0.30238    0.00441     0.30679
      H   25    0.10159      0.00000     0.39714    0.00126     0.39841
      H   26    0.09759      0.00000     0.40163    0.00078     0.40241
      H   27    0.09597      0.00000     0.40329    0.00074     0.40403
      H   28    0.09616      0.00000     0.40307    0.00076     0.40384
      H   29    0.10971      0.00000     0.38892    0.00137     0.39029
 =======================================================================
   * Total *    0.00000     15.99270    39.82139    0.18591    56.00000

 Normal termination of Gaussian 16 at Thu Dec 10 21:57:45 2020.
