 Gaussian 16, Revision A.03,

 -----------------------------------------------------------
 # opt freq B3LYP/6-31G(d) empiricaldispersion=gd3bj scf=xqc
 -----------------------------------------------------------

 ------------------------------
 CID_143704990_JID_771_neutraal
 ------------------------------
 Symbolic Z-matrix:
 Charge =  0 Multiplicity = 1

 SCF Done:  E(RB3LYP) =  -786.713824411     A.U. after   15 cycles
 SCF Done:  E(RB3LYP) =  -786.715529826     A.U. after   13 cycles
 SCF Done:  E(RB3LYP) =  -786.714862266     A.U. after   13 cycles
 SCF Done:  E(RB3LYP) =  -786.715922480     A.U. after   11 cycles
 SCF Done:  E(RB3LYP) =  -786.715952919     A.U. after   11 cycles
 SCF Done:  E(RB3LYP) =  -786.715968175     A.U. after   11 cycles
 SCF Done:  E(RB3LYP) =  -786.715975576     A.U. after   11 cycles
 SCF Done:  E(RB3LYP) =  -786.715977125     A.U. after   10 cycles
 SCF Done:  E(RB3LYP) =  -786.715977413     A.U. after    8 cycles
 Optimization completed.
    -- Stationary point found.
 Normal termination of Gaussian 16 at Tue Dec  8 12:28:32 2020.

 --------------------------------------------------------------------
 #N Geom=AllCheck Guess=TCheck SCRF=Check GenChk RB3LYP/6-31G(d) Freq
 --------------------------------------------------------------------

 Structure from the checkpoint file:  "JID_771.chk"
 ------------------------------
 CID_143704990_JID_771_neutraal
 ------------------------------
 Charge =  0 Multiplicity = 1

 SCF Done:  E(RB3LYP) =  -786.715977413     A.U. after    1 cycles

  Exact polarizability: 135.438  -6.238  99.853   5.232  -0.993  77.259
 Approx polarizability: 192.074 -22.764 142.125  10.673  -5.335 115.083

                      1                      2                      3
                      A                      A                      A
 Frequencies --     25.1398                34.6845                67.4262
 Red. masses --      4.7731                 6.0165                 2.8461
 Frc consts  --      0.0018                 0.0043                 0.0076
 IR Inten    --      3.5778                 1.5111                 1.2185

                      4                      5                      6
                      A                      A                      A
 Frequencies --     82.4932               125.3773               154.8204
 Red. masses --      2.7812                 4.2206                 3.2511
 Frc consts  --      0.0112                 0.0391                 0.0459
 IR Inten    --      0.6458                 2.3635                 2.7365

                      7                      8                      9
                      A                      A                      A
 Frequencies --    187.2116               221.5585               226.7662
 Red. masses --      1.6003                 1.1651                 1.7873
 Frc consts  --      0.0330                 0.0337                 0.0542
 IR Inten    --      5.3789                 1.8671                 2.9278

                     10                     11                     12
                      A                      A                      A
 Frequencies --    270.1430               279.6243               354.6333
 Red. masses --      1.7709                 2.6221                 3.1270
 Frc consts  --      0.0761                 0.1208                 0.2317
 IR Inten    --      9.1822                 2.0771                 0.8521

                     13                     14                     15
                      A                      A                      A
 Frequencies --    383.4590               463.8909               533.9791
 Red. masses --      2.1250                 2.9463                 2.7945
 Frc consts  --      0.1841                 0.3736                 0.4695
 IR Inten    --      0.3978                 0.4907                 2.7301

                     16                     17                     18
                      A                      A                      A
 Frequencies --    541.8234               654.9550               691.2152
 Red. masses --      3.1117                 4.2757                 3.0106
 Frc consts  --      0.5382                 1.0806                 0.8475
 IR Inten    --     12.8479                 4.0823                 2.1039

                     19                     20                     21
                      A                      A                      A
 Frequencies --    727.5848               780.4211               817.5561
 Red. masses --      1.2543                 2.6303                 1.2051
 Frc consts  --      0.3912                 0.9439                 0.4746
 IR Inten    --     10.6532                 6.6822                 1.1740

                     22                     23                     24
                      A                      A                      A
 Frequencies --    858.6594               869.0263               897.4232
 Red. masses --      1.4687                 2.2265                 2.1455
 Frc consts  --      0.6380                 0.9907                 1.0181
 IR Inten    --     19.0304                 1.4014                 1.2006

                     25                     26                     27
                      A                      A                      A
 Frequencies --    988.7459               999.7302              1018.7778
 Red. masses --      2.0032                 1.6553                 1.6113
 Frc consts  --      1.1538                 0.9748                 0.9853
 IR Inten    --      4.9423                 3.2140                 4.1724

                     28                     29                     30
                      A                      A                      A
 Frequencies --   1032.3203              1076.3494              1087.4723
 Red. masses --      1.1463                 1.8869                 2.0325
 Frc consts  --      0.7197                 1.2880                 1.4162
 IR Inten    --     26.1908                18.7556                 6.3071

                     31                     32                     33
                      A                      A                      A
 Frequencies --   1092.2975              1128.9216              1184.5539
 Red. masses --      2.0044                 2.3058                 1.1380
 Frc consts  --      1.4090                 1.7314                 0.9408
 IR Inten    --      6.6653                21.5534                 3.1629

                     34                     35                     36
                      A                      A                      A
 Frequencies --   1212.1813              1253.7115              1292.8113
 Red. masses --      1.2059                 1.7627                 1.2468
 Frc consts  --      1.0440                 1.6324                 1.2278
 IR Inten    --     12.5592                61.1774                 0.5093

                     37                     38                     39
                      A                      A                      A
 Frequencies --   1312.2121              1328.9525              1341.9317
 Red. masses --      1.3255                 1.3005                 1.3864
 Frc consts  --      1.3447                 1.3532                 1.4709
 IR Inten    --     40.0433                14.3676                 1.5332

                     40                     41                     42
                      A                      A                      A
 Frequencies --   1352.5370              1359.6597              1378.9627
 Red. masses --      1.2222                 1.7118                 1.3932
 Frc consts  --      1.3173                 1.8645                 1.5608
 IR Inten    --     18.8730                24.6765                 7.7408

                     43                     44                     45
                      A                      A                      A
 Frequencies --   1404.9627              1435.0130              1502.3951
 Red. masses --      1.3985                 1.2177                 1.0781
 Frc consts  --      1.6265                 1.4774                 1.4338
 IR Inten    --     11.3500                 3.5823                 4.5947

                     46                     47                     48
                      A                      A                      A
 Frequencies --   1509.2038              1516.6589              1518.3070
 Red. masses --      1.0923                 1.0762                 1.1040
 Frc consts  --      1.4658                 1.4585                 1.4994
 IR Inten    --      6.0499                 4.5532                14.3763

                     49                     50                     51
                      A                      A                      A
 Frequencies --   1528.3250              1539.6088              1720.0109
 Red. masses --      1.0422                 1.0681                 5.9000
 Frc consts  --      1.4343                 1.4917                10.2841
 IR Inten    --      6.0162                 9.1628                27.0821

                     52                     53                     54
                      A                      A                      A
 Frequencies --   1768.3536              2678.4035              3039.4217
 Red. masses --     10.4163                 1.0386                 1.0668
 Frc consts  --     19.1911                 4.3897                 5.8062
 IR Inten    --    211.2826                26.6712                11.9829

                     55                     56                     57
                      A                      A                      A
 Frequencies --   3044.1484              3058.3074              3064.2645
 Red. masses --      1.0613                 1.0345                 1.0634
 Frc consts  --      5.7945                 5.7011                 5.8831
 IR Inten    --     26.0747                20.6418                19.7274

                     58                     59                     60
                      A                      A                      A
 Frequencies --   3082.1096              3095.2527              3098.3653
 Red. masses --      1.0648                 1.0947                 1.0985
 Frc consts  --      5.9596                 6.1793                 6.2135
 IR Inten    --      8.0751                21.7928                24.2692

                     61                     62                     63
                      A                      A                      A
 Frequencies --   3115.2213              3130.3846              3131.3883
 Red. masses --      1.1007                 1.1024                 1.1061
 Frc consts  --      6.2933                 6.3648                 6.3901
 IR Inten    --      0.6835                28.6883                19.2047

                     64                     65                     66
                      A                      A                      A
 Frequencies --   3136.8727              3162.1323              3176.5957
 Red. masses --      1.1034                 1.0893                 1.0886
 Frc consts  --      6.3973                 6.4176                 6.4718
 IR Inten    --     40.3930                12.1459                14.7996

 - Thermochemistry -
 -------------------
 Temperature   298.150 Kelvin.  Pressure   1.00000 Atm.
 Atom     1 has atomic number  6 and mass  12.00000

 Molecular mass:   158.07654 amu.
 Principal axes and moments of inertia in atomic units:
                           1         2         3
     Eigenvalues --   959.848924041.884484624.93300
           X            0.99937   0.03516  -0.00476
           Y           -0.03516   0.99938   0.00170
           Z            0.00482  -0.00153   0.99999
 This molecule is an asymmetric top.
 Rotational symmetry number  1.
 Warning -- assumption of classical behavior for rotation
           may cause significant error
 Rotational temperatures (Kelvin)      0.09024     0.02143     0.01873
 Rotational constants (GHZ):           1.88023     0.44651     0.39022
 Zero-point vibrational energy     539203.0 (Joules/Mol)
                                  128.87262 (Kcal/Mol)
 Warning -- explicit consideration of  16 degrees of freedom as
           vibrations may cause significant error
 Vibrational temperatures:     36.17    49.90    97.01   118.69   180.39
          (Kelvin)            222.75   269.36   318.77   326.27   388.68
                              402.32   510.24   551.71   667.44   768.28
                              779.56   942.33   994.50  1046.83  1122.85
                             1176.28  1235.42  1250.34  1291.19  1422.58
                             1438.39  1465.79  1485.28  1548.63  1564.63
                             1571.57  1624.27  1704.31  1744.06  1803.81
                             1860.07  1887.98  1912.07  1930.74  1946.00
                             1956.25  1984.02  2021.43  2064.66  2161.61
                             2171.41  2182.13  2184.51  2198.92  2215.15
                             2474.71  2544.27  3853.63  4373.05  4379.85
                             4400.22  4408.79  4434.47  4453.38  4457.86
                             4482.11  4503.93  4505.37  4513.26  4549.60
                             4570.41

 Zero-point correction=                           0.205372 (Hartree/Particle)
 Thermal correction to Energy=                    0.217802
 Thermal correction to Enthalpy=                  0.218746
 Thermal correction to Gibbs Free Energy=         0.164631
 Sum of electronic and zero-point Energies=           -786.510606
 Sum of electronic and thermal Energies=              -786.498176
 Sum of electronic and thermal Enthalpies=            -786.497231
 Sum of electronic and thermal Free Energies=         -786.551346

                     E (Thermal)             CV                S
                      KCal/Mol        Cal/Mol-Kelvin    Cal/Mol-Kelvin
 Total                  136.673             43.564            113.894
 Electronic               0.000              0.000              0.000
 Translational            0.889              2.981             41.083
 Rotational               0.889              2.981             31.262
 Vibrational            134.895             37.602             41.549
 Vibration     1          0.593              1.985              6.180
 Vibration     2          0.594              1.983              5.542
 Vibration     3          0.598              1.970              4.227
 Vibration     4          0.600              1.961              3.831
 Vibration     5          0.610              1.928              3.016
 Vibration     6          0.620              1.897              2.612
 Vibration     7          0.632              1.857              2.255
 Vibration     8          0.648              1.808              1.946
 Vibration     9          0.650              1.800              1.904
 Vibration    10          0.674              1.728              1.595
 Vibration    11          0.680              1.711              1.536
 Vibration    12          0.730              1.566              1.146
 Vibration    13          0.753              1.505              1.025
 Vibration    14          0.821              1.330              0.755
 Vibration    15          0.889              1.175              0.578
 Vibration    16          0.897              1.158              0.561

                           ! Non-Optimized Parameters !
 Normal termination of Gaussian 16 at Tue Dec  8 12:39:32 2020.

 ----------------------------------------------------------------------
 # B3LYP/6-311++G(d,p) empiricaldispersion=gd3bj scf=xqc pop=npa geom=c
 heck
 ----------------------------------------------------------------------

 --------------------------------------
 CID_143704990_JID_771_Energie_neutraal
 --------------------------------------
 Structure from the checkpoint file:  "JID_771.chk"
 Charge =  0 Multiplicity = 1

 SCF Done:  E(RB3LYP) =  -786.860430899     A.U. after   15 cycles
 Normal termination of Gaussian 16 at Tue Dec  8 12:44:06 2020.

 ----------------------------------------------------------------------
 # B3LYP/6-311++G(d,p) empiricaldispersion=gd3bj scf=xqc pop=npa geom=c
 heck
 ----------------------------------------------------------------------

 ------------------------------------
 CID_143704990_JID_771_Energie_kation
 ------------------------------------
 Structure from the checkpoint file:  "JID_771.chk"
 Charge =  1 Multiplicity = 2

 SCF Done:  E(UB3LYP) =  -786.542071785     A.U. after   32 cycles
 Normal termination of Gaussian 16 at Tue Dec  8 13:04:05 2020.
 Gaussian 16:  ES64L-G16RevA.03 25-Dec-2016

 ----------------------------------------------------------------------
 # B3LYP/6-311++G(d,p) empiricaldispersion=gd3bj scf=xqc pop=npa geom=c
 heck
 ----------------------------------------------------------------------

 -----------------------------------
 CID_143704990_JID_771_Energie_anion
 -----------------------------------
 Structure from the checkpoint file:  "JID_771.chk"
 Charge = -1 Multiplicity = 2

                         Standard orientation:
 ---------------------------------------------------------------------
 Center     Atomic      Atomic             Coordinates (Angstroms)
 Number     Number       Type             X           Y           Z
 ---------------------------------------------------------------------
      1          6           0        2.748774    1.963067   -0.547499
      2          6           0        2.602080    1.031525    0.668804
      3          6           0        2.636198   -0.432491    0.247508
      4          8           0        3.677538   -1.072769    0.303480
      5          6           0        1.410147   -1.077705   -0.282077
      6          6           0        0.200605   -0.506974   -0.377230
      7          6           0       -1.028238   -1.188946   -0.900109
      8          6           0       -2.095096   -1.438425    0.185663
      9          6           0       -2.557348   -0.191997    0.944122
     10         16           0       -3.365012    1.103030   -0.089880
     11          1           0        3.680954    1.749769   -1.080458
     12          1           0        2.768617    3.010887   -0.230949
     13          1           0        1.920939    1.834898   -1.252670
     14          1           0        3.439512    1.181317    1.355797
     15          1           0        1.677033    1.262160    1.209813
     16          1           0        1.561537   -2.105115   -0.609394
     17          1           0        0.074438    0.522585   -0.044192
     18          1           0       -1.475717   -0.576376   -1.694766
     19          1           0       -0.754929   -2.147757   -1.353834
     20          1           0       -2.962930   -1.916998   -0.281789
     21          1           0       -1.689497   -2.144650    0.922729
     22          1           0       -3.326774   -0.465856    1.671848
     23          1           0       -1.737401    0.263558    1.506737
     24          1           0       -2.258619    1.516923   -0.743723
 ---------------------------------------------------------------------

 SCF Done:  E(UB3LYP) =  -786.866780737     A.U. after   27 cycles

 The electronic state is 2-A.
 Alpha  occ. eigenvalues --  -88.73747 -18.92688 -10.09268 -10.07360 -10.05977
 Alpha  occ. eigenvalues --  -10.05012 -10.04471 -10.03671 -10.02139 -10.01316
 Alpha  occ. eigenvalues --   -7.82419  -5.78786  -5.78451  -5.77813  -0.86668
 Alpha  occ. eigenvalues --   -0.70535  -0.66058  -0.64171  -0.60462  -0.55303
 Alpha  occ. eigenvalues --   -0.51271  -0.48174  -0.43129  -0.38902  -0.36008
 Alpha  occ. eigenvalues --   -0.34831  -0.33188  -0.30822  -0.30367  -0.29824
 Alpha  occ. eigenvalues --   -0.28370  -0.26572  -0.26116  -0.24334  -0.23912
 Alpha  occ. eigenvalues --   -0.22997  -0.22109  -0.21393  -0.21060  -0.20547
 Alpha  occ. eigenvalues --   -0.13830  -0.12442  -0.08723   0.04548
 Alpha virt. eigenvalues --    0.07434   0.08118   0.09000   0.09674   0.10687
 Alpha virt. eigenvalues --    0.11245   0.11372   0.11880   0.12632   0.12941
 Alpha virt. eigenvalues --    0.13322   0.14483   0.14643   0.15835   0.16212

  Beta  occ. eigenvalues --  -88.73740 -18.92204 -10.09222 -10.07111 -10.05921
  Beta  occ. eigenvalues --  -10.05043 -10.04444 -10.03691 -10.01753 -10.01266
  Beta  occ. eigenvalues --   -7.82411  -5.78767  -5.78445  -5.77807  -0.85807
  Beta  occ. eigenvalues --   -0.70401  -0.65690  -0.64025  -0.60224  -0.55108
  Beta  occ. eigenvalues --   -0.51085  -0.47848  -0.42608  -0.38592  -0.35886
  Beta  occ. eigenvalues --   -0.34658  -0.33116  -0.30546  -0.30220  -0.29692
  Beta  occ. eigenvalues --   -0.28020  -0.26231  -0.25796  -0.24231  -0.23726
  Beta  occ. eigenvalues --   -0.22761  -0.22002  -0.21283  -0.20426  -0.19276
  Beta  occ. eigenvalues --   -0.13729  -0.10633  -0.08299
  Beta virt. eigenvalues --    0.07450   0.08272   0.09093   0.09525   0.10695
  Beta virt. eigenvalues --    0.10864   0.11279   0.11799   0.11998   0.12650
  Beta virt. eigenvalues --    0.12968   0.13402   0.14431   0.14694   0.15787

 Mulliken charges and spin densities:
               1          2
     1  C   -0.346636  -0.173444
     2  C   -0.003822  -0.009520
     3  C   -0.267011   0.120030
     4  O   -0.394284   0.160748
     5  C   -0.139096  -0.110984
     6  C    0.334028   0.193029
     7  C   -0.751798   0.297730
     8  C    0.178662  -0.411275
     9  C    0.251485  -0.518182
    10  S   -0.085574  -0.093972
    11  H    0.115627   0.013994
    12  H   -0.030833   0.141296
    13  H    0.099094   0.019156
    14  H    0.087669   0.081009
    15  H   -0.027765   0.137368
    16  H    0.142330  -0.006788
    17  H    0.207890  -0.200809
    18  H    0.061980   0.086690
    19  H    0.102218   0.046100
    20  H   -0.290500   0.395035
    21  H    0.124454   0.006895
    22  H   -0.357727   0.589754
    23  H    0.009991   0.160975
    24  H   -0.020382   0.075167
 Sum of Mulliken charges =  -1.00000   1.00000

 Dipole moment (field-independent basis, Debye):
    X=             -3.0743    Y=              1.9405    Z=             -1.2962  Tot=              3.8597
 Quadrupole moment (field-independent basis, Debye-Ang):
   XX=           -141.7463   YY=            -92.1221   ZZ=            -84.7757
   XY=              6.3607   XZ=             -0.3553   YZ=             -0.8050

 Summary of Natural Population Analysis:

                                       Natural Population
                Natural  -----------------------------------------------
    Atom  No    Charge         Core      Valence    Rydberg      Total
 -----------------------------------------------------------------------
      C    1   -0.27999      0.99966     2.27596    0.00437     3.27999
      C    2   -0.23287      0.99961     2.22343    0.00982     3.23287
      C    3    0.28717      0.99964     1.69175    0.02144     2.71283
      O    4   -0.26136      0.99988     3.25477    0.00670     4.26136
      C    5   -0.13856      0.99948     2.12914    0.00994     3.13856
      C    6   -0.00865      0.99953     2.00083    0.00829     3.00865
      C    7   -0.21228      0.99962     2.20241    0.01026     3.21228
      C    8   -0.18754      0.99961     2.17762    0.01030     3.18754
      C    9   -0.24262      0.99958     2.23240    0.01064     3.24262
      S   10   -0.03593      4.99966     3.02122    0.01504     8.03593
      H   11    0.09602      0.00000     0.40273    0.00125     0.40398
      H   12    0.09038      0.00000     0.40814    0.00149     0.40962
      H   13    0.09740      0.00000     0.40142    0.00118     0.40260
      H   14    0.10034      0.00000     0.39798    0.00168     0.39966
      H   15    0.09713      0.00000     0.40124    0.00163     0.40287
      H   16    0.08967      0.00000     0.40805    0.00228     0.41033
      H   17    0.08091      0.00000     0.41779    0.00130     0.41909
      H   18    0.09950      0.00000     0.39924    0.00126     0.40050
      H   19    0.09658      0.00000     0.40179    0.00162     0.40342
      H   20    0.09664      0.00000     0.40164    0.00172     0.40336
      H   21    0.09917      0.00000     0.39966    0.00117     0.40083
      H   22    0.10370      0.00000     0.39490    0.00140     0.39630
      H   23    0.10663      0.00000     0.39206    0.00131     0.39337
      H   24    0.05855      0.00000     0.43863    0.00282     0.44145
 =======================================================================
   * Total *    0.00000     13.99628    28.87480    0.12891    43.00000

 Normal termination of Gaussian 16 at Tue Dec  8 13:12:48 2020.
