 Gaussian 16, Revision A.03,

 -----------------------------------------------------------
 # opt freq B3LYP/6-31G(d) empiricaldispersion=gd3bj scf=xqc
 -----------------------------------------------------------

 -------------------------------
 CID_130901496_JID_4584_neutraal
 -------------------------------
 Symbolic Z-matrix:
 Charge =  0 Multiplicity = 1

 SCF Done:  E(RB3LYP) =  -631.980468363     A.U. after   14 cycles
 SCF Done:  E(RB3LYP) =  -631.990729924     A.U. after   12 cycles
 SCF Done:  E(RB3LYP) =  -631.991091389     A.U. after   12 cycles
 SCF Done:  E(RB3LYP) =  -631.991976167     A.U. after   11 cycles
 SCF Done:  E(RB3LYP) =  -631.991785813     A.U. after   11 cycles
 SCF Done:  E(RB3LYP) =  -631.992598304     A.U. after   11 cycles
 SCF Done:  E(RB3LYP) =  -631.993012130     A.U. after   11 cycles
 SCF Done:  E(RB3LYP) =  -631.994696459     A.U. after   13 cycles
 SCF Done:  E(RB3LYP) =  -631.955219094     A.U. after   13 cycles
 SCF Done:  E(RB3LYP) =  -631.995878065     A.U. after   11 cycles
 SCF Done:  E(RB3LYP) =  -631.997543412     A.U. after    9 cycles
 SCF Done:  E(RB3LYP) =  -631.997550024     A.U. after    9 cycles
 SCF Done:  E(RB3LYP) =  -631.997552186     A.U. after    9 cycles
 SCF Done:  E(RB3LYP) =  -631.997556788     A.U. after    9 cycles
 SCF Done:  E(RB3LYP) =  -631.997558177     A.U. after    8 cycles
 SCF Done:  E(RB3LYP) =  -631.997558307     A.U. after    7 cycles
 Optimization completed.
    -- Stationary point found.
 Normal termination of Gaussian 16 at Thu Dec 10 10:20:33 2020.

 --------------------------------------------------------------------
 #N Geom=AllCheck Guess=TCheck SCRF=Check GenChk RB3LYP/6-31G(d) Freq
 --------------------------------------------------------------------

 Structure from the checkpoint file:  "JID_4584.chk"
 -------------------------------
 CID_130901496_JID_4584_neutraal
 -------------------------------
 Charge =  0 Multiplicity = 1

 SCF Done:  E(RB3LYP) =  -631.997558307     A.U. after    1 cycles

  Exact polarizability: 147.362   3.032 118.612  -0.399  -1.033 103.382
 Approx polarizability: 183.209   9.454 172.927  -2.847 -11.347 160.461

                      1                      2                      3
                      A                      A                      A
 Frequencies --     33.3493                45.6863                59.0002
 Red. masses --      2.8594                 3.9961                 3.0720
 Frc consts  --      0.0019                 0.0049                 0.0063
 IR Inten    --      0.3433                 0.5956                 0.6566

                      4                      5                      6
                      A                      A                      A
 Frequencies --     80.9534               117.6656               169.2136
 Red. masses --      4.3123                 3.6003                 2.8523
 Frc consts  --      0.0167                 0.0294                 0.0481
 IR Inten    --      1.0074                 0.2975                 3.4586

                      7                      8                      9
                      A                      A                      A
 Frequencies --    187.5978               221.4601               263.4250
 Red. masses --      2.4038                 2.8326                 1.0728
 Frc consts  --      0.0498                 0.0819                 0.0439
 IR Inten    --      2.3221                 2.9468                 0.6845

                     10                     11                     12
                      A                      A                      A
 Frequencies --    270.0355               279.6995               320.8010
 Red. masses --      1.4591                 2.1344                 2.5775
 Frc consts  --      0.0627                 0.0984                 0.1563
 IR Inten    --      0.8067                 1.0321                 4.4142

                     13                     14                     15
                      A                      A                      A
 Frequencies --    357.8004               361.6510               365.6935
 Red. masses --      2.2020                 2.2398                 2.5589
 Frc consts  --      0.1661                 0.1726                 0.2016
 IR Inten    --      1.8958                 4.8960                 7.5396

                     16                     17                     18
                      A                      A                      A
 Frequencies --    373.1113               438.5624               466.6326
 Red. masses --      2.5194                 3.6099                 2.9601
 Frc consts  --      0.2066                 0.4091                 0.3798
 IR Inten    --      3.6818                 2.7983                 9.7805

                     19                     20                     21
                      A                      A                      A
 Frequencies --    547.6463               575.6436               618.9335
 Red. masses --      3.3435                 2.4592                 1.6014
 Frc consts  --      0.5908                 0.4801                 0.3614
 IR Inten    --      4.4229                 6.7222                52.2396

                     22                     23                     24
                      A                      A                      A
 Frequencies --    659.4451               683.8953               722.1619
 Red. masses --      3.2212                 2.2433                 2.5750
 Frc consts  --      0.8253                 0.6182                 0.7912
 IR Inten    --     19.3486                81.4782                15.4652

                     25                     26                     27
                      A                      A                      A
 Frequencies --    756.6561               810.6280               873.2985
 Red. masses --      3.4817                 2.4433                 2.6406
 Frc consts  --      1.1745                 0.9459                 1.1865
 IR Inten    --     12.2043                 4.1829                 5.0870

                     28                     29                     30
                      A                      A                      A
 Frequencies --    906.2470               920.5479               924.1497
 Red. masses --      2.0972                 2.1796                 2.0870
 Frc consts  --      1.0148                 1.0882                 1.0501
 IR Inten    --     26.8564                14.0179                 7.7867

                     31                     32                     33
                      A                      A                      A
 Frequencies --    952.0926               969.2645               971.7044
 Red. masses --      1.8129                 2.0355                 1.5845
 Frc consts  --      0.9682                 1.1267                 0.8815
 IR Inten    --      1.6044                 1.2027                 7.3717

                     34                     35                     36
                      A                      A                      A
 Frequencies --    981.7554              1030.7768              1036.0134
 Red. masses --      2.0935                 1.6657                 2.4714
 Frc consts  --      1.1889                 1.0428                 1.5629
 IR Inten    --      2.1416                 3.9925                 3.8262

                     37                     38                     39
                      A                      A                      A
 Frequencies --   1047.5253              1052.4626              1077.2094
 Red. masses --      2.4489                 2.0984                 1.9696
 Frc consts  --      1.5832                 1.3695                 1.3466
 IR Inten    --      8.3167                17.7653                20.3969

                     40                     41                     42
                      A                      A                      A
 Frequencies --   1090.8335              1108.9757              1137.4387
 Red. masses --      2.8084                 1.7254                 1.1498
 Frc consts  --      1.9689                 1.2502                 0.8764
 IR Inten    --      2.6858                 1.4505                 7.3746

                     43                     44                     45
                      A                      A                      A
 Frequencies --   1158.0396              1183.7514              1188.8126
 Red. masses --      1.3379                 1.6228                 2.2088
 Frc consts  --      1.0571                 1.3398                 1.8392
 IR Inten    --     14.5236                 5.9358                 3.2752

                     46                     47                     48
                      A                      A                      A
 Frequencies --   1196.0862              1213.3833              1231.4173
 Red. masses --      2.2056                 1.2510                 1.9950
 Frc consts  --      1.8591                 1.0852                 1.7824
 IR Inten    --     21.5303                 3.8431                 9.0146

                     49                     50                     51
                      A                      A                      A
 Frequencies --   1238.1355              1273.7085              1281.0949
 Red. masses --      1.5808                 1.2720                 1.6493
 Frc consts  --      1.4278                 1.2159                 1.5948
 IR Inten    --      6.5402                25.0787                 6.4602

                     52                     53                     54
                      A                      A                      A
 Frequencies --   1295.5340              1299.7398              1312.8955
 Red. masses --      1.8474                 1.7745                 2.8500
 Frc consts  --      1.8268                 1.7662                 2.8944
 IR Inten    --    127.5245                31.9506                15.1050

                     55                     56                     57
                      A                      A                      A
 Frequencies --   1328.6965              1345.8765              1373.3672
 Red. masses --      1.2613                 1.3196                 1.5427
 Frc consts  --      1.3120                 1.4083                 1.7144
 IR Inten    --      0.7298                 6.9732                 3.7099

                     58                     59                     60
                      A                      A                      A
 Frequencies --   1385.2492              1386.4665              1408.6825
 Red. masses --      1.4547                 1.3453                 1.7072
 Frc consts  --      1.6447                 1.5237                 1.9960
 IR Inten    --      3.1659                11.1353                70.5071

                     61                     62                     63
                      A                      A                      A
 Frequencies --   1420.5903              1436.9698              1481.0876
 Red. masses --      2.2029                 1.2585                 1.1926
 Frc consts  --      2.6192                 1.5311                 1.5414
 IR Inten    --    140.1347                22.4479                 0.6150

                     64                     65                     66
                      A                      A                      A
 Frequencies --   1488.4886              1512.8227              1518.0833
 Red. masses --      1.4858                 1.0883                 1.0528
 Frc consts  --      1.9396                 1.4675                 1.4295
 IR Inten    --     26.9680                 8.7989                12.8804

                     67                     68                     69
                      A                      A                      A
 Frequencies --   1522.6237              1529.0917              1530.4942
 Red. masses --      1.0967                 1.0762                 1.0631
 Frc consts  --      1.4981                 1.4826                 1.4672
 IR Inten    --      2.9036                 2.6671                 2.6899

                     70                     71                     72
                      A                      A                      A
 Frequencies --   1537.9487              1543.4108              1553.4112
 Red. masses --      1.0718                 1.0565                 1.1106
 Frc consts  --      1.4937                 1.4829                 1.5790
 IR Inten    --      0.3332                 4.2393                 3.1802

                     73                     74                     75
                      A                      A                      A
 Frequencies --   1559.0322              1769.9497              2909.1750
 Red. masses --      1.1092                 7.4933                 1.0733
 Frc consts  --      1.5885                13.8307                 5.3520
 IR Inten    --      6.1382               300.9865                52.5962

                     76                     77                     78
                      A                      A                      A
 Frequencies --   2926.3070              2936.8733              2990.7677
 Red. masses --      1.0686                 1.0669                 1.0675
 Frc consts  --      5.3912                 5.4217                 5.6259
 IR Inten    --     22.5673               145.6562                69.6338

                     79                     80                     81
                      A                      A                      A
 Frequencies --   3023.5382              3067.5790              3075.3467
 Red. masses --      1.0628                 1.0377                 1.0706
 Frc consts  --      5.7245                 5.7534                 5.9658
 IR Inten    --     60.5134                 9.1743                40.6262

                     82                     83                     84
                      A                      A                      A
 Frequencies --   3081.7736              3082.1532              3084.2663
 Red. masses --      1.0867                 1.0883                 1.0915
 Frc consts  --      6.0809                 6.0913                 6.1175
 IR Inten    --     59.3997                10.4191                16.7074

                     85                     86                     87
                      A                      A                      A
 Frequencies --   3094.1246              3094.6781              3119.3213
 Red. masses --      1.0868                 1.0866                 1.1038
 Frc consts  --      6.1302                 6.1314                 6.3279
 IR Inten    --     48.8255                59.2190                32.7121

                     88                     89                     90
                      A                      A                      A
 Frequencies --   3121.3566              3140.1739              3151.8140
 Red. masses --      1.0844                 1.1033                 1.0989
 Frc consts  --      6.2249                 6.4100                 6.4315
 IR Inten    --     28.1770                13.7885                23.1994

                     91                     92                     93
                      A                      A                      A
 Frequencies --   3163.5993              3514.3145              3574.7041
 Red. masses --      1.0997                 1.0765                 1.0751
 Frc consts  --      6.4846                 7.8330                 8.0942
 IR Inten    --      5.4299                 2.2769                13.9730

 - Thermochemistry -
 -------------------
 Temperature   298.150 Kelvin.  Pressure   1.00000 Atm.
 Atom     1 has atomic number  6 and mass  12.00000

 Molecular mass:   197.15281 amu.
 Principal axes and moments of inertia in atomic units:
                           1         2         3
     Eigenvalues --  1563.475344263.210385059.92495
           X            0.99993  -0.01073  -0.00504
           Y            0.01090   0.99929   0.03618
           Z            0.00465  -0.03623   0.99933
 This molecule is an asymmetric top.
 Rotational symmetry number  1.
 Warning -- assumption of classical behavior for rotation
           may cause significant error
 Rotational temperatures (Kelvin)      0.05540     0.02032     0.01712
 Rotational constants (GHZ):           1.15431     0.42333     0.35667
 Zero-point vibrational energy     774728.3 (Joules/Mol)
                                  185.16450 (Kcal/Mol)
 Warning -- explicit consideration of  21 degrees of freedom as
           vibrations may cause significant error
 Vibrational temperatures:     47.98    65.73    84.89   116.47   169.29
          (Kelvin)            243.46   269.91   318.63   379.01   388.52
                              402.43   461.56   514.79   520.34   526.15
                              536.82   630.99   671.38   787.94   828.22
                              890.51   948.79   983.97  1039.03  1088.66
                             1166.31  1256.48  1303.89  1324.46  1329.65
                             1369.85  1394.56  1398.07  1412.53  1483.06
                             1490.59  1507.16  1514.26  1549.86  1569.47
                             1595.57  1636.52  1666.16  1703.15  1710.44
                             1720.90  1745.79  1771.73  1781.40  1832.58
                             1843.21  1863.98  1870.04  1888.96  1911.70
                             1936.42  1975.97  1993.06  1994.82  2026.78
                             2043.91  2067.48  2130.95  2141.60  2176.61
                             2184.18  2190.72  2200.02  2202.04  2212.77
                             2220.62  2235.01  2243.10  2546.56  4185.65
                             4210.30  4225.51  4303.05  4350.20  4413.56
                             4424.74  4433.98  4434.53  4437.57  4451.76
                             4452.55  4488.01  4490.94  4518.01  4534.76
                             4551.71  5056.31  5143.20

 Zero-point correction=                           0.295078 (Hartree/Particle)
 Thermal correction to Energy=                    0.309234
 Thermal correction to Enthalpy=                  0.310178
 Thermal correction to Gibbs Free Energy=         0.253371
 Sum of electronic and zero-point Energies=           -631.702480
 Sum of electronic and thermal Energies=              -631.688325
 Sum of electronic and thermal Enthalpies=            -631.687380
 Sum of electronic and thermal Free Energies=         -631.744188

                     E (Thermal)             CV                S
                      KCal/Mol        Cal/Mol-Kelvin    Cal/Mol-Kelvin
 Total                  194.047             54.119            119.561
 Electronic               0.000              0.000              0.000
 Translational            0.889              2.981             41.741
 Rotational               0.889              2.981             31.889
 Vibrational            192.270             48.158             45.931
 Vibration     1          0.594              1.983              5.620
 Vibration     2          0.595              1.979              4.996
 Vibration     3          0.596              1.974              4.490
 Vibration     4          0.600              1.962              3.868
 Vibration     5          0.608              1.935              3.138
 Vibration     6          0.625              1.880              2.444
 Vibration     7          0.632              1.857              2.251
 Vibration     8          0.648              1.808              1.947
 Vibration     9          0.670              1.740              1.639
 Vibration    10          0.674              1.728              1.596
 Vibration    11          0.680              1.711              1.536
 Vibration    12          0.706              1.634              1.306
 Vibration    13          0.733              1.559              1.132
 Vibration    14          0.736              1.551              1.115
 Vibration    15          0.739              1.543              1.098
 Vibration    16          0.745              1.527              1.067
 Vibration    17          0.799              1.386              0.831
 Vibration    18          0.824              1.324              0.747
 Vibration    19          0.903              1.145              0.549
 Vibration    20          0.932              1.084              0.493
 Vibration    21          0.979              0.992              0.418

 Optimization completed.
    -- Stationary point found.
 Normal termination of Gaussian 16 at Thu Dec 10 10:31:42 2020.

 ----------------------------------------------------------------------
 # B3LYP/6-311++G(d,p) empiricaldispersion=gd3bj scf=xqc pop=npa geom=c
 heck
 ----------------------------------------------------------------------

 ---------------------------------------
 CID_130901496_JID_4584_Energie_neutraal
 ---------------------------------------
 Structure from the checkpoint file:  "JID_4584.chk"
 Charge =  0 Multiplicity = 1

 SCF Done:  E(RB3LYP) =  -632.181532366     A.U. after   14 cycles
 Normal termination of Gaussian 16 at Thu Dec 10 10:37:11 2020.

 ----------------------------------------------------------------------
 # B3LYP/6-311++G(d,p) empiricaldispersion=gd3bj scf=xqc pop=npa geom=c
 heck
 ----------------------------------------------------------------------

 -------------------------------------
 CID_130901496_JID_4584_Energie_kation
 -------------------------------------
 Structure from the checkpoint file:  "JID_4584.chk"
 Charge =  1 Multiplicity = 2

 SCF Done:  E(UB3LYP) =  -631.887414973     A.U. after   24 cycles
 Normal termination of Gaussian 16 at Thu Dec 10 10:50:01 2020.
 Gaussian 16:  ES64L-G16RevA.03 25-Dec-2016

 ----------------------------------------------------------------------
 # B3LYP/6-311++G(d,p) empiricaldispersion=gd3bj scf=xqc pop=npa geom=c
 heck
 ----------------------------------------------------------------------

 ------------------------------------
 CID_130901496_JID_4584_Energie_anion
 ------------------------------------
 Structure from the checkpoint file:  "JID_4584.chk"
 Charge = -1 Multiplicity = 2

                         Standard orientation:
 ---------------------------------------------------------------------
 Center     Atomic      Atomic             Coordinates (Angstroms)
 Number     Number       Type             X           Y           Z
 ---------------------------------------------------------------------
      1          6           0       -1.956565   -0.089084    1.750977
      2          6           0       -2.055284    0.060248    0.233658
      3          6           0       -2.020723   -1.317325   -0.508692
      4          7           0       -3.497935   -1.355190   -0.428711
      5          6           0       -3.541002    0.107730   -0.225032
      6          7           0       -1.284968    1.164483   -0.320494
      7          6           0        0.057782    1.470676   -0.328421
      8          8           0        0.457074    2.361925   -1.071006
      9          6           0        1.002224    0.688760    0.580315
     10          6           0        2.430755    1.292630    0.603315
     11          6           0        3.295133    0.233850   -0.086773
     12          7           0        2.633141   -1.018903    0.272571
     13          6           0        1.213346   -0.762876    0.066785
     14          6           0        3.120587   -2.181804   -0.440911
     15          1           0       -0.984255   -0.470845    2.070205
     16          1           0       -2.715426   -0.803124    2.084151
     17          1           0       -2.133568    0.873600    2.241301
     18          1           0       -1.612006   -1.205167   -1.523105
     19          1           0       -1.519723   -2.151897   -0.005657
     20          1           0       -3.972201   -1.689240   -1.264058
     21          1           0       -4.279484    0.453643    0.507650
     22          1           0       -3.655242    0.694059   -1.151288
     23          1           0       -1.763341    1.703014   -1.033491
     24          1           0        0.589702    0.671821    1.590431
     25          1           0        2.756950    1.429799    1.637942
     26          1           0        2.455516    2.253865    0.089459
     27          1           0        4.336657    0.228395    0.252458
     28          1           0        3.294836    0.394993   -1.183216
     29          1           0        0.940729   -0.825253   -1.006614
     30          1           0        0.609451   -1.503415    0.600969
     31          1           0        2.587719   -3.077449   -0.102349
     32          1           0        2.991390   -2.099171   -1.538864
     33          1           0        4.186514   -2.322602   -0.232769
 ---------------------------------------------------------------------

 SCF Done:  E(UB3LYP) =  -632.170286660     A.U. after   31 cycles

 The electronic state is 2-A.
 Alpha  occ. eigenvalues --  -18.99340 -14.23874 -14.21326 -14.19997 -10.17892
 Alpha  occ. eigenvalues --  -10.13246 -10.10375 -10.10202 -10.09872 -10.09601
 Alpha  occ. eigenvalues --  -10.09426 -10.09214 -10.07276 -10.07128  -0.94542
 Alpha  occ. eigenvalues --   -0.85373  -0.84616  -0.80720  -0.70143  -0.66300
 Alpha  occ. eigenvalues --   -0.64208  -0.59445  -0.58537  -0.57523  -0.52608
 Alpha  occ. eigenvalues --   -0.49044  -0.48579  -0.45063  -0.43182  -0.41636
 Alpha  occ. eigenvalues --   -0.39929  -0.37798  -0.36630  -0.35954  -0.34690
 Alpha  occ. eigenvalues --   -0.34223  -0.32712  -0.32317  -0.31470  -0.30815
 Alpha  occ. eigenvalues --   -0.30110  -0.28811  -0.27720  -0.27139  -0.26839
 Alpha  occ. eigenvalues --   -0.25465  -0.25036  -0.24748  -0.23534  -0.22797
 Alpha  occ. eigenvalues --   -0.16715  -0.15830  -0.13800  -0.13002   0.04227
 Alpha virt. eigenvalues --    0.06156   0.06886   0.07751   0.08235   0.08947
 Alpha virt. eigenvalues --    0.09345   0.09814   0.10144   0.10471   0.10896
 Alpha virt. eigenvalues --    0.11153   0.11895   0.12367   0.12622   0.13610

  Beta  occ. eigenvalues --  -18.99332 -14.23865 -14.21319 -14.19963 -10.17890
  Beta  occ. eigenvalues --  -10.13247 -10.10360 -10.10166 -10.09862 -10.09574
  Beta  occ. eigenvalues --  -10.09397 -10.09208 -10.07272 -10.07100  -0.94529
  Beta  occ. eigenvalues --   -0.85346  -0.84602  -0.80693  -0.70124  -0.66259
  Beta  occ. eigenvalues --   -0.64185  -0.59400  -0.58464  -0.57461  -0.52573
  Beta  occ. eigenvalues --   -0.48994  -0.48534  -0.45023  -0.43089  -0.41611
  Beta  occ. eigenvalues --   -0.39886  -0.37767  -0.36605  -0.35927  -0.34665
  Beta  occ. eigenvalues --   -0.34192  -0.32676  -0.32292  -0.31423  -0.30783
  Beta  occ. eigenvalues --   -0.30080  -0.28784  -0.27683  -0.27109  -0.26809
  Beta  occ. eigenvalues --   -0.25445  -0.25019  -0.24713  -0.23510  -0.22760
  Beta  occ. eigenvalues --   -0.16699  -0.15810  -0.13751  -0.12964
  Beta virt. eigenvalues --    0.06339   0.07106   0.07576   0.08337   0.08786
  Beta virt. eigenvalues --    0.09352   0.09618   0.10239   0.10444   0.10691
  Beta virt. eigenvalues --    0.11195   0.11405   0.12035   0.12581   0.12894

 Mulliken charges and spin densities:
               1          2
     1  C    0.363945  -1.010283
     2  C   -1.063673   1.285991
     3  C    1.100850  -1.528523
     4  N   -0.538496   0.385439
     5  C    1.329969  -1.728038
     6  N   -0.223154   0.095228
     7  C   -0.195591  -0.108366
     8  O   -0.319418   0.006885
     9  C    0.758162  -0.230779
    10  C   -0.539065  -0.010791
    11  C    0.125475  -0.407358
    12  N    0.107151   0.054494
    13  C   -1.259693   0.496356
    14  C    0.533496  -0.791638
    15  H   -0.293189   0.445281
    16  H   -0.002091   0.179448
    17  H   -0.046496   0.215583
    18  H   -0.525568   0.711145
    19  H   -0.203517   0.384076
    20  H   -0.203310   0.451519
    21  H   -0.140046   0.327912
    22  H   -0.673722   0.792787
    23  H    0.307622   0.005520
    24  H    0.174330   0.002132
    25  H    0.020455   0.109769
    26  H    0.166831   0.034572
    27  H    0.015622   0.153232
    28  H    0.101900   0.024175
    29  H    0.340081  -0.165342
    30  H    0.455549  -0.229266
    31  H   -0.358277   0.486056
    32  H   -0.126098   0.233745
    33  H   -0.190036   0.329040
 Sum of Mulliken charges =  -1.00000   1.00000

 Dipole moment (field-independent basis, Debye):
    X=              4.0687    Y=              2.8773    Z=              3.0539  Tot=              5.8445
 Quadrupole moment (field-independent basis, Debye-Ang):
   XX=           -161.7590   YY=           -135.2594   ZZ=           -125.9507
   XY=             -0.5049   XZ=             -8.2824   YZ=              1.8770

 Summary of Natural Population Analysis:

                                       Natural Population
                Natural  -----------------------------------------------
    Atom  No    Charge         Core      Valence    Rydberg      Total
 -----------------------------------------------------------------------
      C    1   -0.28879      0.99961     2.28303    0.00615     3.28879
      C    2    0.04832      0.99954     1.93668    0.01546     2.95168
      C    3   -0.08353      0.99959     2.07207    0.01186     3.08353
      N    4   -0.34433      0.99976     2.83142    0.01315     3.84433
      C    5   -0.07419      0.99961     2.06280    0.01179     3.07419
      N    6   -0.32445      0.99963     2.81357    0.01124     3.82445
      C    7    0.35508      0.99965     1.62313    0.02214     2.64492
      O    8   -0.32649      0.99988     3.32101    0.00561     4.32649
      C    9   -0.15579      0.99955     2.14671    0.00952     3.15579
      C   10   -0.19147      0.99963     2.18375    0.00810     3.19147
      C   11   -0.08223      0.99963     2.07377    0.00884     3.08223
      N   12   -0.27772      0.99972     2.76559    0.01241     3.77772
      C   13   -0.08368      0.99961     2.07110    0.01297     3.08368
      C   14   -0.17592      0.99965     2.16766    0.00861     3.17592
      H   15    0.10013      0.00000     0.39862    0.00124     0.39987
      H   16    0.11002      0.00000     0.38865    0.00132     0.38998
      H   17    0.10206      0.00000     0.39691    0.00103     0.39794
      H   18    0.09222      0.00000     0.40509    0.00269     0.40778
      H   19    0.09175      0.00000     0.40639    0.00186     0.40825
      H   20    0.18000      0.00000     0.31461    0.00539     0.32000
      H   21    0.09045      0.00000     0.40804    0.00151     0.40955
      H   22    0.08715      0.00000     0.40942    0.00343     0.41285
      H   23    0.19558      0.00000     0.30154    0.00288     0.30442
      H   24    0.11120      0.00000     0.38689    0.00191     0.38880
      H   25    0.09731      0.00000     0.40155    0.00114     0.40269
      H   26    0.11481      0.00000     0.38397    0.00122     0.38519
      H   27    0.09451      0.00000     0.40416    0.00133     0.40549
      H   28    0.08055      0.00000     0.41790    0.00155     0.41945
      H   29    0.08331      0.00000     0.41448    0.00221     0.41669
      H   30    0.10048      0.00000     0.39708    0.00244     0.39952
      H   31    0.09816      0.00000     0.40050    0.00134     0.40184
      H   32    0.08091      0.00000     0.41773    0.00136     0.41909
      H   33    0.09459      0.00000     0.40425    0.00116     0.40541
 =======================================================================
   * Total *    0.00000     13.99505    39.81007    0.19488    54.00000

 Normal termination of Gaussian 16 at Thu Dec 10 11:06:25 2020.
