 Gaussian 16, Revision A.03,

 -----------------------------------------------------------
 # opt freq B3LYP/6-31G(d) empiricaldispersion=gd3bj scf=xqc
 -----------------------------------------------------------

 -------------------------------
 CID_150358352_JID_4352_neutraal
 -------------------------------
 Symbolic Z-matrix:
 Charge =  0 Multiplicity = 1

 SCF Done:  E(RB3LYP) =  -640.810160287     A.U. after   16 cycles
 SCF Done:  E(RB3LYP) =  -640.820207636     A.U. after   13 cycles
 SCF Done:  E(RB3LYP) =  -640.821002915     A.U. after   12 cycles
 SCF Done:  E(RB3LYP) =  -640.821061093     A.U. after   11 cycles
 SCF Done:  E(RB3LYP) =  -640.821069869     A.U. after    9 cycles
 Optimization completed.
    -- Stationary point found.
 Normal termination of Gaussian 16 at Mon Dec 14 16:26:06 2020.

 --------------------------------------------------------------------
 #N Geom=AllCheck Guess=TCheck SCRF=Check GenChk RB3LYP/6-31G(d) Freq
 --------------------------------------------------------------------

 Structure from the checkpoint file:  "JID_4352.chk"
 -------------------------------
 CID_150358352_JID_4352_neutraal
 -------------------------------
 Charge =  0 Multiplicity = 1

 SCF Done:  E(RB3LYP) =  -640.821069869     A.U. after    2 cycles

  Exact polarizability: 184.762   2.685 137.196   0.000  -0.001  41.454
 Approx polarizability: 297.207  27.442 272.878  -0.002  -0.002  65.360

 ******    1 imaginary frequencies (negative Signs) ******

                      1                      2                      3
                      A                      A                      A
 Frequencies --   -314.1236                47.9090                71.9928
 Red. masses --      1.1209                 8.9237                10.0422
 Frc consts  --      0.0652                 0.0121                 0.0307
 IR Inten    --    189.0278                 0.0001                 2.6911

                      4                      5                      6
                      A                      A                      A
 Frequencies --    111.9863               156.1655               168.2012
 Red. masses --      9.4092                 5.5788                 7.0353
 Frc consts  --      0.0695                 0.0802                 0.1173
 IR Inten    --      9.8319                 2.7935                 4.0610

                      7                      8                      9
                      A                      A                      A
 Frequencies --    226.1953               290.0641               337.8621
 Red. masses --      4.7348                 5.0979                 4.3464
 Frc consts  --      0.1427                 0.2527                 0.2923
 IR Inten    --      8.4632                 0.6606                 1.1513

                     10                     11                     12
                      A                      A                      A
 Frequencies --    376.6946               416.9636               456.1956
 Red. masses --      9.3508                 6.1679                 9.4191
 Frc consts  --      0.7818                 0.6318                 1.1549
 IR Inten    --      3.4177                15.9418                 2.4259

                     13                     14                     15
                      A                      A                      A
 Frequencies --    491.0623               492.3072               564.9971
 Red. masses --      9.0890                 1.2053                 3.4218
 Frc consts  --      1.2913                 0.1721                 0.6436
 IR Inten    --      5.7797                45.7161                21.9975

                     16                     17                     18
                      A                      A                      A
 Frequencies --    576.5770               583.3810               626.1574
 Red. masses --      3.9755                 2.1814                 4.6833
 Frc consts  --      0.7787                 0.4374                 1.0818
 IR Inten    --      7.9392                54.8201                 6.7255

                     19                     20                     21
                      A                      A                      A
 Frequencies --    639.3467               666.6388               682.5022
 Red. masses --      5.6382                 2.0705                 6.0419
 Frc consts  --      1.3579                 0.5421                 1.6582
 IR Inten    --     13.2478                11.5786                 0.7843

                     22                     23                     24
                      A                      A                      A
 Frequencies --    716.1965               747.9045               782.6125
 Red. masses --      5.3145                 8.2292                 1.8986
 Frc consts  --      1.6061                 2.7121                 0.6851
 IR Inten    --     41.5851                18.7710                30.9877

                     25                     26                     27
                      A                      A                      A
 Frequencies --    834.2395               882.0994               940.5414
 Red. masses --      2.6201                 5.8702                 1.3831
 Frc consts  --      1.0744                 2.6911                 0.7209
 IR Inten    --     12.1904                 6.8687                 0.1454

                     28                     29                     30
                      A                      A                      A
 Frequencies --    996.4248               997.9273              1076.6920
 Red. masses --      6.2782                 1.2958                 2.0289
 Frc consts  --      3.6726                 0.7603                 1.3858
 IR Inten    --     28.6100                 0.5355                11.6683

                     31                     32                     33
                      A                      A                      A
 Frequencies --   1077.5839              1134.7166              1195.6679
 Red. masses --      2.0350                 4.3038                 1.3111
 Frc consts  --      1.3923                 3.2649                 1.1043
 IR Inten    --      7.3800                23.1913                 3.6102

                     34                     35                     36
                      A                      A                      A
 Frequencies --   1211.0102              1277.5529              1280.7640
 Red. masses --      4.4835                 2.7843                 2.1109
 Frc consts  --      3.8741                 2.6774                 2.0401
 IR Inten    --     53.5111                 5.5189                 5.3970

                     37                     38                     39
                      A                      A                      A
 Frequencies --   1353.6091              1353.7361              1414.8272
 Red. masses --      3.4380                 3.7380                 4.1354
 Frc consts  --      3.7114                 4.0361                 4.8772
 IR Inten    --     23.2125               220.5730                 4.2048

                     40                     41                     42
                      A                      A                      A
 Frequencies --   1454.7601              1462.0438              1538.1831
 Red. masses --      3.5696                 3.7077                 2.5364
 Frc consts  --      4.4510                 4.6696                 3.5358
 IR Inten    --    226.6398                 7.8623                26.8341

                     43                     44                     45
                      A                      A                      A
 Frequencies --   1579.0664              1606.0392              1650.0247
 Red. masses --      3.7066                 6.5136                 1.3664
 Frc consts  --      5.4453                 9.8989                 2.1918
 IR Inten    --     15.6313                13.4827               198.2569

                     46                     47                     48
                      A                      A                      A
 Frequencies --   1672.5176              1772.7165              2350.7501
 Red. masses --      5.9654                 7.8040                12.6777
 Frc consts  --      9.8317                14.4493                41.2766
 IR Inten    --     22.8027               226.3759                30.7952

                     49                     50                     51
                      A                      A                      A
 Frequencies --   3206.8719              3222.7805              3248.7120
 Red. masses --      1.0884                 1.0931                 1.0940
 Frc consts  --      6.5948                 6.6894                 6.8029
 IR Inten    --      7.8584                 5.7350                 2.4594

                     52                     53                     54
                      A                      A                      A
 Frequencies --   3603.3654              3643.5803              3727.7917
 Red. masses --      1.0459                 1.0805                 1.1046
 Frc consts  --      8.0013                 8.4517                 9.0436
 IR Inten    --     62.9796                94.6568                37.0599

 - Thermochemistry -
 -------------------
 Temperature   298.150 Kelvin.  Pressure   1.00000 Atm.
 Atom     1 has atomic number  6 and mass  12.00000

 Molecular mass:   186.05416 amu.
 Principal axes and moments of inertia in atomic units:
                           1         2         3
     Eigenvalues --  1162.915113824.068014986.98310
           X            0.99956  -0.02961   0.00000
           Y            0.02961   0.99956  -0.00000
           Z           -0.00000   0.00000   1.00000
 This molecule is an asymmetric top.
 Rotational symmetry number  1.
 Warning -- assumption of classical behavior for rotation
           may cause significant error
 Rotational temperatures (Kelvin)      0.07448     0.02265     0.01737
 Rotational constants (GHZ):           1.55191     0.47194     0.36189
    1 imaginary frequencies ignored.
 Zero-point vibrational energy     376802.8 (Joules/Mol)
                                   90.05803 (Kcal/Mol)
 Warning -- explicit consideration of  16 degrees of freedom as
           vibrations may cause significant error
 Vibrational temperatures:     68.93   103.58   161.12   224.69   242.00
          (Kelvin)            325.44   417.34   486.11   541.98   599.92
                              656.36   706.53   708.32   812.90   829.57
                              839.36   900.90   919.88   959.14   981.97
                             1030.45  1076.07  1126.00  1200.28  1269.14
                             1353.23  1433.63  1435.79  1549.12  1550.40
                             1632.60  1720.30  1742.37  1838.11  1842.73
                             1947.54  1947.72  2035.62  2093.08  2103.55
                             2213.10  2271.92  2310.73  2374.02  2406.38
                             2550.54  3382.21  4613.97  4636.86  4674.17
                             5184.44  5242.30  5363.46

 Zero-point correction=                           0.143517 (Hartree/Particle)
 Thermal correction to Energy=                    0.154384
 Thermal correction to Enthalpy=                  0.155328
 Thermal correction to Gibbs Free Energy=         0.105990
 Sum of electronic and zero-point Energies=           -640.677553
 Sum of electronic and thermal Energies=              -640.666686
 Sum of electronic and thermal Enthalpies=            -640.665741
 Sum of electronic and thermal Free Energies=         -640.715080

                     E (Thermal)             CV                S
                      KCal/Mol        Cal/Mol-Kelvin    Cal/Mol-Kelvin
 Total                   96.878             41.427            103.841
 Electronic               0.000              0.000              0.000
 Translational            0.889              2.981             41.569
 Rotational               0.889              2.981             31.473
 Vibrational             95.100             35.466             30.800
 Vibration     1          0.595              1.978              4.902
 Vibration     2          0.598              1.967              4.098
 Vibration     3          0.607              1.940              3.234
 Vibration     4          0.620              1.896              2.596
 Vibration     5          0.625              1.882              2.455
 Vibration     6          0.650              1.801              1.909
 Vibration     7          0.686              1.692              1.474
 Vibration     8          0.718              1.600              1.222
 Vibration     9          0.747              1.520              1.052
 Vibration    10          0.780              1.433              0.902
 Vibration    11          0.814              1.347              0.777
 Vibration    12          0.847              1.270              0.681
 Vibration    13          0.848              1.267              0.678
 Vibration    14          0.921              1.107              0.514
 Vibration    15          0.933              1.082              0.492
 Vibration    16          0.940              1.067              0.479

 Optimization completed.
    -- Stationary point found.
 Normal termination of Gaussian 16 at Mon Dec 14 16:30:59 2020.

 ----------------------------------------------------------------------
 # B3LYP/6-311++G(d,p) empiricaldispersion=gd3bj scf=xqc pop=npa geom=c
 heck
 ----------------------------------------------------------------------

 ---------------------------------------
 CID_150358352_JID_4352_Energie_neutraal
 ---------------------------------------
 Structure from the checkpoint file:  "JID_4352.chk"
 Charge =  0 Multiplicity = 1

 SCF Done:  E(RB3LYP) =  -641.000534029     A.U. after   16 cycles
 Normal termination of Gaussian 16 at Mon Dec 14 16:33:01 2020.

 ----------------------------------------------------------------------
 # B3LYP/6-311++G(d,p) empiricaldispersion=gd3bj scf=xqc pop=npa geom=c
 heck
 ----------------------------------------------------------------------

 -------------------------------------
 CID_150358352_JID_4352_Energie_kation
 -------------------------------------
 Structure from the checkpoint file:  "JID_4352.chk"
 Charge =  1 Multiplicity = 2

 SCF Done:  E(UB3LYP) =  -640.689010954     A.U. after   24 cycles
 Normal termination of Gaussian 16 at Mon Dec 14 16:37:16 2020.
 Gaussian 16:  ES64L-G16RevA.03 25-Dec-2016

 ----------------------------------------------------------------------
 # B3LYP/6-311++G(d,p) empiricaldispersion=gd3bj scf=xqc pop=npa geom=c
 heck
 ----------------------------------------------------------------------

 ------------------------------------
 CID_150358352_JID_4352_Energie_anion
 ------------------------------------
 Structure from the checkpoint file:  "JID_4352.chk"
 Charge = -1 Multiplicity = 2

                         Standard orientation:
 ---------------------------------------------------------------------
 Center     Atomic      Atomic             Coordinates (Angstroms)
 Number     Number       Type             X           Y           Z
 ---------------------------------------------------------------------
      1          6           0       -1.205529    2.344974    0.000098
      2          6           0        0.090389    1.875241    0.000056
      3          6           0        0.283526    0.474996   -0.000006
      4          6           0        1.410856   -0.365704   -0.000051
      5          7           0        0.898326   -1.629706   -0.000102
      6          7           0       -0.439753   -1.712010   -0.000101
      7          6           0       -0.832882   -0.421920   -0.000027
      8          6           0       -2.164156    0.088183    0.000019
      9          6           0       -2.320914    1.465306    0.000081
     10          6           0       -3.292123   -0.787774    0.000003
     11          7           0       -4.220533   -1.488556   -0.000008
     12          6           0        2.833004    0.028140   -0.000049
     13          8           0        3.147726    1.213265   -0.000307
     14          7           0        3.770646   -0.969281    0.000259
     15          1           0       -1.390858    3.414376    0.000141
     16          1           0        0.948469    2.536347    0.000061
     17          1           0        1.405978   -2.503283   -0.000245
     18          1           0       -3.324523    1.877366    0.000114
     19          1           0        3.564906   -1.955489    0.000910
     20          1           0        4.740401   -0.687219    0.000389
 ---------------------------------------------------------------------

 SCF Done:  E(UB3LYP) =  -641.039769382     A.U. after   23 cycles

 The electronic state is 2-A.
 Alpha  occ. eigenvalues --  -18.95832 -14.24984 -14.22600 -14.18811 -14.16307
 Alpha  occ. eigenvalues --  -10.14944 -10.06831 -10.06619 -10.06509 -10.05467
 Alpha  occ. eigenvalues --  -10.04305 -10.04264 -10.03476 -10.02923  -0.92158
 Alpha  occ. eigenvalues --   -0.90942  -0.79575  -0.76458  -0.72432  -0.68587
 Alpha  occ. eigenvalues --   -0.64468  -0.61850  -0.53850  -0.51745  -0.47523
 Alpha  occ. eigenvalues --   -0.46773  -0.45262  -0.40186  -0.38391  -0.37534
 Alpha  occ. eigenvalues --   -0.33039  -0.32608  -0.31536  -0.29651  -0.28785
 Alpha  occ. eigenvalues --   -0.28455  -0.24708  -0.24439  -0.23904  -0.22388
 Alpha  occ. eigenvalues --   -0.20367  -0.19094  -0.16638  -0.16366  -0.15093
 Alpha  occ. eigenvalues --   -0.13844  -0.12577  -0.09028   0.02079
 Alpha virt. eigenvalues --    0.06367   0.09539   0.09651   0.09872   0.11781
 Alpha virt. eigenvalues --    0.12635   0.13946   0.14620   0.15051   0.15483
 Alpha virt. eigenvalues --    0.15843   0.16726   0.17096   0.17168   0.18639

  Beta  occ. eigenvalues --  -18.95647 -14.24487 -14.22575 -14.18520 -14.16158
  Beta  occ. eigenvalues --  -10.14816 -10.06656 -10.06643 -10.06581 -10.05235
  Beta  occ. eigenvalues --  -10.04344 -10.04188 -10.03452 -10.02653  -0.91628
  Beta  occ. eigenvalues --   -0.90479  -0.79434  -0.76220  -0.72080  -0.68035
  Beta  occ. eigenvalues --   -0.64066  -0.61382  -0.53264  -0.51371  -0.47301
  Beta  occ. eigenvalues --   -0.46629  -0.45119  -0.39965  -0.38183  -0.37242
  Beta  occ. eigenvalues --   -0.32434  -0.31688  -0.31364  -0.29407  -0.28306
  Beta  occ. eigenvalues --   -0.27851  -0.24265  -0.23745  -0.23538  -0.22162
  Beta  occ. eigenvalues --   -0.19456  -0.19009  -0.16061  -0.16000  -0.13849
  Beta  occ. eigenvalues --   -0.13612  -0.11418  -0.07205
  Beta virt. eigenvalues --    0.06379   0.07664   0.09547   0.09623   0.11464
  Beta virt. eigenvalues --    0.11752   0.12629   0.13945   0.15053   0.15218
  Beta virt. eigenvalues --    0.15664   0.15843   0.16771   0.17116   0.17289

 Mulliken charges and spin densities:
               1          2
     1  C    0.054026   0.038825
     2  C   -1.637725   0.188235
     3  C    1.761983  -0.047498
     4  C    0.492697   0.156033
     5  N   -0.149494   0.175310
     6  N   -0.159150   0.152079
     7  C   -0.335736  -0.087384
     8  C    1.223082   0.146047
     9  C   -1.328786   0.107010
    10  C   -1.121663  -0.033865
    11  N   -0.307440   0.077402
    12  C    0.203586   0.084554
    13  O   -0.425629   0.069455
    14  N   -0.441118   0.015057
    15  H    0.127239  -0.002510
    16  H    0.161910  -0.018053
    17  H    0.256842  -0.012153
    18  H    0.112040  -0.006562
    19  H    0.202285  -0.000907
    20  H    0.311052  -0.001073
 Sum of Mulliken charges =  -1.00000   1.00000

 Dipole moment (field-independent basis, Debye):
    X=              6.5686    Y=             -0.8572    Z=              0.0015  Tot=              6.6243
 Quadrupole moment (field-independent basis, Debye-Ang):
   XX=           -126.4163   YY=            -94.2341   ZZ=            -88.2565
   XY=            -29.1185   XZ=              0.0061   YZ=             -0.0011

 Summary of Natural Population Analysis:

                                       Natural Population
                Natural  -----------------------------------------------
    Atom  No    Charge         Core      Valence    Rydberg      Total
 -----------------------------------------------------------------------
      C    1   -0.11830      0.99958     2.10942    0.00929     3.11830
      C    2   -0.03342      0.99954     2.02473    0.00915     3.03342
      C    3   -0.06373      0.99947     2.05561    0.00865     3.06373
      C    4    0.04827      0.99946     1.94057    0.01169     2.95173
      N    5   -0.07981      0.99967     2.56923    0.01091     3.57981
      N    6   -0.11953      0.99971     2.60501    0.01480     3.61953
      C    7    0.04477      0.99955     1.93714    0.01854     2.95523
      C    8   -0.01560      0.99938     2.00363    0.01259     3.01560
      C    9   -0.07448      0.99961     2.06047    0.01440     3.07448
      C   10    0.14539      0.99971     1.83559    0.01932     2.85461
      N   11   -0.18564      0.99979     2.67497    0.01088     3.68564
      C   12    0.33316      0.99966     1.64634    0.02084     2.66684
      O   13   -0.30989      0.99988     3.30301    0.00700     4.30989
      N   14   -0.41169      0.99972     2.90496    0.00701     3.91169
      H   15    0.09137      0.00000     0.40761    0.00102     0.40863
      H   16    0.10659      0.00000     0.39235    0.00107     0.39341
      H   17    0.18112      0.00000     0.31711    0.00177     0.31888
      H   18    0.09399      0.00000     0.40479    0.00121     0.40601
      H   19    0.18373      0.00000     0.31485    0.00142     0.31627
      H   20    0.18874      0.00000     0.30732    0.00394     0.31126
 =======================================================================
   * Total *    0.00504     13.99472    33.81472    0.18552    47.99496

 Normal termination of Gaussian 16 at Mon Dec 14 16:41:26 2020.
