 Gaussian 16, Revision A.03,

 -----------------------------------------------------------
 # opt freq B3LYP/6-31G(d) empiricaldispersion=gd3bj scf=xqc
 -----------------------------------------------------------

 -------------------------------
 CID_115191629_JID_1115_neutraal
 -------------------------------
 Symbolic Z-matrix:
 Charge =  0 Multiplicity = 1

 SCF Done:  E(RB3LYP) =  -535.181455504     A.U. after   15 cycles
 SCF Done:  E(RB3LYP) =  -535.187453067     A.U. after   12 cycles
 SCF Done:  E(RB3LYP) =  -535.187594781     A.U. after   12 cycles
 SCF Done:  E(RB3LYP) =  -535.188843262     A.U. after   12 cycles
 SCF Done:  E(RB3LYP) =  -535.188948655     A.U. after   10 cycles
 SCF Done:  E(RB3LYP) =  -535.188955550     A.U. after    9 cycles
 SCF Done:  E(RB3LYP) =  -535.188957512     A.U. after    9 cycles
 SCF Done:  E(RB3LYP) =  -535.188958643     A.U. after    9 cycles
 SCF Done:  E(RB3LYP) =  -535.188958438     A.U. after    9 cycles
 SCF Done:  E(RB3LYP) =  -535.188959214     A.U. after    8 cycles
 Optimization completed.
    -- Stationary point found.
 Normal termination of Gaussian 16 at Sun Dec 13 15:58:55 2020.

 --------------------------------------------------------------------
 #N Geom=AllCheck Guess=TCheck SCRF=Check GenChk RB3LYP/6-31G(d) Freq
 --------------------------------------------------------------------

 Structure from the checkpoint file:  "JID_1115.chk"
 -------------------------------
 CID_115191629_JID_1115_neutraal
 -------------------------------
 Charge =  0 Multiplicity = 1

 SCF Done:  E(RB3LYP) =  -535.188959214     A.U. after    1 cycles

  Exact polarizability: 109.534   4.306  96.358   0.001   0.000  66.988
 Approx polarizability: 136.346   8.207 162.729   0.001  -0.000  95.412

 ******    1 imaginary frequencies (negative Signs) ******

                      1                      2                      3
                      A                      A                      A
 Frequencies --    -84.6920                39.2008                67.6972
 Red. masses --      1.7914                 4.8458                 2.7149
 Frc consts  --      0.0076                 0.0044                 0.0073
 IR Inten    --      0.3767                 1.1822                 1.5094

                      4                      5                      6
                      A                      A                      A
 Frequencies --    117.5033               191.2662               211.7345
 Red. masses --      1.9884                 1.3629                 3.7621
 Frc consts  --      0.0162                 0.0294                 0.0994
 IR Inten    --      0.1320                 0.8664                 1.1075

                      7                      8                      9
                      A                      A                      A
 Frequencies --    253.0387               259.0153               265.2040
 Red. masses --      1.0799                 1.8701                 4.6567
 Frc consts  --      0.0407                 0.0739                 0.1930
 IR Inten    --      0.0175                 7.0609                11.3364

                     10                     11                     12
                      A                      A                      A
 Frequencies --    312.3951               325.9225               380.5856
 Red. masses --      1.1883                 2.8749                 2.2031
 Frc consts  --      0.0683                 0.1799                 0.1880
 IR Inten    --    192.1859                 3.4982                 4.5543

                     13                     14                     15
                      A                      A                      A
 Frequencies --    391.6837               407.4052               433.5720
 Red. masses --      3.3378                 1.0748                 2.9465
 Frc consts  --      0.3017                 0.1051                 0.3263
 IR Inten    --     18.7929                 0.1780                 1.6357

                     16                     17                     18
                      A                      A                      A
 Frequencies --    444.3341               444.5646               483.1395
 Red. masses --      3.3098                 3.6208                 2.8615
 Frc consts  --      0.3850                 0.4216                 0.3935
 IR Inten    --     16.7791                 8.6494                 0.3177

                     19                     20                     21
                      A                      A                      A
 Frequencies --    539.9001               554.0176               624.2649
 Red. masses --      5.1693                 4.0106                 3.3932
 Frc consts  --      0.8878                 0.7253                 0.7791
 IR Inten    --     52.1850                 2.5753                21.0985

                     22                     23                     24
                      A                      A                      A
 Frequencies --    681.5928               690.6418               787.4933
 Red. masses --      5.3150                 1.1247                 3.6326
 Frc consts  --      1.4548                 0.3161                 1.3273
 IR Inten    --     11.7627                 0.1357                 3.1731

                     25                     26                     27
                      A                      A                      A
 Frequencies --    810.7891               883.6182               938.2379
 Red. masses --      9.3436                 2.8881                 1.7478
 Frc consts  --      3.6189                 1.3286                 0.9065
 IR Inten    --      0.6289                 4.8433                 0.1178

                     28                     29                     30
                      A                      A                      A
 Frequencies --    945.4311               979.8407              1059.7579
 Red. masses --      1.6481                 1.1945                 1.4703
 Frc consts  --      0.8680                 0.6757                 0.9729
 IR Inten    --      2.1470                 0.4867                 8.4566

                     31                     32                     33
                      A                      A                      A
 Frequencies --   1069.8939              1104.2208              1126.0029
 Red. masses --      1.3701                 1.9953                 1.8384
 Frc consts  --      0.9240                 1.4334                 1.3733
 IR Inten    --      0.0165                 0.3067                93.2349

                     34                     35                     36
                      A                      A                      A
 Frequencies --   1149.9378              1206.6672              1248.4134
 Red. masses --      1.2722                 2.5543                 2.4417
 Frc consts  --      0.9912                 2.1912                 2.2421
 IR Inten    --      0.2009                11.3250                58.5970

                     37                     38                     39
                      A                      A                      A
 Frequencies --   1263.0683              1286.1697              1342.1701
 Red. masses --      2.7259                 3.1018                 3.1074
 Frc consts  --      2.5622                 3.0231                 3.2981
 IR Inten    --     10.5343                17.2049               140.3232

                     40                     41                     42
                      A                      A                      A
 Frequencies --   1420.0295              1423.7119              1426.1923
 Red. masses --      1.2325                 2.1151                 1.6812
 Frc consts  --      1.4643                 2.5260                 2.0148
 IR Inten    --     13.1608                47.7904                15.3474

                     43                     44                     45
                      A                      A                      A
 Frequencies --   1455.4112              1498.1159              1502.7516
 Red. masses --      1.2328                 1.1655                 1.0470
 Frc consts  --      1.5385                 1.5412                 1.3931
 IR Inten    --     11.4082                 5.8803                 2.0240

                     46                     47                     48
                      A                      A                      A
 Frequencies --   1517.2225              1517.8661              1529.0266
 Red. masses --      1.0429                 1.0597                 1.1012
 Frc consts  --      1.4144                 1.4385                 1.5169
 IR Inten    --      3.7271                18.1629                 9.7629

                     49                     50                     51
                      A                      A                      A
 Frequencies --   1536.3542              1540.8321              1553.2937
 Red. masses --      1.0458                 1.0949                 1.0488
 Frc consts  --      1.4544                 1.5316                 1.4910
 IR Inten    --      0.2973                18.2582                 1.0353

                     52                     53                     54
                      A                      A                      A
 Frequencies --   1564.3525              1583.9771              1719.9179
 Red. masses --      1.0693                 1.4406                 7.4943
 Frc consts  --      1.5418                 2.1296                13.0617
 IR Inten    --     12.1784               285.3888               241.7945

                     55                     56                     57
                      A                      A                      A
 Frequencies --   1803.4309              3055.6341              3056.1933
 Red. masses --      9.2494                 1.0373                 1.0401
 Frc consts  --     17.7240                 5.7065                 5.7239
 IR Inten    --    208.5913                10.3312                32.4437

                     58                     59                     60
                      A                      A                      A
 Frequencies --   3063.9498              3108.5063              3115.4610
 Red. masses --      1.0399                 1.0392                 1.1028
 Frc consts  --      5.7519                 5.9163                 6.3064
 IR Inten    --     24.9213                23.0229                 9.4952

                     61                     62                     63
                      A                      A                      A
 Frequencies --   3117.5539              3130.1546              3133.5417
 Red. masses --      1.1019                 1.1037                 1.1004
 Frc consts  --      6.3101                 6.3713                 6.3659
 IR Inten    --     18.4311                30.8103                53.8019

                     64                     65                     66
                      A                      A                      A
 Frequencies --   3166.7419              3188.4680              3190.3454
 Red. masses --      1.1057                 1.0970                 1.0966
 Frc consts  --      6.5328                 6.5710                 6.5765
 IR Inten    --     11.0151                 0.0065                 7.0830

                     67                     68                     69
                      A                      A                      A
 Frequencies --   3238.3239              3589.1328              3729.4899
 Red. masses --      1.0963                 1.0440                 1.1059
 Frc consts  --      6.7738                 7.9239                 9.0629
 IR Inten    --     15.4467                53.6879                81.6869

 - Thermochemistry -
 -------------------
 Temperature   298.150 Kelvin.  Pressure   1.00000 Atm.
 Atom     1 has atomic number  6 and mass  12.00000

 Molecular mass:   158.10553 amu.
 Principal axes and moments of inertia in atomic units:
                           1         2         3
     Eigenvalues --   926.427242360.737132870.47020
           X            0.99991   0.01327   0.00000
           Y           -0.01327   0.99991   0.00000
           Z           -0.00000  -0.00000   1.00000
 This molecule is an asymmetric top.
 Rotational symmetry number  1.
 Warning -- assumption of classical behavior for rotation
           may cause significant error
 Rotational temperatures (Kelvin)      0.09349     0.03669     0.03017
 Rotational constants (GHZ):           1.94807     0.76448     0.62873
    1 imaginary frequencies ignored.
 Zero-point vibrational energy     567008.2 (Joules/Mol)
                                  135.51822 (Kcal/Mol)
 Warning -- explicit consideration of  19 degrees of freedom as
           vibrations may cause significant error
 Vibrational temperatures:     56.40    97.40   169.06   275.19   304.64
          (Kelvin)            364.07   372.67   381.57   449.47   468.93
                              547.58   563.55   586.17   623.81   639.30
                              639.63   695.13   776.80   797.11   898.18
                              980.66   993.68  1133.03  1166.54  1271.33
                             1349.92  1360.26  1409.77  1524.76  1539.34
                             1588.73  1620.07  1654.50  1736.12  1796.19
                             1817.27  1850.51  1931.08  2043.11  2048.40
                             2051.97  2094.01  2155.45  2162.12  2182.94
                             2183.87  2199.93  2210.47  2216.91  2234.84
                             2250.75  2278.99  2474.58  2594.73  4396.38
                             4397.18  4408.34  4472.45  4482.45  4485.46
                             4503.59  4508.47  4556.24  4587.49  4590.20
                             4659.23  5163.96  5365.90

 Zero-point correction=                           0.215962 (Hartree/Particle)
 Thermal correction to Energy=                    0.227861
 Thermal correction to Enthalpy=                  0.228805
 Thermal correction to Gibbs Free Energy=         0.178591
 Sum of electronic and zero-point Energies=           -534.972997
 Sum of electronic and thermal Energies=              -534.961098
 Sum of electronic and thermal Enthalpies=            -534.960154
 Sum of electronic and thermal Free Energies=         -535.010369

                     E (Thermal)             CV                S
                      KCal/Mol        Cal/Mol-Kelvin    Cal/Mol-Kelvin
 Total                  142.985             45.358            105.685
 Electronic               0.000              0.000              0.000
 Translational            0.889              2.981             41.083
 Rotational               0.889              2.981             30.219
 Vibrational            141.207             39.396             34.382
 Vibration     1          0.594              1.981              5.299
 Vibration     2          0.598              1.970              4.219
 Vibration     3          0.608              1.935              3.141
 Vibration     4          0.634              1.852              2.216
 Vibration     5          0.643              1.823              2.029
 Vibration     6          0.664              1.758              1.709
 Vibration     7          0.668              1.748              1.668
 Vibration     8          0.671              1.737              1.627
 Vibration     9          0.701              1.650              1.350
 Vibration    10          0.710              1.624              1.280
 Vibration    11          0.750              1.512              1.037
 Vibration    12          0.759              1.488              0.994
 Vibration    13          0.772              1.454              0.936
 Vibration    14          0.794              1.397              0.847
 Vibration    15          0.804              1.373              0.813
 Vibration    16          0.804              1.373              0.812
 Vibration    17          0.839              1.287              0.702
 Vibration    18          0.895              1.162              0.565
 Vibration    19          0.909              1.131              0.536

 Optimization completed.
    -- Stationary point found.
 Normal termination of Gaussian 16 at Sun Dec 13 16:04:01 2020.

 ----------------------------------------------------------------------
 # B3LYP/6-311++G(d,p) empiricaldispersion=gd3bj scf=xqc pop=npa geom=c
 heck
 ----------------------------------------------------------------------

 ---------------------------------------
 CID_115191629_JID_1115_Energie_neutraal
 ---------------------------------------
 Structure from the checkpoint file:  "JID_1115.chk"
 Charge =  0 Multiplicity = 1

 SCF Done:  E(RB3LYP) =  -535.353723878     A.U. after   14 cycles
 Normal termination of Gaussian 16 at Sun Dec 13 16:06:10 2020.

 ----------------------------------------------------------------------
 # B3LYP/6-311++G(d,p) empiricaldispersion=gd3bj scf=xqc pop=npa geom=c
 heck
 ----------------------------------------------------------------------

 -------------------------------------
 CID_115191629_JID_1115_Energie_kation
 -------------------------------------
 Structure from the checkpoint file:  "JID_1115.chk"
 Charge =  1 Multiplicity = 2

 SCF Done:  E(UB3LYP) =  -535.025065511     A.U. after   30 cycles
 Normal termination of Gaussian 16 at Sun Dec 13 16:12:26 2020.
 Gaussian 16:  ES64L-G16RevA.03 25-Dec-2016

 ----------------------------------------------------------------------
 # B3LYP/6-311++G(d,p) empiricaldispersion=gd3bj scf=xqc pop=npa geom=c
 heck
 ----------------------------------------------------------------------

 ------------------------------------
 CID_115191629_JID_1115_Energie_anion
 ------------------------------------
 Structure from the checkpoint file:  "JID_1115.chk"
 Charge = -1 Multiplicity = 2

                         Standard orientation:
 ---------------------------------------------------------------------
 Center     Atomic      Atomic             Coordinates (Angstroms)
 Number     Number       Type             X           Y           Z
 ---------------------------------------------------------------------
      1          6           0        2.753109    0.982266    0.000157
      2          6           0        1.678547   -0.114871   -0.000007
      3          6           0        1.876284   -0.959040   -1.273466
      4          6           0        1.876155   -0.959298    1.273301
      5          7           0        0.280050    0.471408   -0.000014
      6          6           0        0.061986    1.929644   -0.000004
      7          6           0       -0.767733   -0.392000   -0.000011
      8          8           0       -0.655388   -1.624748    0.000050
      9          6           0       -2.227936    0.162215    0.000037
     10          8           0       -2.559449    1.341026    0.000030
     11          7           0       -3.100716   -0.870702   -0.000053
     12          1           0        3.727933    0.485825    0.000116
     13          1           0        2.711173    1.615257    0.892296
     14          1           0        2.711212    1.615483   -0.891823
     15          1           0        2.894043   -1.364212   -1.288529
     16          1           0        1.170057   -1.786883   -1.313201
     17          1           0        1.745365   -0.334633   -2.164363
     18          1           0        1.745163   -0.335069    2.164312
     19          1           0        1.169909   -1.787137    1.312804
     20          1           0        2.893905   -1.364492    1.288376
     21          1           0       -0.501799    2.241206   -0.879688
     22          1           0       -0.501792    2.241196    0.879688
     23          1           0        1.020794    2.435105   -0.000005
     24          1           0       -2.734827   -1.812811   -0.000100
     25          1           0       -4.090246   -0.677484   -0.000090
 ---------------------------------------------------------------------

 SCF Done:  E(UB3LYP) =  -535.341040263     A.U. after   33 cycles
 SCF Done:  E(UB3LYP) =  -535.341040263     a.u. after    1 cycles

 The electronic state is 2-A.
 Alpha  occ. eigenvalues --  -18.95719 -18.95124 -14.21492 -14.20415 -10.13584
 Alpha  occ. eigenvalues --  -10.12875 -10.10536 -10.06921 -10.04681 -10.03774
 Alpha  occ. eigenvalues --  -10.03387  -0.91959  -0.89495  -0.80682  -0.77705
 Alpha  occ. eigenvalues --   -0.68328  -0.59188  -0.57091  -0.55937  -0.52832
 Alpha  occ. eigenvalues --   -0.47055  -0.42762  -0.39413  -0.36968  -0.35226
 Alpha  occ. eigenvalues --   -0.34528  -0.32450  -0.31960  -0.30219  -0.29682
 Alpha  occ. eigenvalues --   -0.28497  -0.27813  -0.27730  -0.25425  -0.25343
 Alpha  occ. eigenvalues --   -0.24512  -0.23587  -0.22048  -0.21847  -0.16920
 Alpha  occ. eigenvalues --   -0.15363  -0.12152  -0.10623   0.05399
 Alpha virt. eigenvalues --    0.07202   0.08363   0.08774   0.09575   0.10234
 Alpha virt. eigenvalues --    0.11607   0.11634   0.11980   0.12832   0.13410
 Alpha virt. eigenvalues --    0.14478   0.15151   0.15637   0.16030   0.16601

  Beta  occ. eigenvalues --  -18.95508 -18.94945 -14.21405 -14.20375 -10.13418
  Beta  occ. eigenvalues --  -10.12697 -10.10538 -10.06912 -10.04640 -10.03762
  Beta  occ. eigenvalues --  -10.03349  -0.91590  -0.89154  -0.80506  -0.77524
  Beta  occ. eigenvalues --   -0.68265  -0.59101  -0.57041  -0.55808  -0.52368
  Beta  occ. eigenvalues --   -0.46901  -0.42680  -0.39289  -0.36875  -0.35054
  Beta  occ. eigenvalues --   -0.34229  -0.32239  -0.31609  -0.30140  -0.29536
  Beta  occ. eigenvalues --   -0.27967  -0.27601  -0.27547  -0.25300  -0.25223
  Beta  occ. eigenvalues --   -0.24439  -0.23266  -0.21806  -0.21573  -0.16751
  Beta  occ. eigenvalues --   -0.14637  -0.11460  -0.10381
  Beta virt. eigenvalues --    0.07952   0.08405   0.09465   0.09758   0.10271
  Beta virt. eigenvalues --    0.10767   0.11818   0.12136   0.12163   0.13211
  Beta virt. eigenvalues --    0.13688   0.14595   0.15203   0.15714   0.16217

 Mulliken charges and spin densities:
               1          2
     1  C    1.261364  -1.787664
     2  C   -2.251294   2.288133
     3  C    0.859557  -1.283252
     4  C    0.461656  -0.884062
     5  N    0.292389  -0.051208
     6  C    0.339443  -0.675361
     7  C   -0.146474  -0.019407
     8  O   -0.387863   0.058367
     9  C    0.036682   0.185612
    10  O   -0.418533   0.071476
    11  N   -0.411670   0.007834
    12  H   -0.371187   0.516845
    13  H   -0.388276   0.545474
    14  H   -0.487021   0.647632
    15  H   -0.248835   0.400385
    16  H   -0.020810   0.216691
    17  H    0.012996   0.110866
    18  H   -0.016672   0.136962
    19  H    0.199479  -0.005355
    20  H    0.060627   0.084694
    21  H    0.060302   0.123216
    22  H    0.058839   0.129720
    23  H   -0.026946   0.160881
    24  H    0.260837   0.007266
    25  H    0.271411   0.014253
 Sum of Mulliken charges =  -1.00000   1.00000

 Dipole moment (field-independent basis, Debye):
    X=             -4.9560    Y=             -2.4218    Z=              0.9872  Tot=              5.6037
 Quadrupole moment (field-independent basis, Debye-Ang):
   XX=           -120.8584   YY=           -100.0168   ZZ=            -89.9598
   XY=              1.3359   XZ=              3.1918   YZ=             -2.3054

 Summary of Natural Population Analysis:

                                       Natural Population
                Natural  -----------------------------------------------
    Atom  No    Charge         Core      Valence    Rydberg      Total
 -----------------------------------------------------------------------
      C    1   -0.29491      0.99961     2.28732    0.00797     3.29491
      C    2    0.06880      0.99958     1.91700    0.01462     2.93120
      C    3   -0.29295      0.99960     2.28616    0.00719     3.29295
      C    4   -0.29189      0.99960     2.28549    0.00679     3.29189
      N    5   -0.24113      0.99962     2.73025    0.01126     3.74113
      C    6   -0.17478      0.99962     2.16733    0.00783     3.17478
      C    7    0.33010      0.99961     1.64889    0.02140     2.66990
      O    8   -0.33586      0.99988     3.33033    0.00565     4.33586
      C    9    0.32153      0.99970     1.65536    0.02341     2.67847
      O   10   -0.31080      0.99988     3.30469    0.00624     4.31080
      N   11   -0.40319      0.99971     2.89534    0.00814     3.90319
      H   12    0.10702      0.00000     0.39125    0.00174     0.39298
      H   13    0.10193      0.00000     0.39653    0.00153     0.39807
      H   14    0.10326      0.00000     0.39522    0.00153     0.39674
      H   15    0.09717      0.00000     0.40171    0.00113     0.40283
      H   16    0.11686      0.00000     0.38205    0.00109     0.38314
      H   17    0.09816      0.00000     0.40080    0.00105     0.40184
      H   18    0.09706      0.00000     0.40201    0.00094     0.40294
      H   19    0.11634      0.00000     0.38260    0.00106     0.38366
      H   20    0.09546      0.00000     0.40374    0.00080     0.40454
      H   21    0.10037      0.00000     0.39844    0.00118     0.39963
      H   22    0.10167      0.00000     0.39713    0.00120     0.39833
      H   23    0.09700      0.00000     0.40195    0.00105     0.40300
      H   24    0.20631      0.00000     0.29170    0.00199     0.29369
      H   25    0.18646      0.00000     0.31105    0.00249     0.31354
 =======================================================================
   * Total *    0.00000     10.99641    31.86432    0.13927    43.00000

 Normal termination of Gaussian 16 at Sun Dec 13 16:19:40 2020.
