 Gaussian 16, Revision A.03,

 -----------------------------------------------------------
 # opt freq B3LYP/6-31G(d) empiricaldispersion=gd3bj scf=xqc
 -----------------------------------------------------------

 -------------------------------
 CID_123458550_JID_7447_neutraal
 -------------------------------
 Symbolic Z-matrix:
 Charge =  0 Multiplicity = 1

 SCF Done:  E(RB3LYP) =  -727.920813087     A.U. after   14 cycles
 SCF Done:  E(RB3LYP) =  -727.927663461     A.U. after   12 cycles
 SCF Done:  E(RB3LYP) =  -727.928322766     A.U. after   12 cycles
 SCF Done:  E(RB3LYP) =  -727.928467759     A.U. after   11 cycles
 SCF Done:  E(RB3LYP) =  -727.928506999     A.U. after   11 cycles
 SCF Done:  E(RB3LYP) =  -727.928526296     A.U. after   10 cycles
 SCF Done:  E(RB3LYP) =  -727.928539634     A.U. after   11 cycles
 SCF Done:  E(RB3LYP) =  -727.928542166     A.U. after    9 cycles
 SCF Done:  E(RB3LYP) =  -727.928543512     A.U. after    9 cycles
 SCF Done:  E(RB3LYP) =  -727.928544270     A.U. after    9 cycles
 Optimization completed.
    -- Stationary point found.
 Normal termination of Gaussian 16 at Sun Dec 13 16:02:27 2020.

 --------------------------------------------------------------------
 #N Geom=AllCheck Guess=TCheck SCRF=Check GenChk RB3LYP/6-31G(d) Freq
 --------------------------------------------------------------------

 Structure from the checkpoint file:  "JID_7447.chk"
 -------------------------------
 CID_123458550_JID_7447_neutraal
 -------------------------------
 Charge =  0 Multiplicity = 1

 SCF Done:  E(RB3LYP) =  -727.928544271     A.U. after    1 cycles

  Exact polarizability: 238.763  -3.003 149.281  22.749  -6.202  94.886
 Approx polarizability: 332.862  -5.433 265.128  46.432 -19.631 150.464

                      1                      2                      3
                      A                      A                      A
 Frequencies --     19.9243                32.5334                54.0216
 Red. masses --      4.2640                 4.2052                 4.5649
 Frc consts  --      0.0010                 0.0026                 0.0078
 IR Inten    --      0.3514                 0.3394                 0.4544

                      4                      5                      6
                      A                      A                      A
 Frequencies --    122.1919               144.7564               174.7977
 Red. masses --      4.0595                 3.6747                 5.5867
 Frc consts  --      0.0357                 0.0454                 0.1006
 IR Inten    --      0.9503                 0.1612                 0.0734

                      7                      8                      9
                      A                      A                      A
 Frequencies --    206.3490               272.5762               302.6213
 Red. masses --      2.9989                 2.7615                 3.5892
 Frc consts  --      0.0752                 0.1209                 0.1937
 IR Inten    --      0.2439                 0.3599                 1.2945

                     10                     11                     12
                      A                      A                      A
 Frequencies --    325.9579               363.6185               408.7683
 Red. masses --      2.8378                 2.6459                 2.7696
 Frc consts  --      0.1776                 0.2061                 0.2727
 IR Inten    --      6.7241                 3.5691                 1.6896

                     13                     14                     15
                      A                      A                      A
 Frequencies --    429.5094               442.7566               454.9785
 Red. masses --      2.9451                 3.4633                 3.8011
 Frc consts  --      0.3201                 0.4000                 0.4636
 IR Inten    --      5.5275                 2.9108                 0.9636

                     16                     17                     18
                      A                      A                      A
 Frequencies --    481.7802               504.3672               529.3673
 Red. masses --      2.9554                 2.9542                 4.8440
 Frc consts  --      0.4042                 0.4428                 0.7998
 IR Inten    --      3.0682                 3.4354                 0.4377

                     19                     20                     21
                      A                      A                      A
 Frequencies --    539.0430               562.6832               635.3804
 Red. masses --      3.8347                 4.0332                 2.2556
 Frc consts  --      0.6565                 0.7524                 0.5365
 IR Inten    --      1.5262                 1.0108                 2.2657

                     22                     23                     24
                      A                      A                      A
 Frequencies --    653.4453               716.1644               771.5475
 Red. masses --      5.6427                 4.7467                 1.5865
 Frc consts  --      1.4196                 1.4344                 0.5564
 IR Inten    --      8.8829                 3.6737                37.2631

                     25                     26                     27
                      A                      A                      A
 Frequencies --    779.2772               798.5797               802.6086
 Red. masses --      3.0286                 3.0082                 4.9240
 Frc consts  --      1.0836                 1.1303                 1.8689
 IR Inten    --      7.6116                11.3945                 6.5955

                     28                     29                     30
                      A                      A                      A
 Frequencies --    835.6170               837.7398               858.2727
 Red. masses --      2.9502                 1.7780                 2.4848
 Frc consts  --      1.2137                 0.7352                 1.0784
 IR Inten    --      0.6999                 2.6126                 4.0089

                     31                     32                     33
                      A                      A                      A
 Frequencies --    890.2378               893.3175               907.0983
 Red. masses --      1.8617                 2.2645                 1.9086
 Frc consts  --      0.8693                 1.0647                 0.9253
 IR Inten    --      7.4832                11.0772                 2.6008

                     34                     35                     36
                      A                      A                      A
 Frequencies --    925.7560               955.3041               961.9427
 Red. masses --      3.0908                 1.8988                 1.7912
 Frc consts  --      1.5607                 1.0210                 0.9766
 IR Inten    --      3.1413                 2.6575                 1.6800

                     37                     38                     39
                      A                      A                      A
 Frequencies --    970.2732               984.3772              1004.9491
 Red. masses --      3.0302                 1.4792                 1.2889
 Frc consts  --      1.6808                 0.8445                 0.7670
 IR Inten    --     18.7182                 5.4558                 0.1183

                     40                     41                     42
                      A                      A                      A
 Frequencies --   1013.3182              1044.5333              1052.5136
 Red. masses --      1.7593                 2.1788                 2.0195
 Frc consts  --      1.0644                 1.4006                 1.3181
 IR Inten    --     40.5765                 7.9974                13.9274

                     43                     44                     45
                      A                      A                      A
 Frequencies --   1067.6377              1079.2620              1128.2290
 Red. masses --      1.9816                 2.0870                 3.9546
 Frc consts  --      1.3308                 1.4323                 2.9658
 IR Inten    --     13.9687                63.4828                69.0461

                     46                     47                     48
                      A                      A                      A
 Frequencies --   1142.2338              1158.9500              1179.0229
 Red. masses --      1.6831                 1.5158                 1.3990
 Frc consts  --      1.2938                 1.1995                 1.1458
 IR Inten    --      4.7928                 1.2754                12.5797

                     49                     50                     51
                      A                      A                      A
 Frequencies --   1199.4180              1228.0700              1243.3475
 Red. masses --      1.5567                 1.4444                 1.6930
 Frc consts  --      1.3195                 1.2834                 1.5421
 IR Inten    --     18.0581                44.5394                28.1217

                     52                     53                     54
                      A                      A                      A
 Frequencies --   1254.5270              1273.5818              1296.2757
 Red. masses --      1.7359                 1.9937                 1.5305
 Frc consts  --      1.6097                 1.9053                 1.5153
 IR Inten    --      7.7025                11.2781                 0.3592

                     55                     56                     57
                      A                      A                      A
 Frequencies --   1304.2425              1322.9210              1336.6042
 Red. masses --      1.2174                 1.1766                 2.1609
 Frc consts  --      1.2201                 1.2132                 2.2745
 IR Inten    --     19.7488                 6.3956                 6.1662

                     58                     59                     60
                      A                      A                      A
 Frequencies --   1351.3878              1369.6941              1384.1661
 Red. masses --      2.2902                 1.3623                 2.0914
 Frc consts  --      2.4643                 1.5058                 2.3608
 IR Inten    --      8.5559                 6.9482                 9.0854

                     61                     62                     63
                      A                      A                      A
 Frequencies --   1393.1098              1397.6051              1404.3768
 Red. masses --      1.7225                 1.4256                 1.3575
 Frc consts  --      1.9696                 1.6406                 1.5774
 IR Inten    --      0.9501                27.5655                32.8869

                     64                     65                     66
                      A                      A                      A
 Frequencies --   1413.1534              1422.4556              1436.2320
 Red. masses --      1.4104                 4.6076                 1.3452
 Frc consts  --      1.6595                 5.4929                 1.6348
 IR Inten    --      0.7357                25.3722                 7.3901

                     67                     68                     69
                      A                      A                      A
 Frequencies --   1450.7200              1501.7518              1504.9737
 Red. masses --      2.4719                 1.5459                 1.1017
 Frc consts  --      3.0651                 2.0541                 1.4701
 IR Inten    --     64.4448                 9.0925                 0.2633

                     70                     71                     72
                      A                      A                      A
 Frequencies --   1513.7145              1517.7376              1531.8015
 Red. masses --      1.4332                 1.2801                 1.1055
 Frc consts  --      1.9349                 1.7373                 1.5283
 IR Inten    --     17.0496                10.2043                 2.6195

                     73                     74                     75
                      A                      A                      A
 Frequencies --   1541.1246              1543.3244              1612.9979
 Red. masses --      1.3421                 2.0133                 7.2849
 Frc consts  --      1.8781                 2.8253                11.1671
 IR Inten    --     13.0299                25.0537                61.5046

                     76                     77                     78
                      A                      A                      A
 Frequencies --   1640.5137              1680.4256              3000.1474
 Red. masses --      6.3891                 5.9730                 1.0714
 Frc consts  --     10.1310                 9.9375                 5.6820
 IR Inten    --    137.4242                51.1298                48.3656

                     79                     80                     81
                      A                      A                      A
 Frequencies --   3039.7801              3046.5640              3048.8858
 Red. masses --      1.0603                 1.0658                 1.0637
 Frc consts  --      5.7724                 5.8283                 5.8256
 IR Inten    --     31.1753                16.5504                17.6149

                     82                     83                     84
                      A                      A                      A
 Frequencies --   3079.2805              3083.8971              3088.8224
 Red. masses --      1.0989                 1.0871                 1.0911
 Frc consts  --      6.1390                 6.0912                 6.1336
 IR Inten    --     54.1263                 7.0610                27.6627

                     85                     86                     87
                      A                      A                      A
 Frequencies --   3092.3967              3102.5636              3103.8568
 Red. masses --      1.0698                 1.0993                 1.0954
 Frc consts  --      6.0273                 6.2343                 6.2176
 IR Inten    --     54.3438                22.8548                87.5030

                     88                     89                     90
                      A                      A                      A
 Frequencies --   3145.0105              3147.7255              3184.6392
 Red. masses --      1.0908                 1.1041                 1.0872
 Frc consts  --      6.3567                 6.4455                 6.4968
 IR Inten    --     28.5094                10.9166                 4.1183

                     91                     92                     93
                      A                      A                      A
 Frequencies --   3195.7793              3211.7486              3224.3298
 Red. masses --      1.0893                 1.0944                 1.0953
 Frc consts  --      6.5545                 6.6511                 6.7088
 IR Inten    --     11.4076                24.0214                10.0843

 - Thermochemistry -
 -------------------
 Temperature   298.150 Kelvin.  Pressure   1.00000 Atm.
 Atom     1 has atomic number  6 and mass  12.00000

 Molecular mass:   228.12626 amu.
 Principal axes and moments of inertia in atomic units:
                           1         2         3
     Eigenvalues --  1261.965618020.267158629.68656
           X            0.99998  -0.00585   0.00176
           Y            0.00583   0.99990   0.01308
           Z           -0.00183  -0.01307   0.99991
 This molecule is an asymmetric top.
 Rotational symmetry number  1.
 Warning -- assumption of classical behavior for rotation
           may cause significant error
 Rotational temperatures (Kelvin)      0.06863     0.01080     0.01004
 Rotational constants (GHZ):           1.43010     0.22502     0.20913
 Zero-point vibrational energy     737413.3 (Joules/Mol)
                                  176.24600 (Kcal/Mol)
 Warning -- explicit consideration of  20 degrees of freedom as
           vibrations may cause significant error
 Vibrational temperatures:     28.67    46.81    77.72   175.81   208.27
          (Kelvin)            251.49   296.89   392.18   435.40   468.98
                              523.17   588.13   617.97   637.03   654.61
                              693.17   725.67   761.64   775.56   809.58
                              914.17   940.16  1030.40  1110.08  1121.21
                             1148.98  1154.77  1202.27  1205.32  1234.86
                             1280.85  1285.28  1305.11  1331.96  1374.47
                             1384.02  1396.01  1416.30  1445.90  1457.94
                             1502.85  1514.33  1536.09  1552.82  1623.27
                             1643.42  1667.47  1696.35  1725.69  1766.92
                             1788.90  1804.98  1832.40  1865.05  1876.51
                             1903.39  1923.08  1944.35  1970.68  1991.51
                             2004.37  2010.84  2020.58  2033.21  2046.60
                             2066.42  2087.26  2160.69  2165.32  2177.90
                             2183.69  2203.92  2217.33  2220.50  2320.74
                             2360.33  2417.76  4316.54  4373.57  4383.33
                             4386.67  4430.40  4437.04  4444.13  4449.27
                             4463.90  4465.76  4524.97  4528.87  4581.99
                             4598.01  4620.99  4639.09

 Zero-point correction=                           0.280866 (Hartree/Particle)
 Thermal correction to Energy=                    0.294340
 Thermal correction to Enthalpy=                  0.295284
 Thermal correction to Gibbs Free Energy=         0.238895
 Sum of electronic and zero-point Energies=           -727.647678
 Sum of electronic and thermal Energies=              -727.634204
 Sum of electronic and thermal Enthalpies=            -727.633260
 Sum of electronic and thermal Free Energies=         -727.689649

                     E (Thermal)             CV                S
                      KCal/Mol        Cal/Mol-Kelvin    Cal/Mol-Kelvin
 Total                  184.701             54.424            118.681
 Electronic               0.000              0.000              0.000
 Translational            0.889              2.981             42.176
 Rotational               0.889              2.981             32.835
 Vibrational            182.924             48.462             43.670
 Vibration     1          0.593              1.986              6.642
 Vibration     2          0.594              1.983              5.669
 Vibration     3          0.596              1.976              4.664
 Vibration     4          0.610              1.931              3.065
 Vibration     5          0.616              1.908              2.740
 Vibration     6          0.627              1.873              2.383
 Vibration     7          0.641              1.831              2.076
 Vibration     8          0.676              1.724              1.580
 Vibration     9          0.694              1.669              1.402
 Vibration    10          0.710              1.624              1.280
 Vibration    11          0.737              1.547              1.107
 Vibration    12          0.773              1.451              0.931
 Vibration    13          0.791              1.406              0.860
 Vibration    14          0.802              1.377              0.818
 Vibration    15          0.813              1.350              0.781
 Vibration    16          0.838              1.290              0.705
 Vibration    17          0.860              1.240              0.647
 Vibration    18          0.884              1.185              0.589
 Vibration    19          0.894              1.164              0.567
 Vibration    20          0.918              1.112              0.519

                           ! Non-Optimized Parameters !
 Normal termination of Gaussian 16 at Sun Dec 13 16:14:01 2020.

 ----------------------------------------------------------------------
 # B3LYP/6-311++G(d,p) empiricaldispersion=gd3bj scf=xqc pop=npa geom=c
 heck
 ----------------------------------------------------------------------

 ---------------------------------------
 CID_123458550_JID_7447_Energie_neutraal
 ---------------------------------------
 Structure from the checkpoint file:  "JID_7447.chk"
 Charge =  0 Multiplicity = 1

 SCF Done:  E(RB3LYP) =  -728.116216050     A.U. after   15 cycles
 Normal termination of Gaussian 16 at Sun Dec 13 16:19:51 2020.

 ----------------------------------------------------------------------
 # B3LYP/6-311++G(d,p) empiricaldispersion=gd3bj scf=xqc pop=npa geom=c
 heck
 ----------------------------------------------------------------------

 -------------------------------------
 CID_123458550_JID_7447_Energie_kation
 -------------------------------------
 Structure from the checkpoint file:  "JID_7447.chk"
 Charge =  1 Multiplicity = 2

 SCF Done:  E(UB3LYP) =  -727.813360976     A.U. after   26 cycles
 Normal termination of Gaussian 16 at Sun Dec 13 16:34:09 2020.
 Gaussian 16:  ES64L-G16RevA.03 25-Dec-2016

 ----------------------------------------------------------------------
 # B3LYP/6-311++G(d,p) empiricaldispersion=gd3bj scf=xqc pop=npa geom=c
 heck
 ----------------------------------------------------------------------

 ------------------------------------
 CID_123458550_JID_7447_Energie_anion
 ------------------------------------
 Structure from the checkpoint file:  "JID_7447.chk"
 Charge = -1 Multiplicity = 2

                         Standard orientation:
 ---------------------------------------------------------------------
 Center     Atomic      Atomic             Coordinates (Angstroms)
 Number     Number       Type             X           Y           Z
 ---------------------------------------------------------------------
      1          6           0       -3.234005    1.390381    0.653136
      2          6           0       -4.556949    0.666914    0.371074
      3          6           0       -4.309563   -0.568228   -0.494801
      4          8           0       -3.343092   -1.444266    0.079196
      5          6           0       -2.072184   -0.843453    0.334730
      6          6           0       -2.219915    0.395381    1.230212
      7          6           0       -1.311350   -0.580975   -0.989256
      8          6           0        0.093654   -0.117562   -0.731906
      9          7           0        0.986234   -1.025385   -0.383852
     10          6           0        2.249022   -0.592158   -0.109167
     11          6           0        3.249558   -1.522774    0.267496
     12          6           0        4.525083   -1.082617    0.544197
     13          6           0        4.859958    0.292848    0.458212
     14          6           0        3.906781    1.216903    0.094457
     15          6           0        2.588331    0.789196   -0.193815
     16          6           0        1.531845    1.654552   -0.570658
     17          7           0        0.314244    1.233298   -0.833824
     18          1           0       -2.838225    1.827910   -0.272562
     19          1           0       -3.388557    2.221754    1.350902
     20          1           0       -5.009281    0.348323    1.319534
     21          1           0       -5.274968    1.329041   -0.129349
     22          1           0       -5.217210   -1.170392   -0.598644
     23          1           0       -4.000363   -0.259580   -1.506266
     24          1           0       -1.510529   -1.613397    0.873326
     25          1           0       -1.244983    0.872828    1.375075
     26          1           0       -2.567649    0.055933    2.214239
     27          1           0       -1.292642   -1.524096   -1.542512
     28          1           0       -1.819841    0.173980   -1.592293
     29          1           0        2.975861   -2.570880    0.327522
     30          1           0        5.291059   -1.796683    0.833188
     31          1           0        5.873612    0.611688    0.681573
     32          1           0        4.149494    2.274372    0.024755
     33          1           0        1.714015    2.727485   -0.651790
 ---------------------------------------------------------------------

 SCF Done:  E(UB3LYP) =  -728.134756834     A.U. after   22 cycles

 The electronic state is 2-A.
 Alpha  occ. eigenvalues --  -19.01527 -14.13999 -14.13394 -10.11876 -10.10319
 Alpha  occ. eigenvalues --  -10.07615 -10.07484 -10.06711 -10.05492 -10.05467
 Alpha  occ. eigenvalues --  -10.03640 -10.03211 -10.02868 -10.02728 -10.02339
 Alpha  occ. eigenvalues --  -10.01845 -10.01069  -0.92862  -0.81651  -0.72372
 Alpha  occ. eigenvalues --   -0.70119  -0.69801  -0.67290  -0.62358  -0.60353
 Alpha  occ. eigenvalues --   -0.57684  -0.53865  -0.52364  -0.49838  -0.47432
 Alpha  occ. eigenvalues --   -0.45427  -0.43446  -0.40089  -0.38384  -0.37020
 Alpha  occ. eigenvalues --   -0.36356  -0.35400  -0.34451  -0.32954  -0.31914
 Alpha  occ. eigenvalues --   -0.30541  -0.29521  -0.28996  -0.28092  -0.27731
 Alpha  occ. eigenvalues --   -0.26833  -0.25839  -0.24698  -0.24116  -0.22845
 Alpha  occ. eigenvalues --   -0.22508  -0.22019  -0.20636  -0.20368  -0.18682
 Alpha  occ. eigenvalues --   -0.16992  -0.15226  -0.13971  -0.11494  -0.09291
 Alpha  occ. eigenvalues --   -0.08729   0.04239
 Alpha virt. eigenvalues --    0.06856   0.08637   0.09134   0.09207   0.10206
 Alpha virt. eigenvalues --    0.10480   0.11608   0.11735   0.12073   0.12262
 Alpha virt. eigenvalues --    0.12411   0.12977   0.13799   0.13999   0.14255

  Beta  occ. eigenvalues --  -19.01525 -14.13848 -14.13013 -10.11876 -10.10306
  Beta  occ. eigenvalues --  -10.07615 -10.07419 -10.06711 -10.05511 -10.05465
  Beta  occ. eigenvalues --  -10.03649 -10.02988 -10.02744 -10.02693 -10.02171
  Beta  occ. eigenvalues --  -10.01525 -10.00868  -0.92858  -0.81140  -0.71797
  Beta  occ. eigenvalues --   -0.70001  -0.69502  -0.67208  -0.62112  -0.59933
  Beta  occ. eigenvalues --   -0.57471  -0.53861  -0.52266  -0.49081  -0.47326
  Beta  occ. eigenvalues --   -0.45021  -0.43366  -0.40054  -0.38205  -0.36901
  Beta  occ. eigenvalues --   -0.36096  -0.35356  -0.34259  -0.32907  -0.31832
  Beta  occ. eigenvalues --   -0.30422  -0.29416  -0.28808  -0.28071  -0.27446
  Beta  occ. eigenvalues --   -0.26171  -0.25673  -0.24517  -0.23952  -0.22765
  Beta  occ. eigenvalues --   -0.22426  -0.21890  -0.20457  -0.19349  -0.18501
  Beta  occ. eigenvalues --   -0.15301  -0.14912  -0.13626  -0.10489  -0.08429
  Beta  occ. eigenvalues --   -0.07538
  Beta virt. eigenvalues --    0.06850   0.08623   0.09109   0.09194   0.10186
  Beta virt. eigenvalues --    0.10440   0.10540   0.11594   0.11719   0.12162
  Beta virt. eigenvalues --    0.12307   0.12535   0.12958   0.13949   0.14162

 Mulliken charges and spin densities:
               1          2
     1  C   -0.356482  -0.008302
     2  C   -0.333162   0.000616
     3  C   -0.294971   0.000988
     4  O   -0.080127   0.000349
     5  C   -0.262722   0.003157
     6  C   -0.133964   0.008501
     7  C   -0.286374   0.003403
     8  C   -0.537479   0.010898
     9  N    0.067357   0.187104
    10  C   -0.785212  -0.024552
    11  C   -0.075974   0.112560
    12  C   -0.461076   0.157002
    13  C   -0.091173   0.004075
    14  C   -0.455116   0.239281
    15  C    1.278228  -0.087803
    16  C   -0.407407   0.404171
    17  N   -0.003305   0.052076
    18  H    0.181281   0.000474
    19  H    0.132597   0.000210
    20  H    0.133771   0.000211
    21  H    0.116941   0.000013
    22  H    0.155249   0.000513
    23  H    0.126611  -0.000559
    24  H    0.231384  -0.002422
    25  H    0.180578   0.000064
    26  H    0.144063   0.000461
    27  H    0.192175   0.011843
    28  H    0.107727  -0.000759
    29  H    0.122938  -0.012917
    30  H    0.101514  -0.010947
    31  H    0.104057   0.000232
    32  H    0.078594  -0.019036
    33  H    0.109479  -0.030907
 Sum of Mulliken charges =  -1.00000   1.00000

 Dipole moment (field-independent basis, Debye):
    X=             -6.6816    Y=              1.3858    Z=              0.9276  Tot=              6.8866
 Quadrupole moment (field-independent basis, Debye-Ang):
   XX=           -147.2795   YY=           -119.0378   ZZ=           -111.9806
   XY=             -2.4512   XZ=              1.0580   YZ=              1.6399

 Summary of Natural Population Analysis:

                                       Natural Population
                Natural  -----------------------------------------------
    Atom  No    Charge         Core      Valence    Rydberg      Total
 -----------------------------------------------------------------------
      C    1   -0.19451      0.99963     2.18741    0.00747     3.19451
      C    2   -0.20342      0.99964     2.19752    0.00626     3.20342
      C    3   -0.01020      0.99958     1.99901    0.01161     3.01020
      O    4   -0.30975      0.99989     3.29818    0.01169     4.30975
      C    5    0.07495      0.99955     1.91312    0.01239     2.92505
      C    6   -0.20542      0.99961     2.19805    0.00776     3.20542
      C    7   -0.21890      0.99957     2.21008    0.00925     3.21890
      C    8    0.21545      0.99960     1.76671    0.01824     2.78455
      N    9   -0.21885      0.99964     2.70540    0.01381     3.71885
      C   10    0.09034      0.99948     1.89757    0.01262     2.90966
      C   11   -0.07399      0.99953     2.06483    0.00962     3.07399
      C   12   -0.07341      0.99958     2.06419    0.00965     3.07341
      C   13   -0.12259      0.99958     2.11336    0.00965     3.12259
      C   14   -0.03444      0.99955     2.02588    0.00902     3.03444
      C   15   -0.08638      0.99948     2.07898    0.00792     3.08638
      C   16    0.15170      0.99958     1.83497    0.01375     2.84830
      N   17   -0.25863      0.99968     2.74673    0.01221     3.75863
      H   18    0.10305      0.00000     0.39570    0.00125     0.39695
      H   19    0.09384      0.00000     0.40496    0.00120     0.40616
      H   20    0.09140      0.00000     0.40714    0.00146     0.40860
      H   21    0.09382      0.00000     0.40501    0.00117     0.40618
      H   22    0.08482      0.00000     0.41401    0.00116     0.41518
      H   23    0.07663      0.00000     0.42181    0.00156     0.42337
      H   24    0.09797      0.00000     0.40076    0.00127     0.40203
      H   25    0.11601      0.00000     0.38295    0.00104     0.38399
      H   26    0.09111      0.00000     0.40771    0.00118     0.40889
      H   27    0.10667      0.00000     0.39222    0.00112     0.39333
      H   28    0.09946      0.00000     0.39942    0.00112     0.40054
      H   29    0.09341      0.00000     0.40500    0.00159     0.40659
      H   30    0.08775      0.00000     0.41162    0.00063     0.41225
      H   31    0.08815      0.00000     0.41074    0.00111     0.41185
      H   32    0.08524      0.00000     0.41286    0.00190     0.41476
      H   33    0.06876      0.00000     0.42936    0.00188     0.43124
 =======================================================================
   * Total *    0.00001     16.99317    43.80327    0.20355    60.99999

 Normal termination of Gaussian 16 at Sun Dec 13 16:46:24 2020.
