 Gaussian 16, Revision A.03,

 -----------------------------------------------------------
 # opt freq B3LYP/6-31G(d) empiricaldispersion=gd3bj scf=xqc
 -----------------------------------------------------------

 -------------------------------
 CID_115972808_JID_2401_neutraal
 -------------------------------
 Symbolic Z-matrix:
 Charge =  0 Multiplicity = 1

 SCF Done:  E(RB3LYP) =  -523.692531741     A.U. after   13 cycles
 SCF Done:  E(RB3LYP) =  -523.704858587     A.U. after   11 cycles
 SCF Done:  E(RB3LYP) =  -523.703267440     A.U. after   11 cycles
 SCF Done:  E(RB3LYP) =  -523.704972716     A.U. after   11 cycles
 SCF Done:  E(RB3LYP) =  -523.704259187     A.U. after   11 cycles
 SCF Done:  E(RB3LYP) =  -523.706826653     A.U. after   10 cycles
 SCF Done:  E(RB3LYP) =  -523.707167338     A.U. after   10 cycles
 SCF Done:  E(RB3LYP) =  -523.707214862     A.U. after    9 cycles
 SCF Done:  E(RB3LYP) =  -523.707227411     A.U. after    9 cycles
 SCF Done:  E(RB3LYP) =  -523.707233028     A.U. after    9 cycles
 SCF Done:  E(RB3LYP) =  -523.707235500     A.U. after    8 cycles
 SCF Done:  E(RB3LYP) =  -523.707237160     A.U. after    8 cycles
 SCF Done:  E(RB3LYP) =  -523.707238172     A.U. after    8 cycles
 SCF Done:  E(RB3LYP) =  -523.707238341     A.U. after    6 cycles
 Optimization completed.
    -- Stationary point found.
 Normal termination of Gaussian 16 at Wed Dec  9 17:19:46 2020.

 --------------------------------------------------------------------
 #N Geom=AllCheck Guess=TCheck SCRF=Check GenChk RB3LYP/6-31G(d) Freq
 --------------------------------------------------------------------

 Structure from the checkpoint file:  "JID_2401.chk"
 -------------------------------
 CID_115972808_JID_2401_neutraal
 -------------------------------
 Charge =  0 Multiplicity = 1

 SCF Done:  E(RB3LYP) =  -523.707238341     A.U. after    1 cycles

  Exact polarizability: 129.266  -0.927 112.172  -0.324   1.895 100.296
 Approx polarizability: 159.807  -0.101 155.428   0.951   1.224 150.449

                      1                      2                      3
                      A                      A                      A
 Frequencies --     24.4757                56.7782                97.7664
 Red. masses --      2.7874                 3.2214                 3.7599
 Frc consts  --      0.0010                 0.0061                 0.0212
 IR Inten    --      0.3448                 1.0194                 3.5315

                      4                      5                      6
                      A                      A                      A
 Frequencies --    116.2649               135.4004               149.7383
 Red. masses --      3.0083                 2.7017                 2.1306
 Frc consts  --      0.0240                 0.0292                 0.0281
 IR Inten    --      0.2574                 1.6226                 1.0427

                      7                      8                      9
                      A                      A                      A
 Frequencies --    222.5623               227.8931               238.4076
 Red. masses --      1.9297                 1.1774                 2.0532
 Frc consts  --      0.0563                 0.0360                 0.0688
 IR Inten    --      0.8203                 0.2703                 2.1286

                     10                     11                     12
                      A                      A                      A
 Frequencies --    251.6694               266.3631               303.0298
 Red. masses --      1.4169                 2.4118                 2.6606
 Frc consts  --      0.0529                 0.1008                 0.1439
 IR Inten    --      0.0407                 1.2213                 0.2853

                     13                     14                     15
                      A                      A                      A
 Frequencies --    338.6780               378.2385               414.7679
 Red. masses --      2.9859                 2.1877                 2.2413
 Frc consts  --      0.2018                 0.1844                 0.2272
 IR Inten    --      1.4600                 8.7236                 5.6688

                     16                     17                     18
                      A                      A                      A
 Frequencies --    426.1822               449.6633               488.3402
 Red. masses --      2.0950                 2.2291                 2.6465
 Frc consts  --      0.2242                 0.2656                 0.3718
 IR Inten    --      0.8222                 5.5674                 3.2006

                     19                     20                     21
                      A                      A                      A
 Frequencies --    553.4382               666.9828               721.0086
 Red. masses --      2.5054                 2.1414                 1.8874
 Frc consts  --      0.4521                 0.5613                 0.5781
 IR Inten    --      1.5540                 1.7698                 2.2207

                     22                     23                     24
                      A                      A                      A
 Frequencies --    745.7720               804.1330               834.7303
 Red. masses --      1.1706                 1.2693                 2.2815
 Frc consts  --      0.3836                 0.4836                 0.9366
 IR Inten    --     56.3279                 1.1421                14.5979

                     25                     26                     27
                      A                      A                      A
 Frequencies --    843.6620               867.3448               890.5846
 Red. masses --      1.7922                 1.4152                 2.1666
 Frc consts  --      0.7516                 0.6273                 1.0125
 IR Inten    --     23.0455               107.4308                 1.7544

                     28                     29                     30
                      A                      A                      A
 Frequencies --    915.9261               941.4881               944.9907
 Red. masses --      1.4917                 1.5050                 1.4314
 Frc consts  --      0.7373                 0.7860                 0.7531
 IR Inten    --      5.8325                 0.3796                 3.6558

                     31                     32                     33
                      A                      A                      A
 Frequencies --    949.9231               967.1588               977.7912
 Red. masses --      2.4734                 2.1532                 1.4329
 Frc consts  --      1.3150                 1.1867                 0.8071
 IR Inten    --      0.7006                 1.8255                 0.8263

                     34                     35                     36
                      A                      A                      A
 Frequencies --    986.7462              1001.3328              1010.5326
 Red. masses --      1.7826                 1.8865                 2.1083
 Frc consts  --      1.0226                 1.1145                 1.2685
 IR Inten    --      0.9629                10.9738                 5.9692

                     37                     38                     39
                      A                      A                      A
 Frequencies --   1058.3543              1072.3342              1104.0287
 Red. masses --      1.2445                 3.9561                 3.8899
 Frc consts  --      0.8213                 2.6803                 2.7935
 IR Inten    --      3.2484                 7.6725                24.3552

                     40                     41                     42
                      A                      A                      A
 Frequencies --   1122.2059              1151.8670              1178.7102
 Red. masses --      2.3549                 2.1913                 2.3013
 Frc consts  --      1.7473                 1.7130                 1.8838
 IR Inten    --     62.6198                 1.9348                31.8362

                     43                     44                     45
                      A                      A                      A
 Frequencies --   1188.4394              1207.1902              1214.3747
 Red. masses --      1.9811                 1.7038                 1.3994
 Frc consts  --      1.6486                 1.4629                 1.2159
 IR Inten    --     33.7703                 8.8480                 2.5314

                     46                     47                     48
                      A                      A                      A
 Frequencies --   1222.5365              1255.2676              1263.8652
 Red. masses --      1.6670                 1.2230                 1.2481
 Frc consts  --      1.4679                 1.1354                 1.1747
 IR Inten    --      2.1656                 5.0694                 5.3947

                     49                     50                     51
                      A                      A                      A
 Frequencies --   1270.3940              1283.9090              1291.4480
 Red. masses --      1.2982                 1.3928                 1.4126
 Frc consts  --      1.2344                 1.3527                 1.3881
 IR Inten    --      7.1832                12.0843                 0.3533

                     52                     53                     54
                      A                      A                      A
 Frequencies --   1321.3491              1341.6251              1350.9029
 Red. masses --      1.5374                 1.7029                 1.3350
 Frc consts  --      1.5815                 1.8060                 1.4354
 IR Inten    --     18.1279                13.7104                 1.5250

                     55                     56                     57
                      A                      A                      A
 Frequencies --   1387.7304              1395.1151              1416.4732
 Red. masses --      1.4389                 1.3897                 1.4199
 Frc consts  --      1.6326                 1.5936                 1.6785
 IR Inten    --      4.1439                 1.6159                 0.3691

                     58                     59                     60
                      A                      A                      A
 Frequencies --   1421.5863              1432.1159              1451.5004
 Red. masses --      1.2746                 1.3020                 1.2370
 Frc consts  --      1.5176                 1.5733                 1.5355
 IR Inten    --     11.9536                 5.1058                 5.9591

                     61                     62                     63
                      A                      A                      A
 Frequencies --   1499.4633              1505.0117              1506.8538
 Red. masses --      1.1207                 1.1230                 1.1375
 Frc consts  --      1.4846                 1.4987                 1.5217
 IR Inten    --     12.0010                 8.1851                23.9506

                     64                     65                     66
                      A                      A                      A
 Frequencies --   1515.8781              1516.9725              1521.8246
 Red. masses --      1.0656                 1.0949                 1.1135
 Frc consts  --      1.4427                 1.4844                 1.5194
 IR Inten    --      5.8736                 6.1163                30.2927

                     67                     68                     69
                      A                      A                      A
 Frequencies --   1529.8236              1535.8093              1538.0767
 Red. masses --      1.0692                 1.0807                 1.1140
 Frc consts  --      1.4744                 1.5019                 1.5527
 IR Inten    --     10.2469                 2.4433                 3.5226

                     70                     71                     72
                      A                      A                      A
 Frequencies --   1539.4482              1541.9246              1549.2376
 Red. masses --      1.1064                 1.0869                 1.0598
 Frc consts  --      1.5449                 1.5225                 1.4987
 IR Inten    --     15.8257                 8.7795                10.3169

                     73                     74                     75
                      A                      A                      A
 Frequencies --   2959.7833              2966.3885              3035.2048
 Red. masses --      1.0723                 1.0729                 1.0693
 Frc consts  --      5.5345                 5.5623                 5.8041
 IR Inten    --     49.9602                66.6792                 6.6668

                     76                     77                     78
                      A                      A                      A
 Frequencies --   3037.2254              3043.4686              3043.6854
 Red. masses --      1.0459                 1.0486                 1.0542
 Frc consts  --      5.6846                 5.7226                 5.7540
 IR Inten    --     26.0444                16.1297                28.5144

                     79                     80                     81
                      A                      A                      A
 Frequencies --   3057.0214              3062.4212              3078.1547
 Red. masses --      1.0593                 1.0626                 1.0883
 Frc consts  --      5.8328                 5.8715                 6.0753
 IR Inten    --     50.0008                15.9651                56.4265

                     82                     83                     84
                      A                      A                      A
 Frequencies --   3081.4304              3082.8016              3100.8194
 Red. masses --      1.0772                 1.0863                 1.1008
 Frc consts  --      6.0264                 6.0828                 6.2358
 IR Inten    --     21.6744                67.7616                20.4430

                     85                     86                     87
                      A                      A                      A
 Frequencies --   3105.2721              3108.3074              3109.2109
 Red. masses --      1.0969                 1.1049                 1.0976
 Frc consts  --      6.2317                 6.2898                 6.2515
 IR Inten    --     30.3202                25.9303                18.1449

                     88                     89                     90
                      A                      A                      A
 Frequencies --   3112.9953              3116.8897              3118.3490
 Red. masses --      1.0970                 1.1041                 1.1016
 Frc consts  --      6.2632                 6.3199                 6.3115
 IR Inten    --     51.9679                19.8475                45.5232

                     91                     92                     93
                      A                      A                      A
 Frequencies --   3134.0763              3495.8255              3506.8232
 Red. masses --      1.1081                 1.0726                 1.0667
 Frc consts  --      6.4126                 7.7228                 7.7292
 IR Inten    --     57.0888                34.5211               241.0601

 - Thermochemistry -
 -------------------
 Temperature   298.150 Kelvin.  Pressure   1.00000 Atm.
 Atom     1 has atomic number  6 and mass  12.00000

 Molecular mass:   171.16231 amu.
 Principal axes and moments of inertia in atomic units:
                           1         2         3
     Eigenvalues --  1492.920493097.096013915.38424
           X            0.99998   0.00683  -0.00091
           Y           -0.00682   0.99982   0.01768
           Z            0.00103  -0.01768   0.99984
 This molecule is an asymmetric top.
 Rotational symmetry number  1.
 Warning -- assumption of classical behavior for rotation
           may cause significant error
 Rotational temperatures (Kelvin)      0.05802     0.02797     0.02212
 Rotational constants (GHZ):           1.20887     0.58272     0.46094
 Zero-point vibrational energy     803110.4 (Joules/Mol)
                                  191.94798 (Kcal/Mol)
 Warning -- explicit consideration of  19 degrees of freedom as
           vibrations may cause significant error
 Vibrational temperatures:     35.22    81.69   140.66   167.28   194.81
          (Kelvin)            215.44   320.22   327.89   343.02   362.10
                              383.24   435.99   487.28   544.20   596.76
                              613.18   646.97   702.61   796.27   959.64
                             1037.37  1073.00  1156.97  1200.99  1213.84
                             1247.92  1281.35  1317.81  1354.59  1359.63
                             1366.73  1391.53  1406.82  1419.71  1440.69
                             1453.93  1522.74  1542.85  1588.45  1614.60
                             1657.28  1695.90  1709.90  1736.88  1747.21
                             1758.96  1806.05  1818.42  1827.81  1847.26
                             1858.11  1901.13  1930.30  1943.65  1996.63
                             2007.26  2037.99  2045.35  2060.50  2088.39
                             2157.39  2165.38  2168.03  2181.01  2182.59
                             2189.57  2201.07  2209.69  2212.95  2214.92
                             2218.49  2229.01  4258.47  4267.97  4366.98
                             4369.89  4378.87  4379.18  4398.37  4406.14
                             4428.78  4433.49  4435.46  4461.39  4467.79
                             4472.16  4473.46  4478.91  4484.51  4486.61
                             4509.24  5029.71  5045.54

 Zero-point correction=                           0.305889 (Hartree/Particle)
 Thermal correction to Energy=                    0.319499
 Thermal correction to Enthalpy=                  0.320444
 Thermal correction to Gibbs Free Energy=         0.265453
 Sum of electronic and zero-point Energies=           -523.401350
 Sum of electronic and thermal Energies=              -523.387739
 Sum of electronic and thermal Enthalpies=            -523.386795
 Sum of electronic and thermal Free Energies=         -523.441785

                     E (Thermal)             CV                S
                      KCal/Mol        Cal/Mol-Kelvin    Cal/Mol-Kelvin
 Total                  200.489             52.019            115.737
 Electronic               0.000              0.000              0.000
 Translational            0.889              2.981             41.320
 Rotational               0.889              2.981             31.271
 Vibrational            198.711             46.057             43.146
 Vibration     1          0.593              1.985              6.233
 Vibration     2          0.596              1.975              4.566
 Vibration     3          0.603              1.951              3.498
 Vibration     4          0.608              1.936              3.162
 Vibration     5          0.613              1.918              2.868
 Vibration     6          0.618              1.903              2.676
 Vibration     7          0.648              1.807              1.938
 Vibration     8          0.651              1.798              1.895
 Vibration     9          0.656              1.782              1.815
 Vibration    10          0.664              1.760              1.719
 Vibration    11          0.672              1.735              1.620
 Vibration    12          0.694              1.668              1.400
 Vibration    13          0.719              1.598              1.218
 Vibration    14          0.749              1.517              1.046
 Vibration    15          0.778              1.438              0.910
 Vibration    16          0.788              1.413              0.871
 Vibration    17          0.809              1.362              0.797
 Vibration    18          0.844              1.276              0.688
 Vibration    19          0.909              1.132              0.537

 Optimization completed.
    -- Stationary point found.
 Normal termination of Gaussian 16 at Wed Dec  9 17:28:07 2020.

 ----------------------------------------------------------------------
 # B3LYP/6-311++G(d,p) empiricaldispersion=gd3bj scf=xqc pop=npa geom=c
 heck
 ----------------------------------------------------------------------

 ---------------------------------------
 CID_115972808_JID_2401_Energie_neutraal
 ---------------------------------------
 Structure from the checkpoint file:  "JID_2401.chk"
 Charge =  0 Multiplicity = 1

 SCF Done:  E(RB3LYP) =  -523.866273495     A.U. after   13 cycles
 Normal termination of Gaussian 16 at Wed Dec  9 17:31:21 2020.

 ----------------------------------------------------------------------
 # B3LYP/6-311++G(d,p) empiricaldispersion=gd3bj scf=xqc pop=npa geom=c
 heck
 ----------------------------------------------------------------------

 -------------------------------------
 CID_115972808_JID_2401_Energie_kation
 -------------------------------------
 Structure from the checkpoint file:  "JID_2401.chk"
 Charge =  1 Multiplicity = 2

 SCF Done:  E(UB3LYP) =  -523.558449652     A.U. after   21 cycles
 Normal termination of Gaussian 16 at Wed Dec  9 17:38:42 2020.
 Gaussian 16:  ES64L-G16RevA.03 25-Dec-2016

 ----------------------------------------------------------------------
 # B3LYP/6-311++G(d,p) empiricaldispersion=gd3bj scf=xqc pop=npa geom=c
 heck
 ----------------------------------------------------------------------

 ------------------------------------
 CID_115972808_JID_2401_Energie_anion
 ------------------------------------
 Structure from the checkpoint file:  "JID_2401.chk"
 Charge = -1 Multiplicity = 2

                         Standard orientation:
 ---------------------------------------------------------------------
 Center     Atomic      Atomic             Coordinates (Angstroms)
 Number     Number       Type             X           Y           Z
 ---------------------------------------------------------------------
      1          6           0       -2.931805   -1.223024   -1.033150
      2          6           0       -2.611941    0.000867   -0.164589
      3          6           0       -3.686198    0.196341    0.911807
      4          6           0       -1.230824   -0.096533    0.495845
      5          7           0       -0.147975   -0.154605   -0.494147
      6          6           0        1.199810   -0.314387    0.069203
      7          6           0        1.499726   -1.590985    0.926893
      8          6           0        2.804126   -1.789430    0.114304
      9          6           0        2.247682   -0.823479   -0.962480
     10          6           0        1.653483    0.974255    0.774404
     11          6           0        1.598850    2.223163   -0.113294
     12          8           0        0.283966    2.558374   -0.517989
     13          1           0       -2.877763   -2.146533   -0.441496
     14          1           0       -2.246497   -1.321827   -1.882999
     15          1           0       -3.944078   -1.152444   -1.446355
     16          1           0       -2.601435    0.890216   -0.809860
     17          1           0       -3.728508   -0.669245    1.585429
     18          1           0       -3.483228    1.085471    1.519353
     19          1           0       -4.677517    0.314920    0.460701
     20          1           0       -1.073932    0.797791    1.105376
     21          1           0       -1.213723   -0.965898    1.178254
     22          1           0       -0.318164   -0.940861   -1.117814
     23          1           0        1.585850   -1.461494    2.010727
     24          1           0        0.768886   -2.382491    0.724705
     25          1           0        3.041375   -2.807122   -0.207293
     26          1           0        3.678667   -1.378060    0.626698
     27          1           0        1.765952   -1.364016   -1.785704
     28          1           0        2.928754   -0.082714   -1.391540
     29          1           0        1.039408    1.143186    1.667725
     30          1           0        2.682490    0.829914    1.129637
     31          1           0        1.990447    3.082786    0.442515
     32          1           0        2.260495    2.080474   -0.986250
     33          1           0       -0.070820    1.722458   -0.892537
 ---------------------------------------------------------------------

 SCF Done:  E(UB3LYP) =  -523.852019989     A.U. after   26 cycles

 The electronic state is 2-A.
 Alpha  occ. eigenvalues --  -19.00172 -14.20782 -10.11230 -10.11001 -10.09082
 Alpha  occ. eigenvalues --  -10.07754 -10.06937 -10.06713 -10.06671 -10.06317
 Alpha  occ. eigenvalues --  -10.06291 -10.05787  -0.90914  -0.82215  -0.73924
 Alpha  occ. eigenvalues --   -0.69435  -0.65200  -0.58876  -0.58037  -0.56454
 Alpha  occ. eigenvalues --   -0.54146  -0.50243  -0.46724  -0.43888  -0.40800
 Alpha  occ. eigenvalues --   -0.39995  -0.38595  -0.37545  -0.35075  -0.34240
 Alpha  occ. eigenvalues --   -0.33040  -0.32213  -0.31136  -0.30167  -0.29486
 Alpha  occ. eigenvalues --   -0.28716  -0.27686  -0.27008  -0.25183  -0.24787
 Alpha  occ. eigenvalues --   -0.23591  -0.23428  -0.22949  -0.22485  -0.21721
 Alpha  occ. eigenvalues --   -0.20293  -0.16456  -0.13622   0.04480
 Alpha virt. eigenvalues --    0.06468   0.07137   0.07787   0.08622   0.08923
 Alpha virt. eigenvalues --    0.09446   0.09932   0.10386   0.10944   0.11138
 Alpha virt. eigenvalues --    0.11838   0.12239   0.13028   0.13486   0.13970

  Beta  occ. eigenvalues --  -19.00169 -14.20766 -10.11223 -10.11003 -10.09073
  Beta  occ. eigenvalues --  -10.07748 -10.06920 -10.06690 -10.06643 -10.06293
  Beta  occ. eigenvalues --  -10.06266 -10.05742  -0.90907  -0.82193  -0.73901
  Beta  occ. eigenvalues --   -0.69407  -0.65175  -0.58806  -0.57998  -0.56399
  Beta  occ. eigenvalues --   -0.54108  -0.50178  -0.46664  -0.43831  -0.40754
  Beta  occ. eigenvalues --   -0.39973  -0.38567  -0.37509  -0.35039  -0.34209
  Beta  occ. eigenvalues --   -0.33009  -0.32177  -0.31106  -0.30143  -0.29448
  Beta  occ. eigenvalues --   -0.28682  -0.27654  -0.26977  -0.25149  -0.24749
  Beta  occ. eigenvalues --   -0.23572  -0.23396  -0.22909  -0.22448  -0.21692
  Beta  occ. eigenvalues --   -0.20263  -0.16441  -0.13599
  Beta virt. eigenvalues --    0.06684   0.07219   0.07971   0.08270   0.09109
  Beta virt. eigenvalues --    0.09462   0.09775   0.10295   0.10637   0.11418
  Beta virt. eigenvalues --    0.11532   0.12257   0.12503   0.13268   0.13687

 Mulliken charges and spin densities:
               1          2
     1  C    0.787307  -1.348480
     2  C   -1.163400   1.640789
     3  C    0.445849  -1.115578
     4  C    0.330580  -1.185434
     5  N   -0.076668   0.023280
     6  C   -1.036115   1.314923
     7  C   -0.047322  -0.051605
     8  C    0.968004  -1.412923
     9  C    0.182365  -0.397213
    10  C    0.294984  -0.673574
    11  C   -0.097227  -0.448167
    12  O   -0.279103   0.014590
    13  H   -0.098764   0.251056
    14  H   -0.615461   0.745141
    15  H   -0.454738   0.605239
    16  H    0.209937  -0.067513
    17  H   -0.090902   0.230040
    18  H   -0.082820   0.209552
    19  H   -0.156899   0.311098
    20  H    0.252556  -0.092280
    21  H    0.053652   0.104615
    22  H    0.907064  -0.657918
    23  H   -0.199779   0.363463
    24  H   -0.366267   0.502354
    25  H   -0.352323   0.514859
    26  H   -0.049401   0.170436
    27  H   -0.571089   0.700453
    28  H    0.024996   0.104315
    29  H    0.067608   0.117766
    30  H   -0.124663   0.278871
    31  H    0.057930   0.097399
    32  H    0.057310   0.066362
    33  H    0.222799   0.084085
 Sum of Mulliken charges =  -1.00000   1.00000

 Dipole moment (field-independent basis, Debye):
    X=              1.5892    Y=              4.1793    Z=              1.6169  Tot=              4.7546
 Quadrupole moment (field-independent basis, Debye-Ang):
   XX=           -144.3902   YY=           -131.7917   ZZ=           -114.5673
   XY=              1.5534   XZ=             -3.1980   YZ=             -3.4834

 Summary of Natural Population Analysis:

                                       Natural Population
                Natural  -----------------------------------------------
    Atom  No    Charge         Core      Valence    Rydberg      Total
 -----------------------------------------------------------------------
      C    1   -0.28780      0.99965     2.28180    0.00635     3.28780
      C    2   -0.11748      0.99961     2.10857    0.00930     3.11748
      C    3   -0.28324      0.99965     2.27797    0.00562     3.28324
      C    4   -0.08930      0.99958     2.07860    0.01112     3.08930
      N    5   -0.35746      0.99970     2.84529    0.01247     3.85746
      C    6    0.06565      0.99955     1.91802    0.01678     2.93435
      C    7   -0.19560      0.99959     2.18701    0.00900     3.19560
      C    8   -0.19136      0.99965     2.18308    0.00863     3.19136
      C    9   -0.18876      0.99959     2.17962    0.00955     3.18876
      C   10   -0.20883      0.99956     2.19915    0.01012     3.20883
      C   11   -0.00828      0.99960     1.99670    0.01198     3.00828
      O   12   -0.38667      0.99990     3.37956    0.00721     4.38667
      H   13    0.09910      0.00000     0.39943    0.00148     0.40090
      H   14    0.09926      0.00000     0.39935    0.00138     0.40074
      H   15    0.10120      0.00000     0.39752    0.00128     0.39880
      H   16    0.09406      0.00000     0.40394    0.00200     0.40594
      H   17    0.09764      0.00000     0.40139    0.00097     0.40236
      H   18    0.09821      0.00000     0.40088    0.00091     0.40179
      H   19    0.09978      0.00000     0.39941    0.00082     0.40022
      H   20    0.09763      0.00000     0.40070    0.00167     0.40237
      H   21    0.08447      0.00000     0.41394    0.00159     0.41553
      H   22    0.18239      0.00000     0.31324    0.00437     0.31761
      H   23    0.09796      0.00000     0.40082    0.00122     0.40204
      H   24    0.10268      0.00000     0.39540    0.00192     0.39732
      H   25    0.09978      0.00000     0.39856    0.00166     0.40022
      H   26    0.09469      0.00000     0.40379    0.00152     0.40531
      H   27    0.10129      0.00000     0.39703    0.00168     0.39871
      H   28    0.09738      0.00000     0.40138    0.00124     0.40262
      H   29    0.10019      0.00000     0.39862    0.00119     0.39981
      H   30    0.10413      0.00000     0.39460    0.00127     0.39587
      H   31    0.08234      0.00000     0.41654    0.00113     0.41766
      H   32    0.07239      0.00000     0.42611    0.00150     0.42761
      H   33    0.24260      0.00000     0.25365    0.00375     0.25740
 =======================================================================
   * Total *    0.00000     11.99563    35.85169    0.15268    48.00000

 Normal termination of Gaussian 16 at Wed Dec  9 17:47:59 2020.
