 Gaussian 16, Revision A.03,

 -----------------------------------------------------------
 # opt freq B3LYP/6-31G(d) empiricaldispersion=gd3bj scf=xqc
 -----------------------------------------------------------

 -------------------------------
 CID_116507445_JID_5908_neutraal
 -------------------------------
 Symbolic Z-matrix:
 Charge =  0 Multiplicity = 1

 SCF Done:  E(RB3LYP) =  -1030.24997112     A.U. after   15 cycles
 SCF Done:  E(RB3LYP) =  -1030.25569853     A.U. after   13 cycles
 SCF Done:  E(RB3LYP) =  -1030.25595012     A.U. after   13 cycles
 SCF Done:  E(RB3LYP) =  -1030.25811135     A.U. after   12 cycles
 SCF Done:  E(RB3LYP) =  -1030.25981316     A.U. after   13 cycles
 SCF Done:  E(RB3LYP) =  -1030.26041981     A.U. after   13 cycles
 SCF Done:  E(RB3LYP) =  -1030.26071721     A.U. after   12 cycles
 SCF Done:  E(RB3LYP) =  -1030.26080649     A.U. after   12 cycles
 SCF Done:  E(RB3LYP) =  -1030.26087416     A.U. after   10 cycles
 SCF Done:  E(RB3LYP) =  -1030.26089681     A.U. after   10 cycles
 SCF Done:  E(RB3LYP) =  -1030.26093303     A.U. after    9 cycles
 SCF Done:  E(RB3LYP) =  -1030.26093374     A.U. after    9 cycles
 SCF Done:  E(RB3LYP) =  -1030.26093390     A.U. after    7 cycles
 SCF Done:  E(RB3LYP) =  -1030.26093392     A.U. after    8 cycles
 SCF Done:  E(RB3LYP) =  -1030.26093417     A.U. after    9 cycles
 SCF Done:  E(RB3LYP) =  -1030.26093419     A.U. after    7 cycles
 Optimization completed.
    -- Stationary point found.
 Normal termination of Gaussian 16 at Thu Dec 10 17:45:11 2020.

 --------------------------------------------------------------------
 #N Geom=AllCheck Guess=TCheck SCRF=Check GenChk RB3LYP/6-31G(d) Freq
 --------------------------------------------------------------------

 Structure from the checkpoint file:  "JID_5908.chk"
 -------------------------------
 CID_116507445_JID_5908_neutraal
 -------------------------------
 Charge =  0 Multiplicity = 1

 SCF Done:  E(RB3LYP) =  -1030.26093419     A.U. after    1 cycles

  Exact polarizability: 180.509  13.877 154.185   7.951  -4.880 104.134
 Approx polarizability: 225.050  33.636 235.042  17.262 -12.866 167.032

                      1                      2                      3
                      A                      A                      A
 Frequencies --     22.4326                29.5546                43.9002
 Red. masses --      3.8973                 1.8648                 5.0449
 Frc consts  --      0.0012                 0.0010                 0.0057
 IR Inten    --      1.4896                 0.4682                 0.4677

                      4                      5                      6
                      A                      A                      A
 Frequencies --     49.6454                64.1412                65.4518
 Red. masses --      6.3320                 5.3670                 3.5741
 Frc consts  --      0.0092                 0.0130                 0.0090
 IR Inten    --      0.1486                 3.5190                 1.1818

                      7                      8                      9
                      A                      A                      A
 Frequencies --     87.8171               104.3659               116.7200
 Red. masses --      3.1456                 3.3094                 4.0108
 Frc consts  --      0.0143                 0.0212                 0.0322
 IR Inten    --      2.2164                 0.1367                 6.0857

                     10                     11                     12
                      A                      A                      A
 Frequencies --    151.5366               194.9925               256.8091
 Red. masses --      1.0361                 3.4672                 3.8737
 Frc consts  --      0.0140                 0.0777                 0.1505
 IR Inten    --      0.3150                 1.5448                 3.0888

                     13                     14                     15
                      A                      A                      A
 Frequencies --    290.1691               297.3034               362.4323
 Red. masses --      4.2433                 3.7084                 2.8662
 Frc consts  --      0.2105                 0.1931                 0.2218
 IR Inten    --      4.4137                 3.3972                 4.2761

                     16                     17                     18
                      A                      A                      A
 Frequencies --    374.6210               457.4032               458.8240
 Red. masses --      2.5738                 2.5019                 3.4947
 Frc consts  --      0.2128                 0.3084                 0.4335
 IR Inten    --      2.0110                 1.8443                 3.0311

                     19                     20                     21
                      A                      A                      A
 Frequencies --    485.9377               501.3211               559.7836
 Red. masses --      2.4105                 3.2485                 2.3390
 Frc consts  --      0.3354                 0.4810                 0.4318
 IR Inten    --      5.2543                 7.9243                 8.6257

                     22                     23                     24
                      A                      A                      A
 Frequencies --    577.7298               594.7396               630.0015
 Red. masses --      2.6239                 2.8670                 2.8187
 Frc consts  --      0.5160                 0.5975                 0.6592
 IR Inten    --     14.8558                11.8669                 2.2428

                     25                     26                     27
                      A                      A                      A
 Frequencies --    675.8305               686.3412               699.6058
 Red. masses --      2.2185                 1.9328                 1.4461
 Frc consts  --      0.5970                 0.5364                 0.4170
 IR Inten    --      4.1396                73.8747               122.9379

                     28                     29                     30
                      A                      A                      A
 Frequencies --    772.1990               778.0271               785.6383
 Red. masses --      2.0191                 2.0332                 1.4575
 Frc consts  --      0.7094                 0.7251                 0.5300
 IR Inten    --     23.1535                35.8847                26.1459

                     31                     32                     33
                      A                      A                      A
 Frequencies --    825.9924               860.6878               887.6497
 Red. masses --      1.5883                 1.7946                 3.4542
 Frc consts  --      0.6385                 0.7833                 1.6036
 IR Inten    --      1.2312                23.2883                 1.8763

                     34                     35                     36
                      A                      A                      A
 Frequencies --    901.9285               910.8508               947.7192
 Red. masses --      2.5512                 2.4956                 2.0627
 Frc consts  --      1.2228                 1.2199                 1.0916
 IR Inten    --      2.9568                 1.9746                31.2450

                     37                     38                     39
                      A                      A                      A
 Frequencies --    970.1281               988.6032              1005.4767
 Red. masses --      2.0898                 1.3862                 1.4383
 Frc consts  --      1.1588                 0.7982                 0.8567
 IR Inten    --      5.5482                 1.0939                11.7368

                     40                     41                     42
                      A                      A                      A
 Frequencies --   1023.3156              1054.3079              1062.0668
 Red. masses --      1.5829                 2.9221                 1.7351
 Frc consts  --      0.9766                 1.9137                 1.1531
 IR Inten    --     22.1180                11.1413                 4.8244

                     43                     44                     45
                      A                      A                      A
 Frequencies --   1073.8770              1097.5585              1114.3501
 Red. masses --      2.8093                 2.4765                 2.8815
 Frc consts  --      1.9088                 1.7577                 2.1082
 IR Inten    --      8.9259                 9.5653                 0.6842

                     46                     47                     48
                      A                      A                      A
 Frequencies --   1125.7069              1163.5910              1188.6580
 Red. masses --      2.5845                 3.2179                 2.0861
 Frc consts  --      1.9296                 2.5670                 1.7366
 IR Inten    --     12.3053                 2.9162               162.6468

                     49                     50                     51
                      A                      A                      A
 Frequencies --   1216.0716              1225.7035              1255.0264
 Red. masses --      1.4762                 1.4414                 1.4711
 Frc consts  --      1.2862                 1.2758                 1.3652
 IR Inten    --      2.2412                77.5435                52.9054

                     52                     53                     54
                      A                      A                      A
 Frequencies --   1272.4721              1280.0361              1298.1511
 Red. masses --      1.4040                 1.2357                 1.2330
 Frc consts  --      1.3394                 1.1929                 1.2243
 IR Inten    --     54.7140                 3.2771                 3.6808

                     55                     56                     57
                      A                      A                      A
 Frequencies --   1318.0044              1336.3882              1351.0073
 Red. masses --      1.2909                 1.2435                 1.3713
 Frc consts  --      1.3213                 1.3085                 1.4747
 IR Inten    --      2.0696                12.3095                24.5250

                     58                     59                     60
                      A                      A                      A
 Frequencies --   1355.9916              1358.1627              1368.4868
 Red. masses --      1.6547                 1.3192                 1.3555
 Frc consts  --      1.7926                 1.4337                 1.4957
 IR Inten    --    126.4929                 4.7963                 9.3804

                     61                     62                     63
                      A                      A                      A
 Frequencies --   1390.8350              1408.1443              1413.9257
 Red. masses --      1.4108                 1.3441                 1.2700
 Frc consts  --      1.6079                 1.5702                 1.4959
 IR Inten    --     19.9503                 6.7915                22.6052

                     64                     65                     66
                      A                      A                      A
 Frequencies --   1431.6278              1453.6784              1493.5206
 Red. masses --      1.5757                 2.6984                 1.2316
 Frc consts  --      1.9027                 3.3596                 1.6186
 IR Inten    --     64.2075               178.3719                45.6888

                     67                     68                     69
                      A                      A                      A
 Frequencies --   1496.9188              1509.7244              1513.5196
 Red. masses --      1.0569                 1.5833                 1.0875
 Frc consts  --      1.3954                 2.1262                 1.4677
 IR Inten    --      8.3716               136.3510                 4.3589

                     70                     71                     72
                      A                      A                      A
 Frequencies --   1517.0050              1521.8390              1524.5225
 Red. masses --      1.0895                 1.1154                 1.1465
 Frc consts  --      1.4772                 1.5220                 1.5700
 IR Inten    --     27.5009                26.6218                 1.3843

                     73                     74                     75
                      A                      A                      A
 Frequencies --   1525.8005              1527.2568              1550.1619
 Red. masses --      1.1118                 1.1056                 1.1062
 Frc consts  --      1.5250                 1.5193                 1.5661
 IR Inten    --      3.6809                 1.9558                 2.2834

                     76                     77                     78
                      A                      A                      A
 Frequencies --   1596.4893              1801.7210              3039.9032
 Red. masses --      1.7421                 7.9700                 1.0700
 Frc consts  --      2.6161                15.2435                 5.8259
 IR Inten    --    331.6989               401.7399                16.8974

                     79                     80                     81
                      A                      A                      A
 Frequencies --   3048.0952              3056.1265              3063.0297
 Red. masses --      1.0679                 1.0398                 1.0657
 Frc consts  --      5.8458                 5.7220                 5.8907
 IR Inten    --     25.2587                 6.0190                19.7040

                     82                     83                     84
                      A                      A                      A
 Frequencies --   3076.0092              3078.7991              3088.2346
 Red. masses --      1.0620                 1.0632                 1.0638
 Frc consts  --      5.9203                 5.9381                 5.9777
 IR Inten    --     18.2760                50.2773                19.6054

                     85                     86                     87
                      A                      A                      A
 Frequencies --   3100.7699              3103.7014              3114.0364
 Red. masses --      1.0925                 1.0970                 1.0950
 Frc consts  --      6.1889                 6.2264                 6.2562
 IR Inten    --     25.7975                 5.5955                18.7863

                     88                     89                     90
                      A                      A                      A
 Frequencies --   3114.9698              3119.7513              3124.5472
 Red. masses --      1.1006                 1.0976                 1.1019
 Frc consts  --      6.2921                 6.2944                 6.3384
 IR Inten    --     14.9558                10.6044                28.5720

                     91                     92                     93
                      A                      A                      A
 Frequencies --   3130.4370              3145.9002              3180.0950
 Red. masses --      1.1015                 1.1026                 1.0996
 Frc consts  --      6.3599                 6.4289                 6.5518
 IR Inten    --     70.2630                22.7807                 8.3720

                     94                     95                     96
                      A                      A                      A
 Frequencies --   3536.2392              3560.2909              3583.1990
 Red. masses --      1.0773                 1.0749                 1.0761
 Frc consts  --      7.9374                 8.0280                 8.1405
 IR Inten    --     80.2248                24.5141                26.1911

 - Thermochemistry -
 -------------------
 Temperature   298.150 Kelvin.  Pressure   1.00000 Atm.
 Atom     1 has atomic number  6 and mass  12.00000

 Molecular mass:   229.12488 amu.
 Principal axes and moments of inertia in atomic units:
                           1         2         3
     Eigenvalues --  1891.188687321.416288710.23079
           X            0.99998  -0.00685  -0.00010
           Y            0.00685   0.99997   0.00286
           Z            0.00008  -0.00286   1.00000
 This molecule is an asymmetric top.
 Rotational symmetry number  1.
 Warning -- assumption of classical behavior for rotation
           may cause significant error
 Rotational temperatures (Kelvin)      0.04580     0.01183     0.00994
 Rotational constants (GHZ):           0.95429     0.24650     0.20720
 Zero-point vibrational energy     783279.3 (Joules/Mol)
                                  187.20824 (Kcal/Mol)
 Warning -- explicit consideration of  23 degrees of freedom as
           vibrations may cause significant error
 Vibrational temperatures:     32.28    42.52    63.16    71.43    92.28
          (Kelvin)             94.17   126.35   150.16   167.93   218.03
                              280.55   369.49   417.49   427.75   521.46
                              539.00   658.10   660.15   699.16   721.29
                              805.40   831.22   855.70   906.43   972.37
                              987.49  1006.58  1111.02  1119.41  1130.36
                             1188.42  1238.34  1277.13  1297.67  1310.51
                             1363.56  1395.80  1422.38  1446.66  1472.32
                             1516.91  1528.08  1545.07  1579.14  1603.30
                             1619.64  1674.15  1710.21  1749.66  1763.51
                             1805.70  1830.80  1841.69  1867.75  1896.31
                             1922.76  1943.80  1950.97  1954.09  1968.95
                             2001.10  2026.01  2034.32  2059.79  2091.52
                             2148.84  2153.73  2172.16  2177.62  2182.63
                             2189.59  2193.45  2195.29  2197.38  2230.34
                             2296.99  2592.27  4373.74  4385.53  4397.08
                             4407.02  4425.69  4429.71  4443.28  4461.32
                             4465.53  4480.40  4481.75  4488.63  4495.53
                             4504.00  4526.25  4575.45  5087.86  5122.46
                             5155.42

 Zero-point correction=                           0.298335 (Hartree/Particle)
 Thermal correction to Energy=                    0.314793
 Thermal correction to Enthalpy=                  0.315738
 Thermal correction to Gibbs Free Energy=         0.250812
 Sum of electronic and zero-point Energies=          -1029.962599
 Sum of electronic and thermal Energies=             -1029.946141
 Sum of electronic and thermal Enthalpies=           -1029.945197
 Sum of electronic and thermal Free Energies=        -1030.010122

                     E (Thermal)             CV                S
                      KCal/Mol        Cal/Mol-Kelvin    Cal/Mol-Kelvin
 Total                  197.536             59.538            136.648
 Electronic               0.000              0.000              0.000
 Translational            0.889              2.981             42.189
 Rotational               0.889              2.981             33.155
 Vibrational            195.758             53.577             61.303
 Vibration     1          0.593              1.985              6.406
 Vibration     2          0.593              1.984              5.859
 Vibration     3          0.595              1.980              5.075
 Vibration     4          0.595              1.978              4.831
 Vibration     5          0.597              1.971              4.326
 Vibration     6          0.597              1.971              4.286
 Vibration     7          0.601              1.958              3.708
 Vibration     8          0.605              1.946              3.371
 Vibration     9          0.608              1.935              3.154
 Vibration    10          0.619              1.901              2.653
 Vibration    11          0.636              1.847              2.180
 Vibration    12          0.666              1.751              1.683
 Vibration    13          0.686              1.692              1.473
 Vibration    14          0.691              1.679              1.432
 Vibration    15          0.736              1.550              1.112
 Vibration    16          0.746              1.524              1.061
 Vibration    17          0.816              1.345              0.774
 Vibration    18          0.817              1.341              0.770
 Vibration    19          0.842              1.281              0.694
 Vibration    20          0.857              1.247              0.655
 Vibration    21          0.915              1.118              0.524
 Vibration    22          0.934              1.079              0.490
 Vibration    23          0.952              1.043              0.459

 Optimization completed.
    -- Stationary point found.
 Normal termination of Gaussian 16 at Thu Dec 10 17:55:35 2020.

 ----------------------------------------------------------------------
 # B3LYP/6-311++G(d,p) empiricaldispersion=gd3bj scf=xqc pop=npa geom=c
 heck
 ----------------------------------------------------------------------

 ---------------------------------------
 CID_116507445_JID_5908_Energie_neutraal
 ---------------------------------------
 Structure from the checkpoint file:  "JID_5908.chk"
 Charge =  0 Multiplicity = 1

 SCF Done:  E(RB3LYP) =  -1030.47470903     A.U. after   15 cycles
 Normal termination of Gaussian 16 at Thu Dec 10 18:00:36 2020.

 ----------------------------------------------------------------------
 # B3LYP/6-311++G(d,p) empiricaldispersion=gd3bj scf=xqc pop=npa geom=c
 heck
 ----------------------------------------------------------------------

 -------------------------------------
 CID_116507445_JID_5908_Energie_kation
 -------------------------------------
 Structure from the checkpoint file:  "JID_5908.chk"
 Charge =  1 Multiplicity = 2

 SCF Done:  E(UB3LYP) =  -1030.18382874     A.U. after   28 cycles
 Normal termination of Gaussian 16 at Thu Dec 10 18:13:27 2020.
 Gaussian 16:  ES64L-G16RevA.03 25-Dec-2016

 ----------------------------------------------------------------------
 # B3LYP/6-311++G(d,p) empiricaldispersion=gd3bj scf=xqc pop=npa geom=c
 heck
 ----------------------------------------------------------------------

 ------------------------------------
 CID_116507445_JID_5908_Energie_anion
 ------------------------------------
 Structure from the checkpoint file:  "JID_5908.chk"
 Charge = -1 Multiplicity = 2

                         Standard orientation:
 ---------------------------------------------------------------------
 Center     Atomic      Atomic             Coordinates (Angstroms)
 Number     Number       Type             X           Y           Z
 ---------------------------------------------------------------------
      1          6           0        4.213005   -2.016745    0.199625
      2          6           0        4.012783   -0.518446    0.010983
      3          8           0        4.891738    0.290100    0.272808
      4          7           0        2.800502   -0.117566   -0.495232
      5          6           0        1.621027   -0.934458   -0.707808
      6          6           0        0.704500   -0.992558    0.527858
      7          7           0        0.350235    0.353238    1.010804
      8          6           0       -0.236984    1.253009    0.132142
      9         16           0        0.470246    2.737592   -0.218209
     10          7           0       -1.397255    0.857617   -0.446881
     11          6           0       -2.373786   -0.079429    0.100862
     12          6           0       -3.720457    0.589788    0.435049
     13          6           0       -4.724758   -0.582230    0.529212
     14          6           0       -4.059034   -1.779682   -0.217958
     15          6           0       -2.783148   -1.207501   -0.860102
     16          1           0        5.205711   -2.168109    0.623815
     17          1           0        4.148363   -2.549188   -0.756464
     18          1           0        3.465429   -2.451253    0.873043
     19          1           0        2.685445    0.889642   -0.574906
     20          1           0        1.059347   -0.506942   -1.545056
     21          1           0        1.912613   -1.947174   -1.000908
     22          1           0       -0.196546   -1.564604    0.296465
     23          1           0        1.210148   -1.498198    1.356165
     24          1           0        1.155532    0.799774    1.437578
     25          1           0       -1.764350    1.545951   -1.093811
     26          1           0       -1.943921   -0.496909    1.014795
     27          1           0       -3.666771    1.198160    1.342150
     28          1           0       -3.992889    1.261299   -0.390471
     29          1           0       -5.687690   -0.311408    0.086727
     30          1           0       -4.921157   -0.843595    1.573626
     31          1           0       -4.724164   -2.233804   -0.957893
     32          1           0       -3.794610   -2.567773    0.496012
     33          1           0       -3.004233   -0.766947   -1.841289
     34          1           0       -1.997358   -1.954710   -1.010702
 ---------------------------------------------------------------------

 SCF Done:  E(UB3LYP) =  -1030.47190007     A.U. after   32 cycles

 The electronic state is 2-A.
 Alpha  occ. eigenvalues --  -88.69581 -18.99682 -14.25368 -14.24429 -14.24298
 Alpha  occ. eigenvalues --  -10.18552 -10.18169 -10.12374 -10.12341 -10.12264
 Alpha  occ. eigenvalues --  -10.08883 -10.08343 -10.07913 -10.07515 -10.07493
 Alpha  occ. eigenvalues --   -7.78351  -5.74741  -5.74205  -5.73886  -0.94814
 Alpha  occ. eigenvalues --   -0.89599  -0.84007  -0.81625  -0.74622  -0.67648
 Alpha  occ. eigenvalues --   -0.65467  -0.63790  -0.62676  -0.59939  -0.55735
 Alpha  occ. eigenvalues --   -0.52396  -0.50147  -0.48933  -0.48224  -0.43264
 Alpha  occ. eigenvalues --   -0.41199  -0.40878  -0.40049  -0.38798  -0.38111
 Alpha  occ. eigenvalues --   -0.37285  -0.34853  -0.33783  -0.33706  -0.32402
 Alpha  occ. eigenvalues --   -0.31631  -0.30896  -0.30619  -0.30113  -0.29038
 Alpha  occ. eigenvalues --   -0.27536  -0.26920  -0.26006  -0.25248  -0.24956
 Alpha  occ. eigenvalues --   -0.24440  -0.23238  -0.17909  -0.16887  -0.16090
 Alpha  occ. eigenvalues --   -0.13378  -0.11824   0.03586
 Alpha virt. eigenvalues --    0.05564   0.05905   0.07085   0.07511   0.08052
 Alpha virt. eigenvalues --    0.08197   0.09128   0.09902   0.10196   0.10491
 Alpha virt. eigenvalues --    0.10652   0.11255   0.11386   0.11930   0.12455

  Beta  occ. eigenvalues --  -88.69578 -18.99679 -14.25349 -14.24422 -14.24295
  Beta  occ. eigenvalues --  -10.18551 -10.17997 -10.12363 -10.12309 -10.12243
  Beta  occ. eigenvalues --  -10.08855 -10.08333 -10.07892 -10.07481 -10.07452
  Beta  occ. eigenvalues --   -7.78348  -5.74746  -5.74188  -5.73884  -0.94809
  Beta  occ. eigenvalues --   -0.89470  -0.83980  -0.81590  -0.74568  -0.67545
  Beta  occ. eigenvalues --   -0.65421  -0.63720  -0.62614  -0.59876  -0.55680
  Beta  occ. eigenvalues --   -0.52315  -0.50068  -0.48901  -0.48138  -0.43214
  Beta  occ. eigenvalues --   -0.41133  -0.40795  -0.39994  -0.38765  -0.38065
  Beta  occ. eigenvalues --   -0.37183  -0.34802  -0.33736  -0.33642  -0.32381
  Beta  occ. eigenvalues --   -0.31596  -0.30798  -0.30433  -0.30064  -0.29001
  Beta  occ. eigenvalues --   -0.27512  -0.26830  -0.25940  -0.25183  -0.24891
  Beta  occ. eigenvalues --   -0.24243  -0.23192  -0.17849  -0.16870  -0.16049
  Beta  occ. eigenvalues --   -0.13251  -0.11785
  Beta virt. eigenvalues --    0.05973   0.06396   0.06668   0.07670   0.08109
  Beta virt. eigenvalues --    0.08361   0.08727   0.09458   0.10006   0.10423
  Beta virt. eigenvalues --    0.10713   0.10849   0.11554   0.11612   0.12063

 Mulliken charges and spin densities:
               1          2
     1  C    0.312626  -0.764352
     2  C   -0.124743   0.210987
     3  O   -0.345469  -0.002585
     4  N   -0.128027  -0.017662
     5  C   -0.673010   0.145695
     6  C    0.692516  -0.834441
     7  N   -0.018878   0.050609
     8  C    0.432190  -0.338909
     9  S   -0.692235  -0.003527
    10  N    0.125380   0.068871
    11  C   -1.291687   0.967018
    12  C    0.199612  -0.626651
    13  C    0.111072  -0.472356
    14  C    0.436079  -0.863904
    15  C    0.552694  -0.628598
    16  H    0.161817   0.012071
    17  H   -0.105265   0.272171
    18  H   -0.156755   0.299688
    19  H    0.312082   0.001515
    20  H   -0.079944   0.300123
    21  H   -0.527053   0.742295
    22  H    0.252365  -0.172635
    23  H   -0.106852   0.316059
    24  H    0.303385  -0.014750
    25  H    0.209111   0.060861
    26  H    0.180420   0.036571
    27  H    0.129134   0.041182
    28  H   -0.019608   0.152773
    29  H   -0.114597   0.264367
    30  H   -0.093116   0.233597
    31  H   -0.228675   0.385972
    32  H   -0.205280   0.363091
    33  H   -0.161428   0.314376
    34  H   -0.337863   0.500478
 Sum of Mulliken charges =  -1.00000   1.00000

 Dipole moment (field-independent basis, Debye):
    X=             -0.4200    Y=              1.0654    Z=              2.0714  Tot=              2.3669
 Quadrupole moment (field-independent basis, Debye-Ang):
   XX=           -192.6328   YY=           -154.9058   ZZ=           -127.9674
   XY=            -13.9440   XZ=             -3.9277   YZ=             -4.0488

 Summary of Natural Population Analysis:

                                       Natural Population
                Natural  -----------------------------------------------
    Atom  No    Charge         Core      Valence    Rydberg      Total
 -----------------------------------------------------------------------
      C    1   -0.33599      0.99963     2.33167    0.00469     3.33599
      C    2    0.33972      0.99970     1.63770    0.02288     2.66028
      O    3   -0.32289      0.99988     3.31713    0.00589     4.32289
      N    4   -0.32990      0.99968     2.82032    0.00990     3.82990
      C    5   -0.10253      0.99961     2.09107    0.01185     3.10253
      C    6   -0.09124      0.99960     2.08015    0.01149     3.09124
      N    7   -0.33298      0.99966     2.82269    0.01062     3.83298
      C    8    0.17694      0.99965     1.80032    0.02309     2.82306
      S    9   -0.15090      4.99956     3.13850    0.01283     8.15090
      N   10   -0.30744      0.99962     2.79428    0.01355     3.80744
      C   11   -0.01570      0.99955     2.00318    0.01297     3.01570
      C   12   -0.19003      0.99962     2.18251    0.00789     3.19003
      C   13   -0.19199      0.99965     2.18559    0.00675     3.19199
      C   14   -0.19190      0.99964     2.18478    0.00747     3.19190
      C   15   -0.19209      0.99961     2.18303    0.00944     3.19209
      H   16    0.11166      0.00000     0.38755    0.00079     0.38834
      H   17    0.11077      0.00000     0.38824    0.00099     0.38923
      H   18    0.10734      0.00000     0.39151    0.00115     0.39266
      H   19    0.20595      0.00000     0.29159    0.00246     0.29405
      H   20    0.10518      0.00000     0.39352    0.00130     0.39482
      H   21    0.10591      0.00000     0.39199    0.00209     0.39409
      H   22    0.10300      0.00000     0.39519    0.00181     0.39700
      H   23    0.09594      0.00000     0.40284    0.00122     0.40406
      H   24    0.19426      0.00000     0.30388    0.00186     0.30574
      H   25    0.19765      0.00000     0.30033    0.00201     0.30235
      H   26    0.10308      0.00000     0.39457    0.00235     0.39692
      H   27    0.10252      0.00000     0.39663    0.00084     0.39748
      H   28    0.09507      0.00000     0.40359    0.00133     0.40493
      H   29    0.10005      0.00000     0.39860    0.00135     0.39995
      H   30    0.09741      0.00000     0.40133    0.00126     0.40259
      H   31    0.10214      0.00000     0.39649    0.00137     0.39786
      H   32    0.09777      0.00000     0.40073    0.00150     0.40223
      H   33    0.09769      0.00000     0.40048    0.00182     0.40231
      H   34    0.10551      0.00000     0.39235    0.00214     0.39449
 =======================================================================
   * Total *    0.00000     18.99466    42.80438    0.20096    62.00000

 Normal termination of Gaussian 16 at Thu Dec 10 18:26:40 2020.
