 Gaussian 16, Revision A.03,

 -----------------------------------------------------------
 # opt freq B3LYP/6-31G(d) empiricaldispersion=gd3bj scf=xqc
 -----------------------------------------------------------

 -------------------------------
 CID_115817344_JID_1314_neutraal
 -------------------------------
 Symbolic Z-matrix:
 Charge =  0 Multiplicity = 1

 SCF Done:  E(RB3LYP) =  -503.038180209     A.U. after   14 cycles
 SCF Done:  E(RB3LYP) =  -503.041128002     A.U. after   11 cycles
 SCF Done:  E(RB3LYP) =  -503.041487652     A.U. after   11 cycles
 SCF Done:  E(RB3LYP) =  -503.041697609     A.U. after   10 cycles
 SCF Done:  E(RB3LYP) =  -503.041785942     A.U. after   11 cycles
 SCF Done:  E(RB3LYP) =  -503.041877084     A.U. after   12 cycles
 SCF Done:  E(RB3LYP) =  -503.041882638     A.U. after   11 cycles
 SCF Done:  E(RB3LYP) =  -503.041911177     A.U. after   10 cycles
 SCF Done:  E(RB3LYP) =  -503.041287229     A.U. after   14 cycles
 SCF Done:  E(RB3LYP) =  -503.042408551     A.U. after   12 cycles
 SCF Done:  E(RB3LYP) =  -503.043117385     A.U. after    9 cycles
 SCF Done:  E(RB3LYP) =  -503.043118357     A.U. after    9 cycles
 SCF Done:  E(RB3LYP) =  -503.043118490     A.U. after   10 cycles
 SCF Done:  E(RB3LYP) =  -503.043119231     A.U. after    8 cycles
 SCF Done:  E(RB3LYP) =  -503.043119257     A.U. after    6 cycles
 Optimization completed.
    -- Stationary point found.

 1\1\GINC-NODE105\FOpt\RB3LYP\6-31G(d)\C9H16O2\VSC10255\08-Dec-2020\0\\
 # opt freq B3LYP/6-31G(d) empiricaldispersion=gd3bj scf=xqc\\CID_11581
 7344_JID_1314_neutraal\\0,1\C,0.8615311706,-0.0992740529,0.0412450886\
 C,0.3251538442,0.2018363625,-1.3459341677\C,-0.7622375215,-0.741160966
 8,-1.8573054558\C,-1.4738411158,0.1060222088,-2.9296060994\C,-1.201672
 55,1.5577366786,-2.4365769705\O,-0.3226312615,1.4769102784,-1.31895679
 83\C,-2.964646398,-0.2737428429,-3.0832808123\C,-3.6240243549,0.309170
 1635,-4.3280253329\C,-4.3393046459,-0.4628986478,-5.1509804833\C,-3.46

 Normal termination of Gaussian 16 at Tue Dec  8 19:51:48 2020.

 --------------------------------------------------------------------
 #N Geom=AllCheck Guess=TCheck SCRF=Check GenChk RB3LYP/6-31G(d) Freq
 --------------------------------------------------------------------

 Structure from the checkpoint file:  "JID_1314.chk"
 -------------------------------
 CID_115817344_JID_1314_neutraal
 -------------------------------
 Charge =  0 Multiplicity = 1

 SCF Done:  E(RB3LYP) =  -503.043119257     A.U. after    1 cycles

  Exact polarizability: 126.111  -1.417  96.291  -3.958   2.505  75.401
 Approx polarizability: 152.670  -9.992 139.560  -8.286   5.547 119.384

                      1                      2                      3
                      A                      A                      A
 Frequencies --     41.3536                59.7856                70.2852
 Red. masses --      3.0779                 2.7760                 3.7815
 Frc consts  --      0.0031                 0.0058                 0.0110
 IR Inten    --      1.3471                 0.7663                 1.6188

                      4                      5                      6
                      A                      A                      A
 Frequencies --    126.3021               175.5115               229.3130
 Red. masses --      3.2132                 2.7382                 1.4893
 Frc consts  --      0.0302                 0.0497                 0.0461
 IR Inten    --      2.7556                 0.1961                 0.1992

                      7                      8                      9
                      A                      A                      A
 Frequencies --    240.1630               250.3690               304.7193
 Red. masses --      1.0950                 1.6567                 2.8244
 Frc consts  --      0.0372                 0.0612                 0.1545
 IR Inten    --      0.2932                 1.1928                 3.0979

                     10                     11                     12
                      A                      A                      A
 Frequencies --    321.3889               336.1315               370.7041
 Red. masses --      3.0153                 2.7691                 1.1554
 Frc consts  --      0.1835                 0.1843                 0.0935
 IR Inten    --      3.4412                 1.5613               100.0477

                     13                     14                     15
                      A                      A                      A
 Frequencies --    401.0604               472.0235               483.5089
 Red. masses --      3.4643                 2.6274                 2.2543
 Frc consts  --      0.3283                 0.3449                 0.3105
 IR Inten    --     17.1066                 6.3191                19.7342

                     16                     17                     18
                      A                      A                      A
 Frequencies --    508.1935               559.1366               598.7867
 Red. masses --      3.0602                 3.0184                 2.8698
 Frc consts  --      0.4657                 0.5560                 0.6062
 IR Inten    --      0.6681                12.0433                 3.3420

                     19                     20                     21
                      A                      A                      A
 Frequencies --    698.5503               753.3267               849.7196
 Red. masses --      2.1045                 1.6359                 2.2947
 Frc consts  --      0.6051                 0.5470                 0.9762
 IR Inten    --      5.0074                12.1383                14.3714

                     22                     23                     24
                      A                      A                      A
 Frequencies --    866.7093               894.0990               923.8982
 Red. masses --      2.7222                 2.5610                 1.6566
 Frc consts  --      1.2048                 1.2062                 0.8331
 IR Inten    --      1.4195                 8.5904                 6.2802

                     25                     26                     27
                      A                      A                      A
 Frequencies --    929.8630               938.8492               971.4305
 Red. masses --      1.6634                 1.3649                 2.0552
 Frc consts  --      0.8474                 0.7088                 1.1427
 IR Inten    --      8.9041                32.6166                11.2474

                     28                     29                     30
                      A                      A                      A
 Frequencies --   1001.1430              1029.8541              1033.0468
 Red. masses --      1.5144                 1.4438                 2.5838
 Frc consts  --      0.8943                 0.9022                 1.6246
 IR Inten    --      3.3851                10.9212                 1.2351

                     31                     32                     33
                      A                      A                      A
 Frequencies --   1061.4955              1082.4158              1094.3898
 Red. masses --      3.1056                 1.5376                 2.4503
 Frc consts  --      2.0617                 1.0614                 1.7291
 IR Inten    --     29.4034                 2.3256                78.8238

                     34                     35                     36
                      A                      A                      A
 Frequencies --   1122.0212              1137.2779              1158.4602
 Red. masses --      2.5766                 4.3388                 2.2964
 Frc consts  --      1.9112                 3.3064                 1.8158
 IR Inten    --     10.5151               114.8474                 7.4507

                     37                     38                     39
                      A                      A                      A
 Frequencies --   1171.9173              1229.2545              1251.2914
 Red. masses --      1.8936                 1.5387                 1.2814
 Frc consts  --      1.5323                 1.3699                 1.1821
 IR Inten    --      8.3147                 4.2627                 6.9159

                     40                     41                     42
                      A                      A                      A
 Frequencies --   1265.2088              1284.9140              1304.3137
 Red. masses --      1.4375                 1.2172                 1.5367
 Frc consts  --      1.3557                 1.1840                 1.5403
 IR Inten    --     15.8624                 3.7629                 9.9231

                     43                     44                     45
                      A                      A                      A
 Frequencies --   1330.8371              1350.2451              1370.0871
 Red. masses --      1.7923                 1.2716                 1.2048
 Frc consts  --      1.8703                 1.3659                 1.3325
 IR Inten    --      5.4275                 0.2639                 4.3362

                     46                     47                     48
                      A                      A                      A
 Frequencies --   1390.9226              1415.0376              1418.8927
 Red. masses --      1.3341                 1.3337                 1.3755
 Frc consts  --      1.5207                 1.5734                 1.6316
 IR Inten    --      4.4289                18.1282                 7.2632

                     49                     50                     51
                      A                      A                      A
 Frequencies --   1436.2556              1441.2406              1443.2013
 Red. masses --      1.2704                 1.2148                 1.4397
 Frc consts  --      1.5440                 1.4868                 1.7668
 IR Inten    --     28.9259                 3.6655                22.5770

                     52                     53                     54
                      A                      A                      A
 Frequencies --   1463.5444              1511.2897              1515.7237
 Red. masses --      1.2281                 1.0990                 1.0465
 Frc consts  --      1.5499                 1.4789                 1.4165
 IR Inten    --      3.1392                 1.1773                13.2234

                     55                     56                     57
                      A                      A                      A
 Frequencies --   1515.9312              1525.3181              1529.7829
 Red. masses --      1.0520                 1.0594                 1.0495
 Frc consts  --      1.4244                 1.4522                 1.4471
 IR Inten    --      2.3888                17.0718                 3.2306

                     58                     59                     60
                      A                      A                      A
 Frequencies --   1551.6231              1730.9878              2954.6291
 Red. masses --      1.0857                 5.1265                 1.0831
 Frc consts  --      1.5400                 9.0503                 5.5708
 IR Inten    --      3.6532                 9.5583                68.7658

                     61                     62                     63
                      A                      A                      A
 Frequencies --   3014.3920              3026.2442              3038.2993
 Red. masses --      1.0741                 1.0777                 1.0825
 Frc consts  --      5.7503                 5.8153                 5.8877
 IR Inten    --     34.7306                23.0168                51.6137

                     64                     65                     66
                      A                      A                      A
 Frequencies --   3043.8478              3056.4554              3071.6557
 Red. masses --      1.0407                 1.0353                 1.0638
 Frc consts  --      5.6808                 5.6981                 5.9137
 IR Inten    --     29.8175                17.9452                19.5942

                     67                     68                     69
                      A                      A                      A
 Frequencies --   3081.9635              3096.5647              3125.3364
 Red. masses --      1.0958                 1.0991                 1.1030
 Frc consts  --      6.1327                 6.2091                 6.3477
 IR Inten    --     28.6098                38.2671                 1.6383

                     70                     71                     72
                      A                      A                      A
 Frequencies --   3129.8014              3131.5967              3133.3999
 Red. masses --      1.1024                 1.1003                 1.1030
 Frc consts  --      6.3626                 6.3575                 6.3808
 IR Inten    --     47.8382                25.6025                31.0110

                     73                     74                     75
                      A                      A                      A
 Frequencies --   3173.0408              3256.6406              3715.2491
 Red. masses --      1.0610                 1.1141                 1.0656
 Frc consts  --      6.2939                 6.9618                 8.6657
 IR Inten    --     11.0328                 9.6592                 9.4909

 - Thermochemistry -
 -------------------
 Temperature   298.150 Kelvin.  Pressure   1.00000 Atm.
 Atom     1 has atomic number  6 and mass  12.00000

 Molecular mass:   156.11503 amu.
 Principal axes and moments of inertia in atomic units:
                           1         2         3
     Eigenvalues --   779.208852922.617013531.80194
           X            0.99971   0.02408  -0.00211
           Y           -0.02407   0.99968   0.00720
           Z            0.00228  -0.00714   0.99997
 This molecule is an asymmetric top.
 Rotational symmetry number  1.
 Warning -- assumption of classical behavior for rotation
           may cause significant error
 Rotational temperatures (Kelvin)      0.11116     0.02964     0.02452
 Rotational constants (GHZ):           2.31612     0.61751     0.51100
 Zero-point vibrational energy     631581.8 (Joules/Mol)
                                  150.95166 (Kcal/Mol)
 Warning -- explicit consideration of  18 degrees of freedom as
           vibrations may cause significant error
 Vibrational temperatures:     59.50    86.02   101.12   181.72   252.52
          (Kelvin)            329.93   345.54   360.23   438.42   462.41
                              483.62   533.36   577.04   679.14   695.66
                              731.18   804.47   861.52  1005.06  1083.87
                             1222.56  1247.00  1286.41  1329.28  1337.87
                             1350.79  1397.67  1440.42  1481.73  1486.32
                             1527.26  1557.35  1574.58  1614.34  1636.29
                             1666.77  1686.13  1768.62  1800.33  1820.35
                             1848.70  1876.62  1914.78  1942.70  1971.25
                             2001.23  2035.92  2041.47  2066.45  2073.62
                             2076.44  2105.71  2174.41  2180.79  2181.09
                             2194.59  2201.02  2232.44  2490.51  4251.05
                             4337.04  4354.09  4371.44  4379.42  4397.56
                             4419.43  4434.26  4455.27  4496.66  4503.09
                             4505.67  4508.26  4565.30  4685.58  5345.41

 Zero-point correction=                           0.240557 (Hartree/Particle)
 Thermal correction to Energy=                    0.252521
 Thermal correction to Enthalpy=                  0.253465
 Thermal correction to Gibbs Free Energy=         0.202299
 Sum of electronic and zero-point Energies=           -502.802562
 Sum of electronic and thermal Energies=              -502.790598
 Sum of electronic and thermal Enthalpies=            -502.789654
 Sum of electronic and thermal Free Energies=         -502.840820

                     E (Thermal)             CV                S
                      KCal/Mol        Cal/Mol-Kelvin    Cal/Mol-Kelvin
 Total                  158.460             45.133            107.688
 Electronic               0.000              0.000              0.000
 Translational            0.889              2.981             41.046
 Rotational               0.889              2.981             30.465
 Vibrational            156.682             39.171             36.178
 Vibration     1          0.594              1.981              5.193
 Vibration     2          0.597              1.973              4.464
 Vibration     3          0.598              1.968              4.145
 Vibration     4          0.611              1.927              3.002
 Vibration     5          0.627              1.873              2.376
 Vibration     6          0.652              1.796              1.884
 Vibration     7          0.657              1.779              1.802
 Vibration     8          0.663              1.762              1.728
 Vibration     9          0.696              1.665              1.391
 Vibration    10          0.707              1.633              1.303
 Vibration    11          0.717              1.603              1.230
 Vibration    12          0.743              1.532              1.077
 Vibration    13          0.767              1.468              0.959
 Vibration    14          0.829              1.312              0.732
 Vibration    15          0.840              1.287              0.701
 Vibration    16          0.863              1.232              0.638
 Vibration    17          0.915              1.120              0.526
 Vibration    18          0.957              1.034              0.452

 Optimization completed.
    -- Stationary point found.

 1\1\GINC-NODE105\Freq\RB3LYP\6-31G(d)\C9H16O2\VSC10255\08-Dec-2020\0\\
 #N Geom=AllCheck Guess=TCheck SCRF=Check GenChk RB3LYP/6-31G(d) Freq\\
 CID_115817344_JID_1314_neutraal\\0,1\C,0.8615311706,-0.0992740529,0.04
 12450886\C,0.3251538442,0.2018363625,-1.3459341677\C,-0.7622375215,-0.
 7411609668,-1.8573054558\C,-1.4738411158,0.1060222088,-2.9296060994\C,
 -1.20167255,1.5577366786,-2.4365769705\O,-0.3226312615,1.4769102784,-1
 .3189567983\C,-2.964646398,-0.2737428429,-3.0832808123\C,-3.6240243549
 ,0.3091701635,-4.3280253329\C,-4.3393046459,-0.4628986478,-5.150980483

 Normal termination of Gaussian 16 at Tue Dec  8 19:57:45 2020.

 ----------------------------------------------------------------------
 # B3LYP/6-311++G(d,p) empiricaldispersion=gd3bj scf=xqc pop=npa geom=c
 heck
 ----------------------------------------------------------------------

 ---------------------------------------
 CID_115817344_JID_1314_Energie_neutraal
 ---------------------------------------
 Structure from the checkpoint file:  "JID_1314.chk"
 Charge =  0 Multiplicity = 1

 SCF Done:  E(RB3LYP) =  -503.196433115     A.U. after   14 cycles
 Normal termination of Gaussian 16 at Tue Dec  8 20:00:49 2020.

 ----------------------------------------------------------------------
 # B3LYP/6-311++G(d,p) empiricaldispersion=gd3bj scf=xqc pop=npa geom=c
 heck
 ----------------------------------------------------------------------

 -------------------------------------
 CID_115817344_JID_1314_Energie_kation
 -------------------------------------
 Structure from the checkpoint file:  "JID_1314.chk"
 Charge =  1 Multiplicity = 2

 SCF Done:  E(UB3LYP) =  -502.871014067     A.U. after   26 cycles
 Normal termination of Gaussian 16 at Tue Dec  8 20:08:03 2020.
 Gaussian 16:  ES64L-G16RevA.03 25-Dec-2016

 ------------------------------------
 CID_115817344_JID_1314_Energie_anion
 ------------------------------------
 Structure from the checkpoint file:  "JID_1314.chk"
 Charge = -1 Multiplicity = 2

                         Standard orientation:
 ---------------------------------------------------------------------
 Center     Atomic      Atomic             Coordinates (Angstroms)
 Number     Number       Type             X           Y           Z
 ---------------------------------------------------------------------
      1          6           0        3.808297    0.441941   -0.188071
      2          6           0        2.490519   -0.012499    0.411581
      3          6           0        1.314622    0.946522    0.236338
      4          6           0        0.092184    0.021588    0.391475
      5          6           0        0.664011   -1.357227   -0.051822
      6          8           0        2.062257   -1.195608   -0.268868
      7          6           0       -1.128843    0.523065   -0.413480
      8          6           0       -2.435039   -0.173939   -0.050170
      9          6           0       -3.538040    0.531316    0.216239
     10          6           0       -2.446356   -1.681527   -0.027506
     11          8           0       -1.239370    1.940409   -0.313319
     12          1           0        4.170044    1.343168    0.318883
     13          1           0        3.680634    0.664648   -1.252746
     14          1           0        4.567619   -0.339897   -0.087566
     15          1           0        2.628604   -0.236138    1.485214
     16          1           0        1.319188    1.772880    0.951981
     17          1           0        1.337104    1.376377   -0.771558
     18          1           0       -0.192625   -0.029059    1.451475
     19          1           0        0.226787   -1.710808   -0.992154
     20          1           0        0.486574   -2.126541    0.712905
     21          1           0       -0.917532    0.344364   -1.477787
     22          1           0       -4.471217    0.038542    0.475031
     23          1           0       -3.552451    1.613804    0.155628
     24          1           0       -2.110005   -2.098424   -0.985483
     25          1           0       -1.782932   -2.087756    0.745143
     26          1           0       -3.454138   -2.059119    0.166432
     27          1           0       -1.446883    2.140109    0.614590
 ---------------------------------------------------------------------

 SCF Done:  E(UB3LYP) =  -503.180781902     A.U. after   33 cycles
 SCF Done:  E(UB3LYP) =  -503.180781902     a.u. after    1 cycles

 The electronic state is 2-A.
 Alpha  occ. eigenvalues --  -19.02010 -19.01644 -10.12673 -10.11564 -10.11083
 Alpha  occ. eigenvalues --  -10.08207 -10.07492 -10.06528 -10.06319 -10.06092
 Alpha  occ. eigenvalues --  -10.05524  -0.93651  -0.92583  -0.71254  -0.68428
 Alpha  occ. eigenvalues --   -0.66848  -0.58810  -0.58426  -0.56599  -0.48652
 Alpha  occ. eigenvalues --   -0.47467  -0.44603  -0.40465  -0.39368  -0.37444
 Alpha  occ. eigenvalues --   -0.36807  -0.34797  -0.33295  -0.32124  -0.31147
 Alpha  occ. eigenvalues --   -0.30386  -0.29674  -0.28330  -0.28022  -0.26303
 Alpha  occ. eigenvalues --   -0.25105  -0.24343  -0.23760  -0.21670  -0.21569
 Alpha  occ. eigenvalues --   -0.18126  -0.15378  -0.15214   0.04730
 Alpha virt. eigenvalues --    0.06750   0.07532   0.08077   0.08601   0.09585
 Alpha virt. eigenvalues --    0.09665   0.10582   0.11238   0.11351   0.11742
 Alpha virt. eigenvalues --    0.12057   0.12892   0.13849   0.14325   0.14735

  Beta  occ. eigenvalues --  -19.01985 -19.01635 -10.12663 -10.11548 -10.11067
  Beta  occ. eigenvalues --  -10.08209 -10.07470 -10.06493 -10.06301 -10.06072
  Beta  occ. eigenvalues --  -10.05490  -0.93631  -0.92533  -0.71221  -0.68391
  Beta  occ. eigenvalues --   -0.66813  -0.58750  -0.58376  -0.56549  -0.48597
  Beta  occ. eigenvalues --   -0.47411  -0.44544  -0.40411  -0.39317  -0.37411
  Beta  occ. eigenvalues --   -0.36753  -0.34755  -0.33258  -0.32079  -0.31109
  Beta  occ. eigenvalues --   -0.30348  -0.29636  -0.28296  -0.27988  -0.26264
  Beta  occ. eigenvalues --   -0.25066  -0.24306  -0.23719  -0.21623  -0.21546
  Beta  occ. eigenvalues --   -0.18100  -0.15332  -0.15164
  Beta virt. eigenvalues --    0.07050   0.07601   0.08203   0.08652   0.09243
  Beta virt. eigenvalues --    0.09986   0.10163   0.11049   0.11565   0.11803
  Beta virt. eigenvalues --    0.12158   0.12406   0.13178   0.14132   0.14833

 Mulliken charges and spin densities:
               1          2
     1  C    0.654084  -1.288779
     2  C   -0.664385   0.665725
     3  C    1.968447  -2.600727
     4  C   -1.924351   2.270291
     5  C    0.741653  -1.239787
     6  O   -0.123328   0.036940
     7  C    0.866250  -1.428730
     8  C   -2.124222   2.882761
     9  C    1.012648  -1.325051
    10  C    1.304457  -2.190636
    11  O   -0.173597  -0.005335
    12  H   -0.060774   0.200220
    13  H    0.087537   0.055172
    14  H   -0.091216   0.237824
    15  H   -0.423207   0.588395
    16  H   -0.264100   0.425914
    17  H    0.093259   0.105773
    18  H   -0.479562   0.722480
    19  H   -0.082118   0.259148
    20  H   -0.002837   0.182267
    21  H    0.007739   0.199550
    22  H   -0.322460   0.444030
    23  H   -0.015223   0.133140
    24  H   -0.021398   0.168974
    25  H   -0.274473   0.436590
    26  H   -0.626785   0.783642
    27  H   -0.062037   0.280208
 Sum of Mulliken charges =  -1.00000   1.00000

 Dipole moment (field-independent basis, Debye):
    X=              2.1618    Y=              0.8145    Z=             -3.3862  Tot=              4.0992
 Quadrupole moment (field-independent basis, Debye-Ang):
   XX=           -135.8825   YY=           -111.8210   ZZ=           -101.5633
   XY=             -5.4015   XZ=             -2.1866   YZ=             -0.2035

 Summary of Natural Population Analysis:

                                       Natural Population
                Natural  -----------------------------------------------
    Atom  No    Charge         Core      Valence    Rydberg      Total
 -----------------------------------------------------------------------
      C    1   -0.28710      0.99964     2.28254    0.00491     3.28710
      C    2    0.06311      0.99957     1.92189    0.01543     2.93689
      C    3   -0.19593      0.99960     2.18529    0.01104     3.19593
      C    4   -0.13317      0.99957     2.12166    0.01193     3.13317
      C    5   -0.00731      0.99957     1.99512    0.01262     3.00731
      O    6   -0.30603      0.99989     3.29686    0.00928     4.30603
      C    7    0.05882      0.99948     1.92666    0.01504     2.94118
      C    8   -0.01285      0.99951     2.00196    0.01138     3.01285
      C    9   -0.19628      0.99948     2.18838    0.00842     3.19628
      C   10   -0.30178      0.99962     2.29540    0.00676     3.30178
      O   11   -0.36818      0.99990     3.36172    0.00656     4.36818
      H   12    0.10103      0.00000     0.39797    0.00099     0.39897
      H   13    0.09790      0.00000     0.40094    0.00116     0.40210
      H   14    0.10117      0.00000     0.39767    0.00116     0.39883
      H   15    0.07886      0.00000     0.41897    0.00218     0.42114
      H   16    0.10927      0.00000     0.38896    0.00176     0.39073
      H   17    0.09937      0.00000     0.39927    0.00137     0.40063
      H   18    0.10305      0.00000     0.39348    0.00346     0.39695
      H   19    0.08586      0.00000     0.41252    0.00162     0.41414
      H   20    0.08418      0.00000     0.41414    0.00168     0.41582
      H   21    0.09027      0.00000     0.40791    0.00183     0.40973
      H   22    0.09415      0.00000     0.40467    0.00119     0.40585
      H   23    0.09867      0.00000     0.40008    0.00126     0.40133
      H   24    0.10173      0.00000     0.39693    0.00134     0.39827
      H   25    0.10628      0.00000     0.39185    0.00187     0.39372
      H   26    0.10604      0.00000     0.39265    0.00131     0.39396
      H   27    0.22887      0.00000     0.26730    0.00383     0.27113
 =======================================================================
   * Total *    0.00000     10.99583    31.86279    0.14138    43.00000

 Normal termination of Gaussian 16 at Tue Dec  8 20:16:53 2020.
