 Gaussian 16, Revision A.03,

 -----------------------------------------------------------
 # opt freq B3LYP/6-31G(d) empiricaldispersion=gd3bj scf=xqc
 -----------------------------------------------------------

 -------------------------------
 CID_130742396_JID_2163_neutraal
 -------------------------------
 Symbolic Z-matrix:
 Charge =  0 Multiplicity = 1

 SCF Done:  E(RB3LYP) =  -523.717720028     A.U. after   13 cycles
 SCF Done:  E(RB3LYP) =  -523.716630991     A.U. after   11 cycles
 SCF Done:  E(RB3LYP) =  -523.721023213     A.U. after   10 cycles
 SCF Done:  E(RB3LYP) =  -523.722147821     A.U. after   11 cycles
 SCF Done:  E(RB3LYP) =  -523.722874489     A.U. after   10 cycles
 SCF Done:  E(RB3LYP) =  -523.723981323     A.U. after   12 cycles
 SCF Done:  E(RB3LYP) =  -523.725103997     A.U. after   10 cycles
 SCF Done:  E(RB3LYP) =  -523.725168346     A.U. after   11 cycles
 SCF Done:  E(RB3LYP) =  -523.725778073     A.U. after   10 cycles
 SCF Done:  E(RB3LYP) =  -523.725806697     A.U. after   10 cycles
 SCF Done:  E(RB3LYP) =  -523.725985586     A.U. after   10 cycles
 SCF Done:  E(RB3LYP) =  -523.726013940     A.U. after    9 cycles
 SCF Done:  E(RB3LYP) =  -523.726020708     A.U. after    9 cycles
 SCF Done:  E(RB3LYP) =  -523.726024271     A.U. after    7 cycles
 SCF Done:  E(RB3LYP) =  -523.726024953     A.U. after    7 cycles
 SCF Done:  E(RB3LYP) =  -523.726024998     A.U. after    6 cycles
 Optimization completed.
    -- Stationary point found.
 Normal termination of Gaussian 16 at Wed Dec  9 16:57:01 2020.

 --------------------------------------------------------------------
 #N Geom=AllCheck Guess=TCheck SCRF=Check GenChk RB3LYP/6-31G(d) Freq
 --------------------------------------------------------------------

 Structure from the checkpoint file:  "JID_2163.chk"
 -------------------------------
 CID_130742396_JID_2163_neutraal
 -------------------------------
 Charge =  0 Multiplicity = 1

 SCF Done:  E(RB3LYP) =  -523.726024998     A.U. after    1 cycles

  Exact polarizability: 124.119   0.173 111.579   0.334  -1.514 102.411
 Approx polarizability: 156.115   2.581 156.061  -0.710  -0.981 154.610

                      1                      2                      3
                      A                      A                      A
 Frequencies --     61.6581                73.3421               112.2662
 Red. masses --      3.3818                 2.6416                 3.4502
 Frc consts  --      0.0076                 0.0084                 0.0256
 IR Inten    --      0.3086                 0.0118                 0.1994

                      4                      5                      6
                      A                      A                      A
 Frequencies --    139.6167               219.9818               229.8051
 Red. masses --      2.7171                 1.1681                 3.0910
 Frc consts  --      0.0312                 0.0333                 0.0962
 IR Inten    --      0.5641                 0.7807                 1.0411

                      7                      8                      9
                      A                      A                      A
 Frequencies --    243.7882               271.5238               276.1554
 Red. masses --      2.4074                 1.2070                 1.2214
 Frc consts  --      0.0843                 0.0524                 0.0549
 IR Inten    --      0.5055                37.8727                 0.3236

                     10                     11                     12
                      A                      A                      A
 Frequencies --    289.7286               308.5105               326.7321
 Red. masses --      1.6197                 1.4343                 2.0583
 Frc consts  --      0.0801                 0.0804                 0.1295
 IR Inten    --      5.0694                 0.8669                 3.1351

                     13                     14                     15
                      A                      A                      A
 Frequencies --    342.2457               363.2345               382.8171
 Red. masses --      2.3399                 2.5463                 2.1144
 Frc consts  --      0.1615                 0.1979                 0.1826
 IR Inten    --     10.5806                 2.8969                 0.3590

                     16                     17                     18
                      A                      A                      A
 Frequencies --    410.9544               438.2923               456.0152
 Red. masses --      4.2113                 2.3955                 2.5521
 Frc consts  --      0.4190                 0.2711                 0.3127
 IR Inten    --      0.8656                 0.6426                 0.2295

                     19                     20                     21
                      A                      A                      A
 Frequencies --    484.9622               545.5831               615.9453
 Red. masses --      2.0390                 2.5882                 3.0317
 Frc consts  --      0.2825                 0.4539                 0.6777
 IR Inten    --      2.7628                 7.3597                 2.6312

                     22                     23                     24
                      A                      A                      A
 Frequencies --    708.3457               751.2613               817.4960
 Red. masses --      2.7649                 3.1899                 2.6644
 Frc consts  --      0.8174                 1.0607                 1.0491
 IR Inten    --      0.2756                 3.8762                 1.4768

                     25                     26                     27
                      A                      A                      A
 Frequencies --    832.9569               879.9408               909.5201
 Red. masses --      1.7673                 2.2418                 1.8841
 Frc consts  --      0.7224                 1.0227                 0.9183
 IR Inten    --      0.6500                66.6558                77.3083

                     28                     29                     30
                      A                      A                      A
 Frequencies --    916.4114               933.6197               945.3789
 Red. masses --      1.7393                 1.4277                 1.4914
 Frc consts  --      0.8606                 0.7332                 0.7853
 IR Inten    --     19.0187                17.3622                13.8796

                     31                     32                     33
                      A                      A                      A
 Frequencies --    965.8704               974.7860               996.2686
 Red. masses --      1.9479                 1.5274                 1.4286
 Frc consts  --      1.0707                 0.8551                 0.8354
 IR Inten    --     21.0360                 0.0110                 8.9536

                     34                     35                     36
                      A                      A                      A
 Frequencies --   1016.4050              1042.6093              1063.8675
 Red. masses --      1.6941                 2.1915                 1.5580
 Frc consts  --      1.0312                 1.4036                 1.0389
 IR Inten    --      9.2634                11.7050                 3.8278

                     37                     38                     39
                      A                      A                      A
 Frequencies --   1079.5758              1088.4686              1120.0359
 Red. masses --      2.0170                 1.9287                 2.2915
 Frc consts  --      1.3851                 1.3463                 1.6937
 IR Inten    --      8.4971                 5.6739                69.7033

                     40                     41                     42
                      A                      A                      A
 Frequencies --   1137.6522              1147.0867              1172.6081
 Red. masses --      2.4726                 2.2201                 2.2600
 Frc consts  --      1.8855                 1.7211                 1.8309
 IR Inten    --      1.1785                13.0023                 9.7352

                     43                     44                     45
                      A                      A                      A
 Frequencies --   1196.9254              1209.1475              1224.3278
 Red. masses --      2.2471                 1.8287                 1.4979
 Frc consts  --      1.8967                 1.5753                 1.3229
 IR Inten    --     12.5595                 8.1772                 4.8528

                     46                     47                     48
                      A                      A                      A
 Frequencies --   1253.5420              1300.1557              1315.8802
 Red. masses --      1.7452                 1.2432                 1.3502
 Frc consts  --      1.6158                 1.2382                 1.3775
 IR Inten    --     37.9346                 5.3162                15.3757

                     49                     50                     51
                      A                      A                      A
 Frequencies --   1323.5497              1338.9017              1345.6513
 Red. masses --      1.4718                 1.2637                 1.3400
 Frc consts  --      1.5191                 1.3347                 1.4296
 IR Inten    --      2.9521                 1.2169                 5.2676

                     52                     53                     54
                      A                      A                      A
 Frequencies --   1363.9767              1375.5893              1392.2590
 Red. masses --      1.3282                 1.3728                 1.2986
 Frc consts  --      1.4559                 1.5305                 1.4831
 IR Inten    --      1.2762                 1.9723                 1.0767

                     55                     56                     57
                      A                      A                      A
 Frequencies --   1400.2683              1411.4400              1418.8160
 Red. masses --      1.2252                 1.3776                 1.3250
 Frc consts  --      1.4155                 1.6170                 1.5715
 IR Inten    --      3.3490                 4.0250                12.4120

                     58                     59                     60
                      A                      A                      A
 Frequencies --   1429.7741              1434.0076              1443.1389
 Red. masses --      1.2487                 1.3123                 1.2299
 Frc consts  --      1.5040                 1.5900                 1.5092
 IR Inten    --      2.0970                14.3852                 3.8134

                     61                     62                     63
                      A                      A                      A
 Frequencies --   1452.6085              1455.1214              1502.1974
 Red. masses --      1.3963                 1.2307                 1.0873
 Frc consts  --      1.7359                 1.5353                 1.4456
 IR Inten    --      4.0770                 9.2804                 1.5289

                     64                     65                     66
                      A                      A                      A
 Frequencies --   1516.0711              1518.6735              1521.2049
 Red. masses --      1.0762                 1.0519                 1.0581
 Frc consts  --      1.4574                 1.4295                 1.4427
 IR Inten    --      0.9449                 3.0744                 8.5557

                     67                     68                     69
                      A                      A                      A
 Frequencies --   1531.8659              1535.0418              1540.0553
 Red. masses --      1.0549                 1.0531                 1.0797
 Frc consts  --      1.4585                 1.4621                 1.5087
 IR Inten    --      5.0669                 2.9877                 0.2923

                     70                     71                     72
                      A                      A                      A
 Frequencies --   1543.5814              1552.9421              1694.8623
 Red. masses --      1.0586                 1.0498                 1.0905
 Frc consts  --      1.4860                 1.4916                 1.8456
 IR Inten    --      9.1348                 1.4658                27.6553

                     73                     74                     75
                      A                      A                      A
 Frequencies --   2989.6081              3015.0528              3023.2579
 Red. masses --      1.0827                 1.0711                 1.0689
 Frc consts  --      5.7013                 5.7369                 5.7562
 IR Inten    --     18.9703                40.9745                 8.7566

                     76                     77                     78
                      A                      A                      A
 Frequencies --   3033.2071              3042.9842              3047.7976
 Red. masses --      1.0657                 1.0393                 1.0554
 Frc consts  --      5.7767                 5.6701                 5.7763
 IR Inten    --     42.9606                16.9606                44.3878

                     79                     80                     81
                      A                      A                      A
 Frequencies --   3049.5122              3064.1157              3068.8431
 Red. masses --      1.0697                 1.0383                 1.0805
 Frc consts  --      5.8608                 5.7438                 5.9958
 IR Inten    --     33.5876                29.5533                25.1995

                     82                     83                     84
                      A                      A                      A
 Frequencies --   3077.7439              3085.6860              3099.3747
 Red. masses --      1.0849                 1.0932                 1.0925
 Frc consts  --      6.0548                 6.1330                 6.1832
 IR Inten    --     28.6144                46.6478                43.6855

                     85                     86                     87
                      A                      A                      A
 Frequencies --   3100.0898              3101.7649              3111.4317
 Red. masses --      1.1015                 1.0998                 1.0994
 Frc consts  --      6.2371                 6.2342                 6.2711
 IR Inten    --      1.2301                39.5370                91.1752

                     88                     89                     90
                      A                      A                      A
 Frequencies --   3123.8003              3134.0214              3143.6299
 Red. masses --      1.1007                 1.0992                 1.1029
 Frc consts  --      6.3284                 6.3609                 6.4217
 IR Inten    --     31.4246                31.0596                34.8068

                     91                     92                     93
                      A                      A                      A
 Frequencies --   3153.5618              3439.8109              3525.7312
 Red. masses --      1.0941                 1.0494                 1.0916
 Frc consts  --      6.4107                 7.3160                 7.9947
 IR Inten    --     34.5817                 3.2223                 1.5257

 - Thermochemistry -
 -------------------
 Temperature   298.150 Kelvin.  Pressure   1.00000 Atm.
 Atom     1 has atomic number  6 and mass  12.00000

 Molecular mass:   171.16231 amu.
 Principal axes and moments of inertia in atomic units:
                           1         2         3
     Eigenvalues --  1441.529052599.084343227.11217
           X            0.99997   0.00422   0.00720
           Y           -0.00413   0.99991  -0.01294
           Z           -0.00726   0.01291   0.99989
 This molecule is an asymmetric top.
 Rotational symmetry number  1.
 Warning -- assumption of classical behavior for rotation
           may cause significant error
 Rotational temperatures (Kelvin)      0.06008     0.03332     0.02684
 Rotational constants (GHZ):           1.25196     0.69438     0.55924
 Zero-point vibrational energy     807873.6 (Joules/Mol)
                                  193.08643 (Kcal/Mol)
 Warning -- explicit consideration of  21 degrees of freedom as
           vibrations may cause significant error
 Vibrational temperatures:     88.71   105.52   161.53   200.88   316.50
          (Kelvin)            330.64   350.76   390.66   397.33   416.85
                              443.88   470.09   492.42   522.61   550.79
                              591.27   630.60   656.10   697.75   784.97
                              886.21  1019.15  1080.90  1176.19  1198.44
                             1266.04  1308.60  1318.51  1343.27  1360.19
                             1389.67  1402.50  1433.41  1462.38  1500.08
                             1530.67  1553.27  1566.06  1611.48  1636.83
                             1650.40  1687.12  1722.11  1739.69  1761.53
                             1803.57  1870.63  1893.26  1904.29  1926.38
                             1936.09  1962.46  1979.17  2003.15  2014.67
                             2030.75  2041.36  2057.13  2063.22  2076.35
                             2089.98  2093.60  2161.33  2181.29  2185.03
                             2188.67  2204.01  2208.58  2215.80  2220.87
                             2234.34  2438.53  4301.38  4337.99  4349.79
                             4364.11  4378.18  4385.10  4387.57  4408.58
                             4415.38  4428.19  4439.61  4459.31  4460.34
                             4462.75  4476.66  4494.45  4509.16  4522.98
                             4537.27  4949.12  5072.74

 Zero-point correction=                           0.307703 (Hartree/Particle)
 Thermal correction to Energy=                    0.320822
 Thermal correction to Enthalpy=                  0.321766
 Thermal correction to Gibbs Free Energy=         0.269434
 Sum of electronic and zero-point Energies=           -523.418322
 Sum of electronic and thermal Energies=              -523.405203
 Sum of electronic and thermal Enthalpies=            -523.404259
 Sum of electronic and thermal Free Energies=         -523.456591

                     E (Thermal)             CV                S
                      KCal/Mol        Cal/Mol-Kelvin    Cal/Mol-Kelvin
 Total                  201.319             51.945            110.143
 Electronic               0.000              0.000              0.000
 Translational            0.889              2.981             41.320
 Rotational               0.889              2.981             30.870
 Vibrational            199.541             45.983             37.953
 Vibration     1          0.597              1.973              4.403
 Vibration     2          0.599              1.967              4.062
 Vibration     3          0.607              1.939              3.229
 Vibration     4          0.615              1.914              2.809
 Vibration     5          0.647              1.811              1.959
 Vibration     6          0.652              1.795              1.880
 Vibration     7          0.659              1.773              1.775
 Vibration     8          0.675              1.726              1.586
 Vibration     9          0.678              1.717              1.557
 Vibration    10          0.686              1.693              1.476
 Vibration    11          0.698              1.658              1.370
 Vibration    12          0.710              1.622              1.276
 Vibration    13          0.721              1.591              1.202
 Vibration    14          0.737              1.548              1.108
 Vibration    15          0.752              1.507              1.028
 Vibration    16          0.775              1.446              0.923
 Vibration    17          0.798              1.387              0.832
 Vibration    18          0.814              1.348              0.778
 Vibration    19          0.841              1.283              0.697
 Vibration    20          0.901              1.149              0.553
 Vibration    21          0.976              0.998              0.423

 Optimization completed.
    -- Stationary point found.
 Normal termination of Gaussian 16 at Wed Dec  9 17:06:19 2020.

 ----------------------------------------------------------------------
 # B3LYP/6-311++G(d,p) empiricaldispersion=gd3bj scf=xqc pop=npa geom=c
 heck
 ----------------------------------------------------------------------

 ---------------------------------------
 CID_130742396_JID_2163_Energie_neutraal
 ---------------------------------------
 Structure from the checkpoint file:  "JID_2163.chk"
 Charge =  0 Multiplicity = 1

 SCF Done:  E(RB3LYP) =  -523.881596499     A.U. after   14 cycles
 Normal termination of Gaussian 16 at Wed Dec  9 17:10:32 2020.

 ----------------------------------------------------------------------
 # B3LYP/6-311++G(d,p) empiricaldispersion=gd3bj scf=xqc pop=npa geom=c
 heck
 ----------------------------------------------------------------------

 -------------------------------------
 CID_130742396_JID_2163_Energie_kation
 -------------------------------------
 Structure from the checkpoint file:  "JID_2163.chk"
 Charge =  1 Multiplicity = 2

 SCF Done:  E(UB3LYP) =  -523.563499349     A.U. after   24 cycles
 Normal termination of Gaussian 16 at Wed Dec  9 17:20:34 2020.
 Gaussian 16:  ES64L-G16RevA.03 25-Dec-2016

 ----------------------------------------------------------------------
 # B3LYP/6-311++G(d,p) empiricaldispersion=gd3bj scf=xqc pop=npa geom=c
 heck
 ----------------------------------------------------------------------

 ------------------------------------
 CID_130742396_JID_2163_Energie_anion
 ------------------------------------
 Structure from the checkpoint file:  "JID_2163.chk"
 Charge = -1 Multiplicity = 2

                         Standard orientation:
 ---------------------------------------------------------------------
 Center     Atomic      Atomic             Coordinates (Angstroms)
 Number     Number       Type             X           Y           Z
 ---------------------------------------------------------------------
      1          6           0        2.971319    0.812072    1.012152
      2          6           0        1.565790    0.804376    0.388048
      3          6           0        1.284533    2.213031   -0.160796
      4          6           0        1.384768   -0.290994   -0.711512
      5          6           0        2.285432   -1.521847   -0.506969
      6          6           0       -0.053918   -0.822260   -0.995629
      7          6           0       -1.200631    0.191828   -1.171031
      8          6           0       -1.859842    0.658321    0.140648
      9          6           0       -2.224750   -0.574807    0.967854
     10          6           0       -1.010691   -1.485129    1.138520
     11          8           0       -0.453049   -1.877454   -0.109614
     12          7           0       -3.047400    1.498993   -0.048039
     13          1           0        3.743457    0.982428    0.251392
     14          1           0        3.204537   -0.124911    1.525129
     15          1           0        3.049587    1.622118    1.746378
     16          1           0        0.863133    0.607250    1.204892
     17          1           0        2.010818    2.462811   -0.944891
     18          1           0        0.287410    2.315589   -0.593477
     19          1           0        1.380423    2.965276    0.630639
     20          1           0        1.696385    0.178713   -1.658517
     21          1           0        2.079107   -2.012316    0.448704
     22          1           0        2.100239   -2.262150   -1.292720
     23          1           0        3.345157   -1.256723   -0.540783
     24          1           0        0.047485   -1.347541   -1.952824
     25          1           0       -1.985082   -0.307443   -1.757569
     26          1           0       -0.861209    1.046397   -1.768205
     27          1           0       -1.149531    1.258370    0.719786
     28          1           0       -2.620737   -0.271232    1.943417
     29          1           0       -3.016139   -1.134310    0.448657
     30          1           0       -1.291528   -2.420258    1.632913
     31          1           0       -0.255874   -0.995700    1.771685
     32          1           0       -2.796333    2.323244   -0.594407
     33          1           0       -3.727165    0.989533   -0.614721
 ---------------------------------------------------------------------

 SCF Done:  E(UB3LYP) =  -523.865714998     A.U. after   28 cycles

 The electronic state is 2-A.
 Alpha  occ. eigenvalues --  -19.01773 -14.18946 -10.11682 -10.11593 -10.09615
 Alpha  occ. eigenvalues --  -10.07402 -10.07193 -10.06567 -10.06065 -10.05646
 Alpha  occ. eigenvalues --  -10.05335 -10.05258  -0.93086  -0.78782  -0.71875
 Alpha  occ. eigenvalues --   -0.67281  -0.66476  -0.62858  -0.58166  -0.54242
 Alpha  occ. eigenvalues --   -0.54089  -0.51066  -0.46375  -0.44752  -0.39403
 Alpha  occ. eigenvalues --   -0.38683  -0.37095  -0.36732  -0.34990  -0.34297
 Alpha  occ. eigenvalues --   -0.32876  -0.32537  -0.30814  -0.30171  -0.28804
 Alpha  occ. eigenvalues --   -0.28522  -0.28439  -0.27057  -0.25912  -0.24854
 Alpha  occ. eigenvalues --   -0.24128  -0.23650  -0.23273  -0.21591  -0.20892
 Alpha  occ. eigenvalues --   -0.19054  -0.15458  -0.14141   0.04623
 Alpha virt. eigenvalues --    0.06644   0.07294   0.07409   0.08696   0.09190
 Alpha virt. eigenvalues --    0.09379   0.10040   0.10332   0.11592   0.11765
 Alpha virt. eigenvalues --    0.12149   0.12495   0.12779   0.13359   0.14121

  Beta  occ. eigenvalues --  -19.01769 -14.18907 -10.11674 -10.11583 -10.09611
  Beta  occ. eigenvalues --  -10.07396 -10.07182 -10.06552 -10.06038 -10.05618
  Beta  occ. eigenvalues --  -10.05304 -10.05241  -0.93073  -0.78726  -0.71851
  Beta  occ. eigenvalues --   -0.67249  -0.66430  -0.62824  -0.58108  -0.54195
  Beta  occ. eigenvalues --   -0.54041  -0.51015  -0.46321  -0.44716  -0.39354
  Beta  occ. eigenvalues --   -0.38639  -0.37059  -0.36701  -0.34967  -0.34265
  Beta  occ. eigenvalues --   -0.32838  -0.32499  -0.30769  -0.30139  -0.28764
  Beta  occ. eigenvalues --   -0.28491  -0.28400  -0.27030  -0.25877  -0.24816
  Beta  occ. eigenvalues --   -0.24096  -0.23620  -0.23235  -0.21557  -0.20866
  Beta  occ. eigenvalues --   -0.19026  -0.15441  -0.14102
  Beta virt. eigenvalues --    0.06747   0.07590   0.07857   0.07970   0.09317
  Beta virt. eigenvalues --    0.09704   0.09903   0.10373   0.10706   0.12142
  Beta virt. eigenvalues --    0.12150   0.12619   0.12766   0.13219   0.13769

 Mulliken charges and spin densities:
               1          2
     1  C    0.845145  -1.484417
     2  C   -1.902938   2.253542
     3  C    0.825388  -1.500450
     4  C    0.542614  -0.558685
     5  C   -0.057324  -0.590176
     6  C    0.497556  -0.494046
     7  C   -0.211930  -0.243802
     8  C    0.628966  -1.025264
     9  C    0.594590  -0.994673
    10  C   -0.293456   0.006838
    11  O   -0.092840   0.027980
    12  N   -0.436026   0.202232
    13  H   -0.085569   0.242619
    14  H   -0.162589   0.305717
    15  H   -0.160343   0.299695
    16  H    0.320860  -0.236168
    17  H   -0.376719   0.524163
    18  H    0.211970  -0.092996
    19  H   -0.121802   0.252551
    20  H   -0.069490   0.241675
    21  H    0.121967   0.060261
    22  H   -0.020160   0.166738
    23  H   -0.221988   0.357781
    24  H   -0.173243   0.400135
    25  H   -0.370030   0.533690
    26  H   -0.378774   0.561750
    27  H   -0.094945   0.331221
    28  H   -0.006969   0.167417
    29  H    0.025135   0.133653
    30  H   -0.077819   0.257584
    31  H   -0.042789   0.169162
    32  H   -0.179497   0.420638
    33  H   -0.076950   0.303635
 Sum of Mulliken charges =  -1.00000   1.00000

 Dipole moment (field-independent basis, Debye):
    X=              0.5068    Y=             -3.0975    Z=              2.5683  Tot=              4.0555
 Quadrupole moment (field-independent basis, Debye-Ang):
   XX=           -143.2477   YY=           -124.5201   ZZ=           -116.6138
   XY=              3.2713   XZ=             -3.4639   YZ=              0.7716

 Summary of Natural Population Analysis:

                                       Natural Population
                Natural  -----------------------------------------------
    Atom  No    Charge         Core      Valence    Rydberg      Total
 -----------------------------------------------------------------------
      C    1   -0.28424      0.99965     2.27860    0.00599     3.28424
      C    2   -0.11706      0.99959     2.10794    0.00953     3.11706
      C    3   -0.28298      0.99964     2.27704    0.00629     3.28298
      C    4   -0.11590      0.99956     2.10482    0.01152     3.11590
      C    5   -0.28565      0.99965     2.27895    0.00705     3.28565
      C    6    0.07343      0.99951     1.90999    0.01707     2.92657
      C    7   -0.21248      0.99959     2.20089    0.01200     3.21248
      C    8   -0.01879      0.99957     2.00757    0.01165     3.01879
      C    9   -0.20350      0.99960     2.19521    0.00868     3.20350
      C   10   -0.00663      0.99956     1.99579    0.01128     3.00663
      O   11   -0.30757      0.99989     3.29854    0.00914     4.30757
      N   12   -0.41852      0.99977     2.90866    0.01009     3.91852
      H   13    0.09740      0.00000     0.40157    0.00103     0.40260
      H   14    0.09966      0.00000     0.39938    0.00096     0.40034
      H   15    0.09902      0.00000     0.40012    0.00087     0.40098
      H   16    0.09091      0.00000     0.40615    0.00294     0.40909
      H   17    0.09793      0.00000     0.40075    0.00132     0.40207
      H   18    0.09997      0.00000     0.39836    0.00167     0.40003
      H   19    0.09772      0.00000     0.40128    0.00099     0.40228
      H   20    0.09735      0.00000     0.40072    0.00193     0.40265
      H   21    0.09996      0.00000     0.39906    0.00098     0.40004
      H   22    0.10017      0.00000     0.39889    0.00094     0.39983
      H   23    0.09883      0.00000     0.40031    0.00086     0.40117
      H   24    0.09196      0.00000     0.40651    0.00152     0.40804
      H   25    0.10036      0.00000     0.39779    0.00185     0.39964
      H   26    0.10569      0.00000     0.39226    0.00204     0.39431
      H   27    0.09147      0.00000     0.40566    0.00287     0.40853
      H   28    0.10392      0.00000     0.39505    0.00103     0.39608
      H   29    0.09540      0.00000     0.40331    0.00129     0.40460
      H   30    0.08847      0.00000     0.41043    0.00111     0.41153
      H   31    0.07573      0.00000     0.42251    0.00176     0.42427
      H   32    0.17646      0.00000     0.32112    0.00242     0.32354
      H   33    0.17149      0.00000     0.32596    0.00254     0.32851
 =======================================================================
   * Total *    0.00000     11.99558    35.85120    0.15322    48.00000

 Normal termination of Gaussian 16 at Wed Dec  9 17:32:02 2020.
