 Gaussian 16, Revision A.03,

 -----------------------------------------------------------
 # opt freq B3LYP/6-31G(d) empiricaldispersion=gd3bj scf=xqc
 -----------------------------------------------------------

 -------------------------------
 CID_136935020_JID_2949_neutraal
 -------------------------------
 Symbolic Z-matrix:
 Charge =  0 Multiplicity = 1

 SCF Done:  E(RB3LYP) =  -621.241033647     A.U. after   15 cycles
 SCF Done:  E(RB3LYP) =  -621.250402897     A.U. after   14 cycles
 SCF Done:  E(RB3LYP) =  -621.253315487     A.U. after   14 cycles
 SCF Done:  E(RB3LYP) =  -621.254972210     A.U. after   14 cycles
 SCF Done:  E(RB3LYP) =  -621.256609851     A.U. after   14 cycles
 SCF Done:  E(RB3LYP) =  -621.257565975     A.U. after   13 cycles
 SCF Done:  E(RB3LYP) =  -621.258145305     A.U. after   13 cycles
 SCF Done:  E(RB3LYP) =  -621.258230359     A.U. after   12 cycles
 SCF Done:  E(RB3LYP) =  -621.258284602     A.U. after   11 cycles
 SCF Done:  E(RB3LYP) =  -621.258303482     A.U. after   12 cycles
 SCF Done:  E(RB3LYP) =  -621.258322556     A.U. after    9 cycles
 SCF Done:  E(RB3LYP) =  -621.258322687     A.U. after    8 cycles
 SCF Done:  E(RB3LYP) =  -621.258322765     A.U. after    8 cycles
 SCF Done:  E(RB3LYP) =  -621.258322813     A.U. after    8 cycles
 SCF Done:  E(RB3LYP) =  -621.258322844     A.U. after    7 cycles
 SCF Done:  E(RB3LYP) =  -621.258322864     A.U. after    7 cycles
 Optimization completed.
    -- Stationary point found.
 Normal termination of Gaussian 16 at Wed Dec  9 18:23:15 2020.

 --------------------------------------------------------------------
 #N Geom=AllCheck Guess=TCheck SCRF=Check GenChk RB3LYP/6-31G(d) Freq
 --------------------------------------------------------------------

 Structure from the checkpoint file:  "JID_2949.chk"
 -------------------------------
 CID_136935020_JID_2949_neutraal
 -------------------------------
 Charge =  0 Multiplicity = 1

 SCF Done:  E(RB3LYP) =  -621.258322864     A.U. after    1 cycles

  Exact polarizability: 179.350  -0.401  94.154  -3.325   3.535  54.825
 Approx polarizability: 233.949   4.346 161.756  -7.953  10.014  81.211

                      1                      2                      3
                      A                      A                      A
 Frequencies --     32.2901                42.9156                67.8291
 Red. masses --      6.3513                 3.8034                 7.6348
 Frc consts  --      0.0039                 0.0041                 0.0207
 IR Inten    --      0.0846                 0.5061                 0.2023

                      4                      5                      6
                      A                      A                      A
 Frequencies --     78.9724               128.9772               164.4902
 Red. masses --      4.4187                 3.6608                 7.6162
 Frc consts  --      0.0162                 0.0359                 0.1214
 IR Inten    --      1.9229                 1.8341                 0.0656

                      7                      8                      9
                      A                      A                      A
 Frequencies --    201.1068               235.3875               261.4814
 Red. masses --      4.0634                 1.0497                 1.8689
 Frc consts  --      0.0968                 0.0343                 0.0753
 IR Inten    --      5.0781                 0.3352                 0.2198

                     10                     11                     12
                      A                      A                      A
 Frequencies --    264.6582               301.6537               349.8784
 Red. masses --      1.5913                 4.2634                 4.1423
 Frc consts  --      0.0657                 0.2286                 0.2988
 IR Inten    --      0.2408                 1.7586                 2.3811

                     13                     14                     15
                      A                      A                      A
 Frequencies --    379.2976               382.2040               438.6464
 Red. masses --      2.6853                 1.1821                 3.5796
 Frc consts  --      0.2276                 0.1017                 0.4058
 IR Inten    --      0.6463               204.5417                 7.7419

                     16                     17                     18
                      A                      A                      A
 Frequencies --    469.3837               486.0524               499.8227
 Red. masses --      3.1956                 1.4011                 2.7010
 Frc consts  --      0.4148                 0.1950                 0.3976
 IR Inten    --     19.0085                92.0575                24.1816

                     19                     20                     21
                      A                      A                      A
 Frequencies --    627.0127               700.7894               722.3105
 Red. masses --      3.3021                 2.3182                 1.5857
 Frc consts  --      0.7649                 0.6708                 0.4874
 IR Inten    --      1.6243                 0.2037                19.9260

                     22                     23                     24
                      A                      A                      A
 Frequencies --    725.8064               783.4353               789.8816
 Red. masses --      4.8241                11.3936                 6.4617
 Frc consts  --      1.4973                 4.1202                 2.3753
 IR Inten    --      7.4400                18.0227                 0.4501

                     25                     26                     27
                      A                      A                      A
 Frequencies --    845.0576               938.1666               948.8371
 Red. masses --      2.9070                 1.2712                 1.4897
 Frc consts  --      1.2231                 0.6592                 0.7902
 IR Inten    --      4.4716                 6.9475                10.5338

                     28                     29                     30
                      A                      A                      A
 Frequencies --    956.0971               982.7835               991.6473
 Red. masses --      4.1200                 1.4869                 2.0284
 Frc consts  --      2.2190                 0.8461                 1.1752
 IR Inten    --     59.8755                 0.3859                20.3056

                     31                     32                     33
                      A                      A                      A
 Frequencies --   1061.9476              1108.6612              1128.4335
 Red. masses --      3.4197                 1.8897                 1.9759
 Frc consts  --      2.2722                 1.3685                 1.4824
 IR Inten    --      7.3242               184.3193                61.8212

                     34                     35                     36
                      A                      A                      A
 Frequencies --   1153.5210              1201.5822              1221.5155
 Red. masses --      2.1605                 3.3205                 1.7200
 Frc consts  --      1.6938                 2.8246                 1.5121
 IR Inten    --      7.0734               111.5012                 2.9214

                     37                     38                     39
                      A                      A                      A
 Frequencies --   1309.8410              1335.7497              1377.1536
 Red. masses --      5.8705                 1.3188                 1.4675
 Frc consts  --      5.9342                 1.3864                 1.6398
 IR Inten    --    498.8619                 5.1034                23.1038

                     40                     41                     42
                      A                      A                      A
 Frequencies --   1380.4721              1428.6519              1438.2855
 Red. masses --      1.5862                 1.2493                 1.6602
 Frc consts  --      1.7810                 1.5024                 2.0234
 IR Inten    --     69.8154                15.1509               299.9693

                     43                     44                     45
                      A                      A                      A
 Frequencies --   1452.1432              1502.5620              1516.8790
 Red. masses --      1.3617                 1.6567                 1.0431
 Frc consts  --      1.6918                 2.2037                 1.4141
 IR Inten    --    112.2711                65.5851                 2.3808

                     46                     47                     48
                      A                      A                      A
 Frequencies --   1521.0554              1532.6340              1540.3773
 Red. masses --      1.0554                 1.0455                 1.0730
 Frc consts  --      1.4386                 1.4469                 1.5001
 IR Inten    --      1.7420                 7.1681                 7.6703

                     49                     50                     51
                      A                      A                      A
 Frequencies --   1593.5292              1642.6784              1684.5305
 Red. masses --      2.9194                 8.8520                 3.5680
 Frc consts  --      4.3678                14.0733                 5.9654
 IR Inten    --    648.5735               274.1434               453.1162

                     52                     53                     54
                      A                      A                      A
 Frequencies --   1732.7499              3001.3538              3048.1798
 Red. masses --      8.2885                 1.0820                 1.0553
 Frc consts  --     14.6622                 5.7424                 5.7773
 IR Inten    --      1.7905                18.1201                24.6665

                     55                     56                     57
                      A                      A                      A
 Frequencies --   3052.4919              3061.1824              3118.2452
 Red. masses --      1.0630                 1.0371                 1.1028
 Frc consts  --      5.8357                 5.7261                 6.3179
 IR Inten    --     53.7298                 7.5789                28.2506

                     58                     59                     60
                      A                      A                      A
 Frequencies --   3125.4885              3130.6179              3136.0495
 Red. masses --      1.1033                 1.1025                 1.1028
 Frc consts  --      6.3498                 6.3664                 6.3904
 IR Inten    --      3.2813                55.2709                26.9741

                     61                     62                     63
                      A                      A                      A
 Frequencies --   3532.7956              3543.9334              3690.0085
 Red. masses --      1.0749                 1.0467                 1.1056
 Frc consts  --      7.9044                 7.7456                 8.8696
 IR Inten    --     39.8077                77.5703               181.4579

 - Thermochemistry -
 -------------------
 Temperature   298.150 Kelvin.  Pressure   1.00000 Atm.
 Atom     1 has atomic number  6 and mass  12.00000

 Molecular mass:   173.09127 amu.
 Principal axes and moments of inertia in atomic units:
                           1         2         3
     Eigenvalues --   562.258115644.034376062.35052
           X            0.99999  -0.00204   0.00376
           Y            0.00207   0.99997  -0.00744
           Z           -0.00374   0.00745   0.99997
 This molecule is an asymmetric top.
 Rotational symmetry number  1.
 Warning -- assumption of classical behavior for rotation
           may cause significant error
 Rotational temperatures (Kelvin)      0.15405     0.01535     0.01429
 Rotational constants (GHZ):           3.20981     0.31976     0.29770
 Zero-point vibrational energy     485098.7 (Joules/Mol)
                                  115.94138 (Kcal/Mol)
 Warning -- explicit consideration of  18 degrees of freedom as
           vibrations may cause significant error
 Vibrational temperatures:     46.46    61.75    97.59   113.62   185.57
          (Kelvin)            236.66   289.35   338.67   376.21   380.78
                              434.01   503.40   545.72   549.91   631.11
                              675.34   699.32   719.13   902.13  1008.28
                             1039.24  1044.27  1127.19  1136.46  1215.85
                             1349.81  1365.16  1375.61  1414.01  1426.76
                             1527.91  1595.12  1623.56  1659.66  1728.81
                             1757.49  1884.57  1921.85  1981.42  1986.19
                             2055.51  2069.37  2089.31  2161.85  2182.45
                             2188.46  2205.12  2216.26  2292.73  2363.45
                             2423.66  2493.04  4318.28  4385.65  4391.86
                             4404.36  4486.46  4496.88  4504.26  4512.08
                             5082.90  5098.93  5309.10

 Zero-point correction=                           0.184764 (Hartree/Particle)
 Thermal correction to Energy=                    0.197736
 Thermal correction to Enthalpy=                  0.198680
 Thermal correction to Gibbs Free Energy=         0.144115
 Sum of electronic and zero-point Energies=           -621.073559
 Sum of electronic and thermal Energies=              -621.060587
 Sum of electronic and thermal Enthalpies=            -621.059642
 Sum of electronic and thermal Free Energies=         -621.114208

                     E (Thermal)             CV                S
                      KCal/Mol        Cal/Mol-Kelvin    Cal/Mol-Kelvin
 Total                  124.081             46.444            114.843
 Electronic               0.000              0.000              0.000
 Translational            0.889              2.981             41.353
 Rotational               0.889              2.981             31.332
 Vibrational            122.304             40.482             42.158
 Vibration     1          0.594              1.983              5.684
 Vibration     2          0.595              1.980              5.120
 Vibration     3          0.598              1.970              4.215
 Vibration     4          0.600              1.963              3.916
 Vibration     5          0.611              1.924              2.961
 Vibration     6          0.623              1.886              2.498
 Vibration     7          0.638              1.838              2.123
 Vibration     8          0.655              1.787              1.837
 Vibration     9          0.669              1.743              1.652
 Vibration    10          0.671              1.738              1.631
 Vibration    11          0.694              1.671              1.408
 Vibration    12          0.727              1.575              1.167
 Vibration    13          0.749              1.514              1.042
 Vibration    14          0.752              1.508              1.030
 Vibration    15          0.799              1.386              0.831
 Vibration    16          0.826              1.318              0.739
 Vibration    17          0.842              1.281              0.694
 Vibration    18          0.855              1.250              0.659

                           ! Non-Optimized Parameters !
 Normal termination of Gaussian 16 at Wed Dec  9 18:27:48 2020.

 ----------------------------------------------------------------------
 # B3LYP/6-311++G(d,p) empiricaldispersion=gd3bj scf=xqc pop=npa geom=c
 heck
 ----------------------------------------------------------------------

 ---------------------------------------
 CID_136935020_JID_2949_Energie_neutraal
 ---------------------------------------
 Structure from the checkpoint file:  "JID_2949.chk"
 Charge =  0 Multiplicity = 1

 SCF Done:  E(RB3LYP) =  -621.451196727     A.U. after   15 cycles
 Normal termination of Gaussian 16 at Wed Dec  9 18:30:09 2020.

 ----------------------------------------------------------------------
 # B3LYP/6-311++G(d,p) empiricaldispersion=gd3bj scf=xqc pop=npa geom=c
 heck
 ----------------------------------------------------------------------

 -------------------------------------
 CID_136935020_JID_2949_Energie_kation
 -------------------------------------
 Structure from the checkpoint file:  "JID_2949.chk"
 Charge =  1 Multiplicity = 2

 SCF Done:  E(UB3LYP) =  -621.121711383     A.U. after   30 cycles
 Normal termination of Gaussian 16 at Wed Dec  9 18:35:47 2020.
 Gaussian 16:  ES64L-G16RevA.03 25-Dec-2016

 ----------------------------------------------------------------------
 # B3LYP/6-311++G(d,p) empiricaldispersion=gd3bj scf=xqc pop=npa geom=c
 heck
 ----------------------------------------------------------------------

 ------------------------------------
 CID_136935020_JID_2949_Energie_anion
 ------------------------------------
 Structure from the checkpoint file:  "JID_2949.chk"
 Charge = -1 Multiplicity = 2

                         Standard orientation:
 ---------------------------------------------------------------------
 Center     Atomic      Atomic             Coordinates (Angstroms)
 Number     Number       Type             X           Y           Z
 ---------------------------------------------------------------------
      1          6           0        3.577969    1.393531   -0.178167
      2          6           0        3.600791   -0.128323   -0.335523
      3          6           0        4.452865   -0.802957    0.757406
      4          6           0        2.226698   -0.737620   -0.349109
      5          7           0        1.171100   -0.033376   -0.194733
      6          7           0       -0.029191   -0.670113   -0.204680
      7          6           0       -1.192460    0.037281   -0.045789
      8          7           0       -2.267137   -0.746112   -0.080376
      9          7           0       -3.504792   -0.164509    0.067396
     10          8           0       -3.645116    1.070621    0.231981
     11          8           0       -4.450133   -0.941379    0.025903
     12          7           0       -1.080515    1.357671    0.114187
     13          1           0        3.132757    1.677621    0.781214
     14          1           0        2.993690    1.867727   -0.972235
     15          1           0        4.597591    1.790382   -0.213342
     16          1           0        4.061259   -0.374405   -1.305869
     17          1           0        4.051560   -0.578186    1.752045
     18          1           0        4.474794   -1.892220    0.638367
     19          1           0        5.484441   -0.438440    0.714820
     20          1           0        2.164689   -1.826880   -0.480974
     21          1           0       -0.117828   -1.676007   -0.325116
     22          1           0       -0.157374    1.767295    0.111226
     23          1           0       -1.945025    1.872770    0.231333
 ---------------------------------------------------------------------

 SCF Done:  E(UB3LYP) =  -621.466265539     A.U. after   27 cycles

 The electronic state is 2-A.
 Alpha  occ. eigenvalues --  -18.97110 -18.96581 -14.37322 -14.25687 -14.22674
 Alpha  occ. eigenvalues --  -14.20885 -14.18901 -10.15573 -10.08182 -10.07900
 Alpha  occ. eigenvalues --  -10.06404 -10.06176  -1.05892  -0.92190  -0.87605
 Alpha  occ. eigenvalues --   -0.83322  -0.76898  -0.73451  -0.68308  -0.59025
 Alpha  occ. eigenvalues --   -0.57233  -0.52097  -0.50137  -0.45440  -0.43699
 Alpha  occ. eigenvalues --   -0.40270  -0.39456  -0.38026  -0.37336  -0.36225
 Alpha  occ. eigenvalues --   -0.34440  -0.33533  -0.32528  -0.30195  -0.28902
 Alpha  occ. eigenvalues --   -0.25778  -0.25145  -0.24490  -0.23363  -0.19603
 Alpha  occ. eigenvalues --   -0.18038  -0.15615  -0.14999  -0.14314  -0.11392
 Alpha  occ. eigenvalues --   -0.11237   0.03563
 Alpha virt. eigenvalues --    0.06166   0.08103   0.08674   0.08921   0.09871
 Alpha virt. eigenvalues --    0.10553   0.11263   0.11570   0.12458   0.13528
 Alpha virt. eigenvalues --    0.14554   0.15650   0.15988   0.16450   0.17835

  Beta  occ. eigenvalues --  -18.96886 -18.96227 -14.36813 -14.25780 -14.22491
  Beta  occ. eigenvalues --  -14.20811 -14.19055 -10.15282 -10.08209 -10.07592
  Beta  occ. eigenvalues --  -10.06338 -10.06164  -1.05172  -0.91977  -0.87072
  Beta  occ. eigenvalues --   -0.83030  -0.76787  -0.73246  -0.68191  -0.58958
  Beta  occ. eigenvalues --   -0.56671  -0.51788  -0.49992  -0.45184  -0.43544
  Beta  occ. eigenvalues --   -0.39941  -0.39206  -0.37114  -0.36288  -0.35938
  Beta  occ. eigenvalues --   -0.34211  -0.33190  -0.31727  -0.30074  -0.28837
  Beta  occ. eigenvalues --   -0.25412  -0.24960  -0.24326  -0.22646  -0.19610
  Beta  occ. eigenvalues --   -0.17802  -0.14824  -0.14666  -0.12866  -0.11144
  Beta  occ. eigenvalues --   -0.10775
  Beta virt. eigenvalues --    0.06399   0.08144   0.08682   0.09043   0.09558
  Beta virt. eigenvalues --    0.10567   0.11386   0.11600   0.12152   0.12465
  Beta virt. eigenvalues --    0.13626   0.14552   0.15783   0.16017   0.16630

 Mulliken charges and spin densities:
               1          2
     1  C   -0.312210  -0.326829
     2  C   -0.443247   0.719679
     3  C    0.298748  -0.787457
     4  C   -0.075338  -0.198452
     5  N    0.267788   0.122415
     6  N   -0.449611  -0.096256
     7  C    0.160190   0.158097
     8  N   -0.042651  -0.090244
     9  N   -0.333325   0.166397
    10  O   -0.211463   0.086913
    11  O   -0.168812   0.133827
    12  N   -0.546190   0.042595
    13  H    0.157668  -0.010845
    14  H    0.089781   0.053712
    15  H   -0.023217   0.164341
    16  H   -0.003956   0.157884
    17  H    0.060716   0.071685
    18  H   -0.060510   0.183487
    19  H   -0.337992   0.480604
    20  H    0.056815  -0.030577
    21  H    0.288246   0.001537
    22  H    0.308478  -0.001451
    23  H    0.320090  -0.001063
 Sum of Mulliken charges =  -1.00000   1.00000

 Dipole moment (field-independent basis, Debye):
    X=              5.6616    Y=              1.3484    Z=             -0.5934  Tot=              5.8501
 Quadrupole moment (field-independent basis, Debye-Ang):
   XX=           -178.3900   YY=            -82.8415   ZZ=            -81.9131
   XY=             -3.2961   XZ=             -0.7960   YZ=              1.8606

 Summary of Natural Population Analysis:

                                       Natural Population
                Natural  -----------------------------------------------
    Atom  No    Charge         Core      Valence    Rydberg      Total
 -----------------------------------------------------------------------
      C    1   -0.28526      0.99965     2.27830    0.00730     3.28526
      C    2   -0.13907      0.99962     2.12876    0.01070     3.13907
      C    3   -0.27790      0.99965     2.27268    0.00557     3.27790
      C    4    0.09621      0.99964     1.88948    0.01468     2.90379
      N    5   -0.13465      0.99962     2.62237    0.01266     3.63465
      N    6   -0.21958      0.99966     2.70926    0.01066     3.71958
      C    7    0.34887      0.99968     1.63477    0.01668     2.65113
      N    8   -0.26229      0.99965     2.75227    0.01037     3.76229
      N    9    0.35091      0.99981     2.12265    0.02664     3.14909
      O   10   -0.25757      0.99989     3.25022    0.00746     4.25757
      O   11   -0.18816      0.99989     3.17979    0.00848     4.18816
      N   12   -0.39044      0.99968     2.88394    0.00682     3.89044
      H   13    0.09958      0.00000     0.39944    0.00098     0.40042
      H   14    0.10252      0.00000     0.39658    0.00090     0.39748
      H   15    0.09514      0.00000     0.40410    0.00076     0.40486
      H   16    0.09911      0.00000     0.39952    0.00137     0.40089
      H   17    0.09708      0.00000     0.40196    0.00096     0.40292
      H   18    0.09714      0.00000     0.40194    0.00092     0.40286
      H   19    0.09867      0.00000     0.39945    0.00188     0.40133
      H   20    0.06430      0.00000     0.43389    0.00181     0.43570
      H   21    0.18577      0.00000     0.31141    0.00281     0.31423
      H   22    0.20302      0.00000     0.29518    0.00179     0.29698
      H   23    0.21661      0.00000     0.28161    0.00178     0.28339
 =======================================================================
   * Total *    0.00000     11.99644    33.84958    0.15399    46.00000

 Normal termination of Gaussian 16 at Wed Dec  9 18:39:56 2020.
