 Gaussian 16, Revision A.03,

 -----------------------------------------------------------
 # opt freq B3LYP/6-31G(d) empiricaldispersion=gd3bj scf=xqc
 -----------------------------------------------------------

 ----------------------------
 CID_15670034_JID_86_neutraal
 ----------------------------
 Symbolic Z-matrix:
 Charge =  0 Multiplicity = 1

 SCF Done:  E(RB3LYP) =  -781.698047179     A.U. after   15 cycles
 SCF Done:  E(RB3LYP) =  -781.702166321     A.U. after   12 cycles
 SCF Done:  E(RB3LYP) =  -781.702740308     A.U. after   12 cycles
 SCF Done:  E(RB3LYP) =  -781.702834880     A.U. after   11 cycles
 SCF Done:  E(RB3LYP) =  -781.702855076     A.U. after   10 cycles
 SCF Done:  E(RB3LYP) =  -781.702867579     A.U. after    9 cycles
 SCF Done:  E(RB3LYP) =  -781.702877932     A.U. after    9 cycles
 SCF Done:  E(RB3LYP) =  -781.702898496     A.U. after   10 cycles
 SCF Done:  E(RB3LYP) =  -781.702919745     A.U. after   10 cycles
 SCF Done:  E(RB3LYP) =  -781.702953380     A.U. after   11 cycles
 SCF Done:  E(RB3LYP) =  -781.703525424     A.U. after   11 cycles
 SCF Done:  E(RB3LYP) =  -781.703521010     A.U. after   10 cycles
 SCF Done:  E(RB3LYP) =  -781.703538262     A.U. after   10 cycles
 SCF Done:  E(RB3LYP) =  -781.703538918     A.U. after    8 cycles
 SCF Done:  E(RB3LYP) =  -781.703539225     A.U. after    8 cycles
 SCF Done:  E(RB3LYP) =  -781.703539254     A.U. after    7 cycles
 Optimization completed.
    -- Stationary point found.
 Normal termination of Gaussian 16 at Tue Dec  8 10:21:09 2020.

 --------------------------------------------------------------------
 #N Geom=AllCheck Guess=TCheck SCRF=Check GenChk RB3LYP/6-31G(d) Freq
 --------------------------------------------------------------------

 Structure from the checkpoint file:  "JID_86.chk"
 ----------------------------
 CID_15670034_JID_86_neutraal
 ----------------------------
 Charge =  0 Multiplicity = 1

 SCF Done:  E(RB3LYP) =  -781.703539254     A.U. after    1 cycles

  Exact polarizability: 124.226  -0.378 107.281   7.710   3.025  72.324
 Approx polarizability: 171.956   3.474 185.402  16.625  10.219 109.077

                      1                      2                      3
                      A                      A                      A
 Frequencies --     53.2009                75.3650                80.0606
 Red. masses --      2.5659                 1.0505                 1.2305
 Frc consts  --      0.0043                 0.0035                 0.0046
 IR Inten    --      0.4164                 0.3258                 1.7623

                      4                      5                      6
                      A                      A                      A
 Frequencies --     87.5064               140.8542               197.0801
 Red. masses --      4.4065                 2.6590                 2.8775
 Frc consts  --      0.0199                 0.0311                 0.0658
 IR Inten    --      0.2593                 1.5415                 0.8817

                      7                      8                      9
                      A                      A                      A
 Frequencies --    206.4896               267.2496               282.5849
 Red. masses --      3.3468                 2.4058                 2.6062
 Frc consts  --      0.0841                 0.1012                 0.1226
 IR Inten    --      7.3475                 9.4796                 2.9751

                     10                     11                     12
                      A                      A                      A
 Frequencies --    301.8895               367.0596               417.4067
 Red. masses --      1.2157                 3.4470                 2.7090
 Frc consts  --      0.0653                 0.2736                 0.2781
 IR Inten    --     76.6637                 7.4372                 1.4816

                     13                     14                     15
                      A                      A                      A
 Frequencies --    461.6080               514.3002               572.7405
 Red. masses --      3.0396                 5.1003                 5.3760
 Frc consts  --      0.3816                 0.7948                 1.0390
 IR Inten    --      7.7255                 0.6974                 5.1690

                     16                     17                     18
                      A                      A                      A
 Frequencies --    593.0352               657.2293               662.4267
 Red. masses --      4.1338                 4.4855                 5.7398
 Frc consts  --      0.8566                 1.1416                 1.4840
 IR Inten    --      2.0348                12.4462                 5.4412

                     19                     20                     21
                      A                      A                      A
 Frequencies --    679.5688               850.9800               899.6786
 Red. masses --      3.8104                 2.3521                 1.3147
 Frc consts  --      1.0368                 1.0036                 0.6270
 IR Inten    --      1.2377                27.8528                77.5012

                     22                     23                     24
                      A                      A                      A
 Frequencies --    921.3616               936.7710               997.1678
 Red. masses --      1.8453                 2.7324                 1.7219
 Frc consts  --      0.9230                 1.4127                 1.0087
 IR Inten    --      7.6944                 2.3689                 7.1270

                     25                     26                     27
                      A                      A                      A
 Frequencies --   1049.1274              1063.4847              1079.6146
 Red. masses --      1.8813                 1.4074                 1.4846
 Frc consts  --      1.2200                 0.9379                 1.0195
 IR Inten    --      1.4566                 1.2532                 5.9565

                     28                     29                     30
                      A                      A                      A
 Frequencies --   1098.3691              1127.7067              1171.9567
 Red. masses --      2.4217                 2.0002                 1.6343
 Frc consts  --      1.7214                 1.4987                 1.3226
 IR Inten    --     11.0742                11.9003                 3.5330

                     31                     32                     33
                      A                      A                      A
 Frequencies --   1195.9293              1204.5783              1264.7851
 Red. masses --      2.3053                 2.7877                 1.3116
 Frc consts  --      1.9426                 2.3832                 1.2362
 IR Inten    --     24.7821                44.1213                 4.8564

                     34                     35                     36
                      A                      A                      A
 Frequencies --   1340.2474              1359.0163              1377.6443
 Red. masses --      3.9547                 1.1994                 1.5675
 Frc consts  --      4.1853                 1.3051                 1.7528
 IR Inten    --      4.5980                 4.0802                 4.6310

                     37                     38                     39
                      A                      A                      A
 Frequencies --   1432.8633              1438.4149              1443.3675
 Red. masses --      1.2649                 1.3873                 1.2931
 Frc consts  --      1.5301                 1.6912                 1.5872
 IR Inten    --      0.8261                14.6771                 2.0443

                     40                     41                     42
                      A                      A                      A
 Frequencies --   1502.6198              1505.8847              1507.9604
 Red. masses --      1.0897                 1.1605                 1.0440
 Frc consts  --      1.4496                 1.5505                 1.3988
 IR Inten    --     10.7135                14.2055                 8.1407

                     43                     44                     45
                      A                      A                      A
 Frequencies --   1511.8811              1526.7179              1539.5711
 Red. masses --      1.1078                 1.0726                 1.0902
 Frc consts  --      1.4920                 1.4730                 1.5226
 IR Inten    --      5.2648                 3.2837                 1.8635

                     46                     47                     48
                      A                      A                      A
 Frequencies --   1573.9324              1611.5973              1691.1996
 Red. masses --      4.8971                 5.9135                 1.0901
 Frc consts  --      7.1476                 9.0491                 1.8370
 IR Inten    --     12.4788                29.2454                35.5749

                     49                     50                     51
                      A                      A                      A
 Frequencies --   2959.4948              3048.4265              3054.3893
 Red. masses --      1.0730                 1.0443                 1.0372
 Frc consts  --      5.5373                 5.7177                 5.7011
 IR Inten    --     68.1528                29.1075                22.3161

                     52                     53                     54
                      A                      A                      A
 Frequencies --   3058.5867              3076.5768              3108.4366
 Red. masses --      1.0652                 1.0874                 1.1015
 Frc consts  --      5.8712                 6.0641                 6.2710
 IR Inten    --     13.2166                65.7600                11.9386

                     55                     56                     57
                      A                      A                      A
 Frequencies --   3110.4591              3113.8511              3157.1267
 Red. masses --      1.0993                 1.0943                 1.1007
 Frc consts  --      6.2661                 6.2518                 6.4640
 IR Inten    --     13.6444                14.8244                 4.5355

                     58                     59                     60
                      A                      A                      A
 Frequencies --   3157.3675              3468.4564              3553.2623
 Red. masses --      1.1013                 1.0499                 1.0920
 Frc consts  --      6.4688                 7.4419                 8.1235
 IR Inten    --      6.5040                 1.9004                 0.0158

 - Thermochemistry -
 -------------------
 Temperature   298.150 Kelvin.  Pressure   1.00000 Atm.
 Atom     1 has atomic number  6 and mass  12.00000

 Molecular mass:   156.07212 amu.
 Principal axes and moments of inertia in atomic units:
                           1         2         3
     Eigenvalues --   959.825592234.317952764.83935
           X            0.99997   0.00228   0.00677
           Y           -0.00216   0.99985  -0.01699
           Z           -0.00681   0.01697   0.99983
 This molecule is an asymmetric top.
 Rotational symmetry number  1.
 Warning -- assumption of classical behavior for rotation
           may cause significant error
 Rotational temperatures (Kelvin)      0.09024     0.03877     0.03133
 Rotational constants (GHZ):           1.88028     0.80774     0.65275
 Zero-point vibrational energy     488725.5 (Joules/Mol)
                                  116.80819 (Kcal/Mol)
 Warning -- explicit consideration of  16 degrees of freedom as
           vibrations may cause significant error
 Vibrational temperatures:     76.54   108.43   115.19   125.90   202.66
          (Kelvin)            283.55   297.09   384.51   406.58   434.35
                              528.12   600.56   664.15   739.96   824.05
                              853.25   945.61   953.08   977.75  1224.37
                             1294.44  1325.63  1347.80  1434.70  1509.46
                             1530.12  1553.32  1580.31  1622.52  1686.18
                             1720.68  1733.12  1819.74  1928.32  1955.32
                             1982.12  2061.57  2069.56  2076.68  2161.93
                             2166.63  2169.62  2175.26  2196.61  2215.10
                             2264.54  2318.73  2433.26  4258.05  4386.01
                             4394.58  4400.62  4426.51  4472.35  4475.26
                             4480.14  4542.40  4542.75  4990.34  5112.35

 Zero-point correction=                           0.186146 (Hartree/Particle)
 Thermal correction to Energy=                    0.197578
 Thermal correction to Enthalpy=                  0.198522
 Thermal correction to Gibbs Free Energy=         0.148248
 Sum of electronic and zero-point Energies=           -781.517394
 Sum of electronic and thermal Energies=              -781.505962
 Sum of electronic and thermal Enthalpies=            -781.505018
 Sum of electronic and thermal Free Energies=         -781.555291

                     E (Thermal)             CV                S
                      KCal/Mol        Cal/Mol-Kelvin    Cal/Mol-Kelvin
 Total                  123.982             40.735            105.810
 Electronic               0.000              0.000              0.000
 Translational            0.889              2.981             41.045
 Rotational               0.889              2.981             30.162
 Vibrational            122.204             34.773             34.603
 Vibration     1          0.596              1.976              4.695
 Vibration     2          0.599              1.965              4.008
 Vibration     3          0.600              1.963              3.889
 Vibration     4          0.601              1.958              3.715
 Vibration     5          0.615              1.912              2.792
 Vibration     6          0.636              1.844              2.160
 Vibration     7          0.641              1.831              2.074
 Vibration     8          0.672              1.733              1.614
 Vibration     9          0.682              1.706              1.518
 Vibration    10          0.694              1.670              1.406
 Vibration    11          0.740              1.540              1.092
 Vibration    12          0.780              1.432              0.901
 Vibration    13          0.819              1.335              0.761
 Vibration    14          0.869              1.218              0.623
 Vibration    15          0.929              1.090              0.499
 Vibration    16          0.951              1.047              0.462

 Optimization completed.
    -- Stationary point found.
 Normal termination of Gaussian 16 at Tue Dec  8 10:24:48 2020.

 ----------------------------------------------------------------------
 # B3LYP/6-311++G(d,p) empiricaldispersion=gd3bj scf=xqc pop=npa geom=c
 heck
 ----------------------------------------------------------------------

 ------------------------------------
 CID_15670034_JID_86_Energie_neutraal
 ------------------------------------
 Structure from the checkpoint file:  "JID_86.chk"
 Charge =  0 Multiplicity = 1

 SCF Done:  E(RB3LYP) =  -781.842313913     A.U. after   15 cycles
 Normal termination of Gaussian 16 at Tue Dec  8 10:26:14 2020.

 ----------------------------------------------------------------------
 # B3LYP/6-311++G(d,p) empiricaldispersion=gd3bj scf=xqc pop=npa geom=c
 heck
 ----------------------------------------------------------------------

 ----------------------------------
 CID_15670034_JID_86_Energie_kation
 ----------------------------------
 Structure from the checkpoint file:  "JID_86.chk"
 Charge =  1 Multiplicity = 2

 SCF Done:  E(UB3LYP) =  -781.546245660     A.U. after   23 cycles
 Normal termination of Gaussian 16 at Tue Dec  8 10:29:06 2020.
 Gaussian 16:  ES64L-G16RevA.03 25-Dec-2016

 ----------------------------------------------------------------------
 # B3LYP/6-311++G(d,p) empiricaldispersion=gd3bj scf=xqc pop=npa geom=c
 heck
 ----------------------------------------------------------------------

 ---------------------------------
 CID_15670034_JID_86_Energie_anion
 ---------------------------------
 Structure from the checkpoint file:  "JID_86.chk"
 Charge = -1 Multiplicity = 2

                         Standard orientation:
 ---------------------------------------------------------------------
 Center     Atomic      Atomic             Coordinates (Angstroms)
 Number     Number       Type             X           Y           Z
 ---------------------------------------------------------------------
      1          6           0       -0.652171    2.404414   -0.335120
      2          6           0        0.118463    1.117841   -0.247399
      3          6           0       -0.363048   -0.134017   -0.536045
      4         16           0        0.908549   -1.313975   -0.286605
      5          6           0        1.997243   -0.007504    0.175656
      6          7           0        1.447777    1.169507    0.144150
      7          6           0        3.419205   -0.267179    0.564229
      8          6           0       -1.744398   -0.551998   -0.949817
      9          6           0       -2.607407   -1.021461    0.233101
     10          7           0       -2.794824    0.078255    1.181004
     11          1           0       -1.728044    2.232506   -0.261091
     12          1           0       -0.350535    3.068687    0.480492
     13          1           0       -0.440814    2.929276   -1.275707
     14          1           0        3.890618    0.687781    0.807179
     15          1           0        3.484781   -0.926195    1.437640
     16          1           0        3.978901   -0.740162   -0.250864
     17          1           0       -2.243918    0.296797   -1.427343
     18          1           0       -1.689507   -1.355526   -1.693952
     19          1           0       -3.592882   -1.315910   -0.146973
     20          1           0       -2.146118   -1.924353    0.672444
     21          1           0       -3.385458   -0.224974    1.953035
     22          1           0       -1.891807    0.320759    1.587098
 ---------------------------------------------------------------------

 SCF Done:  E(UB3LYP) =  -781.827054191     A.U. after   32 cycles

 The electronic state is 2-A.
 Alpha  occ. eigenvalues --  -88.75872 -14.19388 -14.18108 -10.12009 -10.08946
 Alpha  occ. eigenvalues --  -10.08603 -10.08153 -10.07322 -10.06834 -10.05974
 Alpha  occ. eigenvalues --   -7.84543  -5.80808  -5.80469  -5.80145  -0.84698
 Alpha  occ. eigenvalues --   -0.77474  -0.69573  -0.67729  -0.62549  -0.61947
 Alpha  occ. eigenvalues --   -0.54828  -0.50270  -0.44874  -0.41943  -0.38599
 Alpha  occ. eigenvalues --   -0.36245  -0.34933  -0.33674  -0.32790  -0.31397
 Alpha  occ. eigenvalues --   -0.30802  -0.28484  -0.27570  -0.27315  -0.26933
 Alpha  occ. eigenvalues --   -0.25278  -0.24316  -0.23074  -0.16395  -0.16041
 Alpha  occ. eigenvalues --   -0.13750  -0.11662   0.04859
 Alpha virt. eigenvalues --    0.06765   0.07516   0.08541   0.08637   0.09969
 Alpha virt. eigenvalues --    0.10212   0.10861   0.11218   0.11675   0.12359
 Alpha virt. eigenvalues --    0.12814   0.13074   0.14179   0.14746   0.15337

  Beta  occ. eigenvalues --  -88.75857 -14.19383 -14.18069 -10.11883 -10.08920
  Beta  occ. eigenvalues --  -10.08559 -10.08113 -10.07301 -10.06821 -10.05968
  Beta  occ. eigenvalues --   -7.84526  -5.80798  -5.80460  -5.80107  -0.84604
  Beta  occ. eigenvalues --   -0.77409  -0.69487  -0.67613  -0.62474  -0.61897
  Beta  occ. eigenvalues --   -0.54742  -0.50163  -0.44763  -0.41860  -0.38514
  Beta  occ. eigenvalues --   -0.36166  -0.34859  -0.33477  -0.32718  -0.31329
  Beta  occ. eigenvalues --   -0.30740  -0.28435  -0.27472  -0.27272  -0.26872
  Beta  occ. eigenvalues --   -0.25148  -0.24225  -0.23016  -0.16216  -0.16011
  Beta  occ. eigenvalues --   -0.13672  -0.11326
  Beta virt. eigenvalues --    0.07198   0.07817   0.08321   0.08725   0.09475
  Beta virt. eigenvalues --    0.10336   0.10673   0.11259   0.11600   0.11924
  Beta virt. eigenvalues --    0.12528   0.13138   0.13415   0.14563   0.14872

 Mulliken charges and spin densities:
               1          2
     1  C   -0.123503  -0.716099
     2  C   -1.312880  -0.298000
     3  C    0.855958   0.802378
     4  S    0.502612  -0.844715
     5  C   -1.267630   1.460644
     6  N    0.073606   0.038009
     7  C    1.837128  -2.001129
     8  C   -0.734984   0.515134
     9  C    1.351249  -1.784291
    10  N   -0.413552   0.012212
    11  H    0.180071  -0.021888
    12  H    0.095494   0.047889
    13  H    0.048014   0.098131
    14  H   -0.030162   0.182552
    15  H   -0.099025   0.256436
    16  H   -0.413982   0.586336
    17  H    0.045670   0.120717
    18  H   -0.475155   0.647756
    19  H   -0.813729   0.978240
    20  H   -0.179531   0.294297
    21  H   -0.235691   0.492700
    22  H    0.110021   0.132691
 Sum of Mulliken charges =  -1.00000   1.00000

 Dipole moment (field-independent basis, Debye):
    X=              2.8921    Y=              2.5114    Z=              0.0371  Tot=              3.8305
 Quadrupole moment (field-independent basis, Debye-Ang):
   XX=           -144.8539   YY=           -100.3879   ZZ=            -95.3844
   XY=             -7.3831   XZ=              5.3160   YZ=             -4.3267

 Summary of Natural Population Analysis:

                                       Natural Population
                Natural  -----------------------------------------------
    Atom  No    Charge         Core      Valence    Rydberg      Total
 -----------------------------------------------------------------------
      C    1   -0.29786      0.99962     2.29313    0.00510     3.29786
      C    2    0.05977      0.99941     1.92797    0.01286     2.94023
      C    3   -0.10305      0.99941     2.08992    0.01372     3.10305
      S    4    0.18111      4.99939     2.80201    0.01750     7.81889
      C    5    0.06102      0.99963     1.92223    0.01712     2.93898
      N    6   -0.25590      0.99963     2.74460    0.01167     3.75590
      C    7   -0.30841      0.99961     2.30229    0.00652     3.30841
      C    8   -0.21165      0.99958     2.19982    0.01225     3.21165
      C    9   -0.08207      0.99963     2.07066    0.01177     3.08207
      N   10   -0.42581      0.99977     2.91505    0.01099     3.92581
      H   11    0.11200      0.00000     0.38676    0.00125     0.38800
      H   12    0.10490      0.00000     0.39377    0.00133     0.39510
      H   13    0.09971      0.00000     0.39900    0.00128     0.40029
      H   14    0.11159      0.00000     0.38684    0.00157     0.38841
      H   15    0.10463      0.00000     0.39446    0.00091     0.39537
      H   16    0.11042      0.00000     0.38663    0.00295     0.38958
      H   17    0.10771      0.00000     0.39075    0.00154     0.39229
      H   18    0.10863      0.00000     0.38931    0.00207     0.39137
      H   19    0.09340      0.00000     0.40274    0.00386     0.40660
      H   20    0.07789      0.00000     0.41988    0.00223     0.42211
      H   21    0.17771      0.00000     0.31945    0.00284     0.32229
      H   22    0.17427      0.00000     0.32345    0.00228     0.32573
 =======================================================================
   * Total *   -0.00000     13.99569    27.86071    0.14360    42.00000

 Normal termination of Gaussian 16 at Tue Dec  8 10:34:45 2020.
