 Gaussian 16, Revision A.03,

 -----------------------------------------------------------
 # opt freq B3LYP/6-31G(d) empiricaldispersion=gd3bj scf=xqc
 -----------------------------------------------------------

 ------------------------------
 CID_21163829_JID_3846_neutraal
 ------------------------------
 Symbolic Z-matrix:
 Charge =  0 Multiplicity = 1

 SCF Done:  E(RB3LYP) =  -1343.84337887     A.U. after   16 cycles
 SCF Done:  E(RB3LYP) =  -1343.84880460     A.U. after   13 cycles
 SCF Done:  E(RB3LYP) =  -1343.84941311     A.U. after   14 cycles
 SCF Done:  E(RB3LYP) =  -1343.84960686     A.U. after   12 cycles
 SCF Done:  E(RB3LYP) =  -1343.84984660     A.U. after   12 cycles
 SCF Done:  E(RB3LYP) =  -1343.85011196     A.U. after   13 cycles
 SCF Done:  E(RB3LYP) =  -1343.85046344     A.U. after   17 cycles
 SCF Done:  E(RB3LYP) =  -1343.85089337     A.U. after   12 cycles
 SCF Done:  E(RB3LYP) =  -1343.85127261     A.U. after   13 cycles
 SCF Done:  E(RB3LYP) =  -1343.85143803     A.U. after   14 cycles
 SCF Done:  E(RB3LYP) =  -1343.85145614     A.U. after   12 cycles
 SCF Done:  E(RB3LYP) =  -1343.85146437     A.U. after   10 cycles
 SCF Done:  E(RB3LYP) =  -1343.85146500     A.U. after    9 cycles
 SCF Done:  E(RB3LYP) =  -1343.85146507     A.U. after    7 cycles
 SCF Done:  E(RB3LYP) =  -1343.85146510     A.U. after    7 cycles
 Optimization completed.
    -- Stationary point found.
 Normal termination of Gaussian 16 at Sun Dec 13 15:56:33 2020.

 --------------------------------------------------------------------
 #N Geom=AllCheck Guess=TCheck SCRF=Check GenChk RB3LYP/6-31G(d) Freq
 --------------------------------------------------------------------

 Structure from the checkpoint file:  "JID_3846.chk"
 ------------------------------
 CID_21163829_JID_3846_neutraal
 ------------------------------
 Charge =  0 Multiplicity = 1

 SCF Done:  E(RB3LYP) =  -1343.85146510     A.U. after    1 cycles

  Exact polarizability: 170.104   1.710  99.515  -6.832  -7.494  85.627
 Approx polarizability: 256.141   0.031 189.375 -24.077 -34.165 151.523

                      1                      2                      3
                      A                      A                      A
 Frequencies --     31.8525                57.0266                80.2128
 Red. masses --      8.1067                 4.0303                 4.1812
 Frc consts  --      0.0048                 0.0077                 0.0159
 IR Inten    --      1.6151                 2.6314                 3.9503

                      4                      5                      6
                      A                      A                      A
 Frequencies --    102.5213               134.2629               180.1314
 Red. masses --     12.1932                 7.1256                15.0037
 Frc consts  --      0.0755                 0.0757                 0.2868
 IR Inten    --      3.9246                 1.8733                 5.6975

                      7                      8                      9
                      A                      A                      A
 Frequencies --    212.0194               219.2154               226.7999
 Red. masses --      3.9375                 2.7839                 1.4961
 Frc consts  --      0.1043                 0.0788                 0.0453
 IR Inten    --      1.3652                 2.6956                 1.2768

                     10                     11                     12
                      A                      A                      A
 Frequencies --    243.5602               282.2298               307.7157
 Red. masses --      1.1691                 5.0835                 4.1446
 Frc consts  --      0.0409                 0.2386                 0.2312
 IR Inten    --      0.3252                 2.2839                 2.9860

                     13                     14                     15
                      A                      A                      A
 Frequencies --    324.6480               405.3503               427.6662
 Red. masses --      6.0631                 4.6462                 3.5972
 Frc consts  --      0.3765                 0.4498                 0.3876
 IR Inten    --      5.9538                17.0818                15.8985

                     16                     17                     18
                      A                      A                      A
 Frequencies --    451.5913               485.4216               500.4621
 Red. masses --      5.7835                 8.9534                12.1774
 Frc consts  --      0.6949                 1.2430                 1.7970
 IR Inten    --     20.5813                18.3456                 3.0864

                     19                     20                     21
                      A                      A                      A
 Frequencies --    536.1037               581.8955               609.3617
 Red. masses --      9.4643                12.9480                 9.2019
 Frc consts  --      1.6026                 2.5831                 2.0132
 IR Inten    --     13.9282                28.7734                11.9730

                     22                     23                     24
                      A                      A                      A
 Frequencies --    635.2838               685.2685               693.2621
 Red. masses --     12.2073                 6.5697                12.1167
 Frc consts  --      2.9027                 1.8177                 3.4311
 IR Inten    --      1.3147               115.3341                18.4316

                     25                     26                     27
                      A                      A                      A
 Frequencies --    777.4958               890.0754               960.4050
 Red. masses --     13.8306                 2.6271                 1.1277
 Frc consts  --      4.9259                 1.2263                 0.6128
 IR Inten    --      6.0806                 1.2359                 1.8920

                     28                     29                     30
                      A                      A                      A
 Frequencies --    977.4805              1062.6000              1097.9125
 Red. masses --      1.4044                 9.5100                 1.5052
 Frc consts  --      0.7906                 6.3266                 1.0690
 IR Inten    --      0.1024                11.1047                 0.3104

                     31                     32                     33
                      A                      A                      A
 Frequencies --   1112.5724              1124.6693              1146.6403
 Red. masses --     10.5595                 9.5646                 2.2699
 Frc consts  --      7.7011                 7.1279                 1.7584
 IR Inten    --    120.8601                19.6288                 0.0923

                     34                     35                     36
                      A                      A                      A
 Frequencies --   1192.0035              1210.5452              1311.2974
 Red. masses --     12.3926                 1.8471                 1.3516
 Frc consts  --     10.3745                 1.5948                 1.3693
 IR Inten    --     69.8680                 2.7621                41.2698

                     37                     38                     39
                      A                      A                      A
 Frequencies --   1320.0784              1344.7240              1426.8165
 Red. masses --     13.4566                 1.4766                 9.8261
 Frc consts  --     13.8161                 1.5732                11.7861
 IR Inten    --    145.8678                 3.9970                23.4739

                     40                     41                     42
                      A                      A                      A
 Frequencies --   1432.8251              1451.9596              1467.8201
 Red. masses --      1.2634                 1.2260                11.0179
 Frc consts  --      1.5281                 1.5228                13.9861
 IR Inten    --      7.8244                 8.7217                 0.8489

                     43                     44                     45
                      A                      A                      A
 Frequencies --   1516.8418              1521.0696              1529.5961
 Red. masses --      1.0440                 1.0461                 1.0390
 Frc consts  --      1.4152                 1.4260                 1.4323
 IR Inten    --      2.2076                 0.0250                 9.5846

                     46                     47                     48
                      A                      A                      A
 Frequencies --   1542.2031              2364.1019              3061.8348
 Red. masses --      1.0499                12.6705                 1.0821
 Frc consts  --      1.4712                41.7232                 5.9770
 IR Inten    --     15.9720                 0.5743                 0.9885

                     49                     50                     51
                      A                      A                      A
 Frequencies --   3066.9344              3072.4932              3133.7177
 Red. masses --      1.0376                 1.0378                 1.1023
 Frc consts  --      5.7504                 5.7724                 6.3780
 IR Inten    --      8.8124                16.7439                13.4734

                     52                     53                     54
                      A                      A                      A
 Frequencies --   3144.5344              3155.5150              3168.7984
 Red. masses --      1.0996                 1.1033                 1.1039
 Frc consts  --      6.4061                 6.4726                 6.5307
 IR Inten    --     10.1735                 5.7279                 3.9205

 - Thermochemistry -
 -------------------
 Temperature   298.150 Kelvin.  Pressure   1.00000 Atm.
 Atom     1 has atomic number  6 and mass  12.00000

 Molecular mass:   216.99797 amu.
 Principal axes and moments of inertia in atomic units:
                           1         2         3
     Eigenvalues --  1348.147384618.715164910.76694
           X            0.99962   0.02447   0.01235
           Y           -0.02506   0.99843   0.05004
           Z           -0.01111  -0.05033   0.99867
 This molecule is an asymmetric top.
 Rotational symmetry number  1.
 Warning -- assumption of classical behavior for rotation
           may cause significant error
 Rotational temperatures (Kelvin)      0.06425     0.01875     0.01764
 Rotational constants (GHZ):           1.33868     0.39075     0.36751
 Zero-point vibrational energy     358876.3 (Joules/Mol)
                                   85.77348 (Kcal/Mol)
 Warning -- explicit consideration of  21 degrees of freedom as
           vibrations may cause significant error
 Vibrational temperatures:     45.83    82.05   115.41   147.51   193.17
          (Kelvin)            259.17   305.05   315.40   326.31   350.43
                              406.07   442.73   467.10   583.21   615.32
                              649.74   698.41   720.05   771.33   837.22
                              876.74   914.03   985.95   997.45  1118.64
                             1280.62  1381.81  1406.38  1528.84  1579.65
                             1600.74  1618.15  1649.76  1715.03  1741.70
                             1886.66  1899.30  1934.76  2052.87  2061.52
                             2089.05  2111.87  2182.40  2188.48  2200.75
                             2218.89  3401.42  4405.30  4412.63  4420.63
                             4508.72  4524.28  4540.08  4559.19

 Zero-point correction=                           0.136689 (Hartree/Particle)
 Thermal correction to Energy=                    0.149974
 Thermal correction to Enthalpy=                  0.150918
 Thermal correction to Gibbs Free Energy=         0.095774
 Sum of electronic and zero-point Energies=          -1343.714776
 Sum of electronic and thermal Energies=             -1343.701491
 Sum of electronic and thermal Enthalpies=           -1343.700547
 Sum of electronic and thermal Free Energies=        -1343.755691

                     E (Thermal)             CV                S
                      KCal/Mol        Cal/Mol-Kelvin    Cal/Mol-Kelvin
 Total                   94.110             47.333            116.062
 Electronic               0.000              0.000              0.000
 Translational            0.889              2.981             42.027
 Rotational               0.889              2.981             31.792
 Vibrational             92.333             41.372             42.242
 Vibration     1          0.594              1.983              5.711
 Vibration     2          0.596              1.975              4.558
 Vibration     3          0.600              1.963              3.886
 Vibration     4          0.605              1.947              3.406
 Vibration     5          0.613              1.919              2.884
 Vibration     6          0.629              1.867              2.327
 Vibration     7          0.643              1.823              2.026
 Vibration     8          0.647              1.812              1.966
 Vibration     9          0.650              1.800              1.904
 Vibration    10          0.659              1.773              1.777
 Vibration    11          0.681              1.707              1.520
 Vibration    12          0.698              1.659              1.375
 Vibration    13          0.709              1.626              1.287
 Vibration    14          0.770              1.459              0.943
 Vibration    15          0.789              1.410              0.866
 Vibration    16          0.810              1.357              0.791
 Vibration    17          0.841              1.282              0.696
 Vibration    18          0.856              1.249              0.657
 Vibration    19          0.891              1.170              0.574
 Vibration    20          0.939              1.070              0.482
 Vibration    21          0.968              1.012              0.434

 Optimization completed.
    -- Stationary point found.
 Normal termination of Gaussian 16 at Sun Dec 13 16:00:47 2020.

 ----------------------------------------------------------------------
 # B3LYP/6-311++G(d,p) empiricaldispersion=gd3bj scf=xqc pop=npa geom=c
 heck
 ----------------------------------------------------------------------

 --------------------------------------
 CID_21163829_JID_3846_Energie_neutraal
 --------------------------------------
 Structure from the checkpoint file:  "JID_3846.chk"
 Charge =  0 Multiplicity = 1

 SCF Done:  E(RB3LYP) =  -1344.05564307     A.U. after   16 cycles
 Normal termination of Gaussian 16 at Sun Dec 13 16:02:24 2020.

 ----------------------------------------------------------------------
 # B3LYP/6-311++G(d,p) empiricaldispersion=gd3bj scf=xqc pop=npa geom=c
 heck
 ----------------------------------------------------------------------

 ------------------------------------
 CID_21163829_JID_3846_Energie_kation
 ------------------------------------
 Structure from the checkpoint file:  "JID_3846.chk"
 Charge =  1 Multiplicity = 2

 SCF Done:  E(UB3LYP) =  -1343.66666383     A.U. after   33 cycles
 SCF Done:  E(UB3LYP) =  -1343.66872155     a.u. after   17 cycles
 Normal termination of Gaussian 16 at Sun Dec 13 17:01:03 2020.
 Gaussian 16:  ES64L-G16RevA.03 25-Dec-2016

 ----------------------------------------------------------------------
 # B3LYP/6-311++G(d,p) empiricaldispersion=gd3bj scf=xqc pop=npa geom=c
 heck
 ----------------------------------------------------------------------

 -----------------------------------
 CID_21163829_JID_3846_Energie_anion
 -----------------------------------
 Structure from the checkpoint file:  "JID_3846.chk"
 Charge = -1 Multiplicity = 2

                         Standard orientation:
 ---------------------------------------------------------------------
 Center     Atomic      Atomic             Coordinates (Angstroms)
 Number     Number       Type             X           Y           Z
 ---------------------------------------------------------------------
      1          6           0        2.696422    1.817218   -0.291122
      2          6           0        2.512319    0.574173    0.576305
      3          6           0        1.874088    0.842480    1.938303
      4         16           0        1.568671   -0.718707   -0.317196
      5          8           0        2.029105   -0.795330   -1.704815
      6          8           0        1.481593   -1.919004    0.529538
      7          6           0       -0.135586   -0.086009   -0.322798
      8          7           0       -0.497719    1.046865   -0.852498
      9          7           0       -1.832088    1.277499   -0.744743
     10          6           0       -2.449360    0.289166   -0.130703
     11         16           0       -1.416617   -1.020510    0.387386
     12          6           0       -3.852836    0.281557    0.101744
     13          7           0       -4.995830    0.249168    0.309677
     14          1           0        1.740047    2.311963   -0.479196
     15          1           0        3.152265    1.564674   -1.250661
     16          1           0        3.353205    2.516674    0.236777
     17          1           0        3.469602    0.052628    0.708717
     18          1           0        0.916052    1.361142    1.829780
     19          1           0        1.720470   -0.082585    2.499501
     20          1           0        2.539099    1.491410    2.516838
 ---------------------------------------------------------------------

 SCF Done:  E(UB3LYP) =  -1344.11607956     A.U. after   22 cycles

 The electronic state is 2-A.
 Alpha  occ. eigenvalues --  -88.93360 -88.74880 -19.00434 -19.00333 -14.21463
 Alpha  occ. eigenvalues --  -14.20654 -14.17395 -10.12245 -10.10209 -10.10166
 Alpha  occ. eigenvalues --  -10.08332 -10.07794 -10.07625  -7.99759  -7.83558
 Alpha  occ. eigenvalues --   -5.96035  -5.95925  -5.95861  -5.79848  -5.79509
 Alpha  occ. eigenvalues --   -5.79183  -0.99714  -0.90092  -0.89522  -0.77532
 Alpha  occ. eigenvalues --   -0.72991  -0.69996  -0.68192  -0.60973  -0.58310
 Alpha  occ. eigenvalues --   -0.53187  -0.51176  -0.44473  -0.40999  -0.39568
 Alpha  occ. eigenvalues --   -0.37350  -0.35386  -0.33769  -0.32319  -0.31692
 Alpha  occ. eigenvalues --   -0.30956  -0.30616  -0.29904  -0.27183  -0.26806
 Alpha  occ. eigenvalues --   -0.24124  -0.23748  -0.22770  -0.21621  -0.20912
 Alpha  occ. eigenvalues --   -0.20135  -0.19758  -0.17087  -0.16491  -0.15242
 Alpha  occ. eigenvalues --   -0.13875   0.00607
 Alpha virt. eigenvalues --    0.06736   0.09201   0.09644   0.10384   0.11119
 Alpha virt. eigenvalues --    0.11970   0.12475   0.13213   0.13377   0.14042
 Alpha virt. eigenvalues --    0.14278   0.14654   0.15587   0.16269   0.16603

  Beta  occ. eigenvalues --  -88.93363 -88.74755 -19.00392 -19.00325 -14.21487
  Beta  occ. eigenvalues --  -14.20514 -14.17049 -10.12235 -10.09732 -10.09698
  Beta  occ. eigenvalues --  -10.08328 -10.07795 -10.07672  -7.99761  -7.83446
  Beta  occ. eigenvalues --   -5.96036  -5.95933  -5.95857  -5.79792  -5.79456
  Beta  occ. eigenvalues --   -5.78769  -0.99622  -0.89734  -0.89450  -0.77019
  Beta  occ. eigenvalues --   -0.72902  -0.69432  -0.67539  -0.60966  -0.58108
  Beta  occ. eigenvalues --   -0.52514  -0.50833  -0.44132  -0.40743  -0.39445
  Beta  occ. eigenvalues --   -0.37273  -0.35297  -0.33515  -0.32223  -0.30935
  Beta  occ. eigenvalues --   -0.30861  -0.29981  -0.29409  -0.27170  -0.26731
  Beta  occ. eigenvalues --   -0.23557  -0.22635  -0.22333  -0.21443  -0.20736
  Beta  occ. eigenvalues --   -0.19990  -0.19558  -0.16337  -0.15331  -0.13630
  Beta  occ. eigenvalues --   -0.13035
  Beta virt. eigenvalues --    0.06690   0.07389   0.09161   0.09664   0.10789
  Beta virt. eigenvalues --    0.11917   0.12219   0.12767   0.13262   0.13446
  Beta virt. eigenvalues --    0.14141   0.14334   0.14709   0.15675   0.16301

 Mulliken charges and spin densities:
               1          2
     1  C   -0.660213  -0.002870
     2  C   -0.104807   0.012915
     3  C   -0.648784  -0.010367
     4  S    1.145532   0.053389
     5  O   -0.110958  -0.008737
     6  O   -0.251165  -0.004351
     7  C    0.029281   0.295488
     8  N   -0.254100  -0.016663
     9  N    0.230735   0.061130
    10  C    0.840658   0.290270
    11  S   -0.073792   0.215096
    12  C   -2.011658  -0.088376
    13  N   -0.306085   0.181183
    14  H    0.201729   0.000394
    15  H    0.162065   0.001427
    16  H    0.111462  -0.000306
    17  H    0.221895   0.007912
    18  H    0.181839   0.008205
    19  H    0.161468   0.002796
    20  H    0.134899   0.001467
 Sum of Mulliken charges =  -1.00000   1.00000

 Dipole moment (field-independent basis, Debye):
    X=              8.9305    Y=              1.3258    Z=              3.1434  Tot=              9.5600
 Quadrupole moment (field-independent basis, Debye-Ang):
   XX=           -147.9573   YY=           -107.4620   ZZ=           -102.6372
   XY=             13.0765   XZ=              6.7495   YZ=              3.4376

 Summary of Natural Population Analysis:

                                       Natural Population
                Natural  -----------------------------------------------
    Atom  No    Charge         Core      Valence    Rydberg      Total
 -----------------------------------------------------------------------
      C    1   -0.30003      0.99964     2.29402    0.00637     3.30003
      C    2   -0.19448      0.99959     2.18157    0.01332     3.19448
      C    3   -0.29687      0.99964     2.29136    0.00587     3.29687
      S    4    1.02952      4.99909     1.87452    0.09687     6.97048
      O    5   -0.45907      0.99991     3.45318    0.00599     4.45907
      O    6   -0.47415      0.99991     3.46847    0.00576     4.47415
      C    7   -0.04192      0.99955     2.01955    0.02283     3.04192
      N    8   -0.16640      0.99960     2.64827    0.01853     3.66640
      N    9   -0.12021      0.99966     2.60433    0.01622     3.62021
      C   10    0.02271      0.99951     1.95918    0.01860     2.97729
      S   11    0.26230      4.99937     2.71847    0.01986     7.73770
      C   12    0.12303      0.99962     1.86112    0.01623     2.87697
      N   13   -0.13498      0.99979     2.62364    0.01155     3.63498
      H   14    0.11839      0.00000     0.38044    0.00116     0.38161
      H   15    0.11063      0.00000     0.38837    0.00101     0.38937
      H   16    0.09504      0.00000     0.40392    0.00103     0.40496
      H   17    0.10618      0.00000     0.39214    0.00168     0.39382
      H   18    0.11108      0.00000     0.38802    0.00090     0.38892
      H   19    0.11164      0.00000     0.38730    0.00107     0.38836
      H   20    0.09760      0.00000     0.40138    0.00101     0.40240
 =======================================================================
   * Total *   -0.00000     20.99488    34.73925    0.26587    56.00000

 Normal termination of Gaussian 16 at Sun Dec 13 17:04:13 2020.
