 Gaussian 16, Revision A.03,

 -----------------------------------------------------------
 # opt freq B3LYP/6-31G(d) empiricaldispersion=gd3bj scf=xqc
 -----------------------------------------------------------

 -------------------------------
 CID_127453542_JID_6541_neutraal
 -------------------------------
 Symbolic Z-matrix:
 Charge =  0 Multiplicity = 1

 SCF Done:  E(RB3LYP) =  -1074.53025005     A.U. after   14 cycles
 SCF Done:  E(RB3LYP) =  -1074.53488339     A.U. after   12 cycles
 SCF Done:  E(RB3LYP) =  -1074.53528665     A.U. after   11 cycles
 SCF Done:  E(RB3LYP) =  -1074.53533991     A.U. after   11 cycles
 SCF Done:  E(RB3LYP) =  -1074.53542480     A.U. after   10 cycles
 SCF Done:  E(RB3LYP) =  -1074.53546641     A.U. after   10 cycles
 SCF Done:  E(RB3LYP) =  -1074.53549262     A.U. after   10 cycles
 SCF Done:  E(RB3LYP) =  -1074.53551401     A.U. after   10 cycles
 SCF Done:  E(RB3LYP) =  -1074.53554678     A.U. after   11 cycles
 SCF Done:  E(RB3LYP) =  -1074.53559735     A.U. after   11 cycles
 SCF Done:  E(RB3LYP) =  -1074.53965315     A.U. after   10 cycles
 SCF Done:  E(RB3LYP) =  -1074.53967222     A.U. after   10 cycles
 SCF Done:  E(RB3LYP) =  -1074.53967763     A.U. after   10 cycles
 SCF Done:  E(RB3LYP) =  -1074.53967855     A.U. after    8 cycles
 SCF Done:  E(RB3LYP) =  -1074.53967885     A.U. after    7 cycles
 SCF Done:  E(RB3LYP) =  -1074.53967895     A.U. after    7 cycles
 Optimization completed.
    -- Stationary point found.
 Normal termination of Gaussian 16 at Thu Dec 10 23:56:27 2020.

 --------------------------------------------------------------------
 #N Geom=AllCheck Guess=TCheck SCRF=Check GenChk RB3LYP/6-31G(d) Freq
 --------------------------------------------------------------------

 Structure from the checkpoint file:  "JID_6541.chk"
 -------------------------------
 CID_127453542_JID_6541_neutraal
 -------------------------------
 Charge =  0 Multiplicity = 1

 SCF Done:  E(RB3LYP) =  -1074.53967895     A.U. after    1 cycles

  Exact polarizability: 188.365   0.794 136.142  -1.251   3.227 127.978
 Approx polarizability: 214.774  -0.427 212.646  -1.345   4.536 204.848

                      1                      2                      3
                      A                      A                      A
 Frequencies --     23.7807                31.6608                39.9697
 Red. masses --      3.6203                 2.6262                 3.7613
 Frc consts  --      0.0012                 0.0016                 0.0035
 IR Inten    --      0.0735                 0.6455                 0.3211

                      4                      5                      6
                      A                      A                      A
 Frequencies --     67.0223                81.7070                98.9971
 Red. masses --      2.4979                 2.9784                 3.9665
 Frc consts  --      0.0066                 0.0117                 0.0229
 IR Inten    --      0.2218                 0.6943                 3.1733

                      7                      8                      9
                      A                      A                      A
 Frequencies --    151.8036               158.3242               192.1674
 Red. masses --      3.7796                 4.5443                 2.4251
 Frc consts  --      0.0513                 0.0671                 0.0528
 IR Inten    --      1.7087                 1.0677                 0.3470

                     10                     11                     12
                      A                      A                      A
 Frequencies --    233.9821               237.2249               253.6886
 Red. masses --      1.8424                 1.1756                 2.1632
 Frc consts  --      0.0594                 0.0390                 0.0820
 IR Inten    --      1.3532                 0.0547                 1.0073

                     13                     14                     15
                      A                      A                      A
 Frequencies --    260.8896               273.4820               313.8745
 Red. masses --      2.0972                 2.2898                 3.5355
 Frc consts  --      0.0841                 0.1009                 0.2052
 IR Inten    --      1.1479                 1.0395                 0.5401

                     16                     17                     18
                      A                      A                      A
 Frequencies --    324.2202               362.5986               386.5610
 Red. masses --      3.6840                 2.6338                 2.1385
 Frc consts  --      0.2282                 0.2040                 0.1883
 IR Inten    --      3.2280                 0.5762                 2.0973

                     19                     20                     21
                      A                      A                      A
 Frequencies --    409.8471               419.6587               474.7616
 Red. masses --      2.2298                 1.9122                 3.3364
 Frc consts  --      0.2207                 0.1984                 0.4431
 IR Inten    --      0.8017                 0.2287                27.9174

                     22                     23                     24
                      A                      A                      A
 Frequencies --    487.3700               492.1887               556.7729
 Red. masses --      4.1711                 5.3015                 2.3725
 Frc consts  --      0.5837                 0.7567                 0.4333
 IR Inten    --      7.4252                17.6049                10.4891

                     25                     26                     27
                      A                      A                      A
 Frequencies --    584.7858               610.5434               613.9417
 Red. masses --      3.6419                 3.4396                 2.5497
 Frc consts  --      0.7338                 0.7554                 0.5662
 IR Inten    --      0.4945                59.5911                10.0472

                     28                     29                     30
                      A                      A                      A
 Frequencies --    695.2598               764.1574               769.0223
 Red. masses --      5.1367                 2.8627                 2.4332
 Frc consts  --      1.4629                 0.9849                 0.8478
 IR Inten    --     47.4770                19.1676                28.0065

                     31                     32                     33
                      A                      A                      A
 Frequencies --    814.0634               881.7818               883.1173
 Red. masses --      4.7284                 1.6445                 1.3851
 Frc consts  --      1.8462                 0.7534                 0.6364
 IR Inten    --     56.0691                 8.7005                 0.0314

                     34                     35                     36
                      A                      A                      A
 Frequencies --    884.2728               913.5830               930.8137
 Red. masses --      2.0974                 1.9734                 2.2720
 Frc consts  --      0.9663                 0.9704                 1.1598
 IR Inten    --      1.1037                 1.0465                 1.7469

                     37                     38                     39
                      A                      A                      A
 Frequencies --    931.3075               947.5942               976.9569
 Red. masses --      2.4652                 1.2065                 1.5656
 Frc consts  --      1.2598                 0.6383                 0.8804
 IR Inten    --      3.0052                 2.7429                44.1824

                     40                     41                     42
                      A                      A                      A
 Frequencies --    978.8177               987.1329               993.6688
 Red. masses --      1.3907                 1.8001                 1.7516
 Frc consts  --      0.7850                 1.0335                 1.0190
 IR Inten    --      1.5065                 0.2070                 0.0158

                     43                     44                     45
                      A                      A                      A
 Frequencies --   1020.1971              1027.8992              1042.6938
 Red. masses --      2.1874                 1.4647                 2.0164
 Frc consts  --      1.3414                 0.9118                 1.2916
 IR Inten    --     96.2171                 0.9454                 7.7904

                     46                     47                     48
                      A                      A                      A
 Frequencies --   1075.9465              1077.0532              1094.0257
 Red. masses --      2.4970                 1.8925                 2.0590
 Frc consts  --      1.7032                 1.2935                 1.4520
 IR Inten    --      3.2723                25.1650                 0.8659

                     49                     50                     51
                      A                      A                      A
 Frequencies --   1122.6499              1124.5962              1134.5883
 Red. masses --      1.7380                 3.9253                 5.2117
 Frc consts  --      1.2906                 2.9249                 3.9528
 IR Inten    --     30.2214                74.6607                87.2500

                     52                     53                     54
                      A                      A                      A
 Frequencies --   1152.1990              1166.1055              1193.9176
 Red. masses --      1.9292                 2.2678                 1.8830
 Frc consts  --      1.5090                 1.8169                 1.5815
 IR Inten    --     38.0696                 6.2062                 9.6359

                     55                     56                     57
                      A                      A                      A
 Frequencies --   1205.1255              1211.2025              1223.7756
 Red. masses --      1.6769                 1.5375                 1.5087
 Frc consts  --      1.4349                 1.3290                 1.3312
 IR Inten    --      7.0705                 2.8832                 5.1648

                     58                     59                     60
                      A                      A                      A
 Frequencies --   1250.5921              1259.8500              1276.7254
 Red. masses --      1.4351                 1.3548                 1.4203
 Frc consts  --      1.3224                 1.2670                 1.3641
 IR Inten    --      5.6385                 9.7165                10.6850

                     61                     62                     63
                      A                      A                      A
 Frequencies --   1277.4340              1318.1434              1329.5440
 Red. masses --      1.4394                 1.2681                 1.6553
 Frc consts  --      1.3839                 1.2982                 1.7240
 IR Inten    --     15.3155                 0.5691                40.7372

                     64                     65                     66
                      A                      A                      A
 Frequencies --   1331.2140              1333.3498              1335.9404
 Red. masses --      1.2894                 1.3458                 2.3626
 Frc consts  --      1.3463                 1.4097                 2.4844
 IR Inten    --      7.1405                 8.6647                88.4059

                     67                     68                     69
                      A                      A                      A
 Frequencies --   1347.1314              1357.0175              1361.6344
 Red. masses --      1.4855                 1.2928                 1.2846
 Frc consts  --      1.5884                 1.4027                 1.4033
 IR Inten    --     24.7214                 0.3651                 2.7855

                     70                     71                     72
                      A                      A                      A
 Frequencies --   1366.5933              1374.3522              1395.2347
 Red. masses --      1.3086                 1.3760                 1.3158
 Frc consts  --      1.4399                 1.5313                 1.5091
 IR Inten    --      0.1324                 1.6038                 0.3149

                     73                     74                     75
                      A                      A                      A
 Frequencies --   1398.6258              1399.6449              1418.8683
 Red. masses --      1.4242                 1.4560                 1.4386
 Frc consts  --      1.6414                 1.6806                 1.7064
 IR Inten    --      1.7156                 1.0940                 2.6788

                     76                     77                     78
                      A                      A                      A
 Frequencies --   1430.6088              1449.7167              1485.1755
 Red. masses --      1.2914                 1.2385                 1.0869
 Frc consts  --      1.5572                 1.5336                 1.4126
 IR Inten    --      2.3909                 6.9795                 7.4926

                     79                     80                     81
                      A                      A                      A
 Frequencies --   1507.3581              1519.7106              1520.5360
 Red. masses --      1.0794                 1.0923                 1.0595
 Frc consts  --      1.4450                 1.4863                 1.4432
 IR Inten    --      1.2363                 1.0004                 1.8964

                     82                     83                     84
                      A                      A                      A
 Frequencies --   1521.8368              1526.9088              1534.4930
 Red. masses --      1.0841                 1.0464                 1.0582
 Frc consts  --      1.4793                 1.4374                 1.4681
 IR Inten    --      3.8563                 4.2794                 1.3037

                     85                     86                     87
                      A                      A                      A
 Frequencies --   1537.5626              1538.3414              1548.9183
 Red. masses --      1.1061                 1.0835                 1.0483
 Frc consts  --      1.5406                 1.5107                 1.4818
 IR Inten    --      1.9180                 0.1394                 7.0404

                     88                     89                     90
                      A                      A                      A
 Frequencies --   1551.3759              2969.4968              2976.5331
 Red. masses --      1.0900                 1.0728                 1.0730
 Frc consts  --      1.5457                 5.5738                 5.6012
 IR Inten    --     18.9187                28.9878                45.5758

                     91                     92                     93
                      A                      A                      A
 Frequencies --   3029.9890              3034.7599              3038.4156
 Red. masses --      1.0660                 1.0396                 1.0681
 Frc consts  --      5.7660                 5.6413                 5.8096
 IR Inten    --     14.4706                24.6222                23.9773

                     94                     95                     96
                      A                      A                      A
 Frequencies --   3039.0647              3039.7242              3049.9397
 Red. masses --      1.0437                 1.0721                 1.0617
 Frc consts  --      5.6792                 5.8366                 5.8189
 IR Inten    --     35.7656                20.8277                42.4756

                     97                     98                     99
                      A                      A                      A
 Frequencies --   3067.5391              3076.7912              3080.7785
 Red. masses --      1.0803                 1.0864                 1.0600
 Frc consts  --      5.9896                 6.0595                 5.9278
 IR Inten    --     10.6109                 0.0108                11.0877

                    100                    101                    102
                      A                      A                      A
 Frequencies --   3090.4211              3094.3619              3100.1572
 Red. masses --      1.0867                 1.0966                 1.0980
 Frc consts  --      6.1150                 6.1867                 6.2174
 IR Inten    --     21.9235                 1.6970                12.4228

                    103                    104                    105
                      A                      A                      A
 Frequencies --   3102.8783              3105.8390              3108.1650
 Red. masses --      1.0969                 1.0970                 1.0988
 Frc consts  --      6.2222                 6.2345                 6.2544
 IR Inten    --     34.1855                39.6976                54.5844

                    106                    107                    108
                      A                      A                      A
 Frequencies --   3112.9793              3115.6123              3130.8799
 Red. masses --      1.0992                 1.1017                 1.1006
 Frc consts  --      6.2759                 6.3010                 6.3563
 IR Inten    --     71.3955                42.1891                31.1937

                    109                    110                    111
                      A                      A                      A
 Frequencies --   3142.8918              3153.9242              3155.6995
 Red. masses --      1.1032                 1.0903                 1.0918
 Frc consts  --      6.4206                 6.3898                 6.4062
 IR Inten    --     10.2924                10.3461                 9.3304

 - Thermochemistry -
 -------------------
 Temperature   298.150 Kelvin.  Pressure   1.00000 Atm.
 Atom     1 has atomic number  6 and mass  12.00000

 Molecular mass:   245.14495 amu.
 Principal axes and moments of inertia in atomic units:
                           1         2         3
     Eigenvalues --  1503.706188379.954118638.34016
           X            0.99998  -0.00437   0.00378
           Y            0.00414   0.99826   0.05890
           Z           -0.00403  -0.05888   0.99826
 This molecule is an asymmetric top.
 Rotational symmetry number  1.
 Warning -- assumption of classical behavior for rotation
           may cause significant error
 Rotational temperatures (Kelvin)      0.05760     0.01034     0.01003
 Rotational constants (GHZ):           1.20020     0.21536     0.20892
 Zero-point vibrational energy     915063.2 (Joules/Mol)
                                  218.70537 (Kcal/Mol)
 Warning -- explicit consideration of  27 degrees of freedom as
           vibrations may cause significant error
 Vibrational temperatures:     34.22    45.55    57.51    96.43   117.56
          (Kelvin)            142.43   218.41   227.79   276.49   336.65
                              341.31   365.00   375.36   393.48   451.60
                              466.48   521.70   556.18   589.68   603.80
                              683.08   701.22   708.15   801.07   841.38
                              878.44   883.33  1000.32  1099.45  1106.45
                             1171.26  1268.69  1270.61  1272.27  1314.44
                             1339.23  1339.94  1363.38  1405.62  1408.30
                             1420.26  1429.67  1467.84  1478.92  1500.20
                             1548.05  1549.64  1574.06  1615.24  1618.04
                             1632.42  1657.76  1677.77  1717.78  1733.91
                             1742.65  1760.74  1799.32  1812.64  1836.92
                             1837.94  1896.51  1912.92  1915.32  1918.39
                             1922.12  1938.22  1952.45  1959.09  1966.22
                             1977.39  2007.43  2012.31  2013.78  2041.43
                             2058.33  2085.82  2136.84  2168.75  2186.52
                             2187.71  2189.58  2196.88  2207.79  2212.21
                             2213.33  2228.55  2232.08  4272.44  4282.57
                             4359.48  4366.34  4371.60  4372.54  4373.49
                             4388.18  4413.50  4426.82  4432.55  4446.43
                             4452.10  4460.43  4464.35  4468.61  4471.96
                             4478.88  4482.67  4504.64  4521.92  4537.79
                             4540.35

 Zero-point correction=                           0.348529 (Hartree/Particle)
 Thermal correction to Energy=                    0.365448
 Thermal correction to Enthalpy=                  0.366392
 Thermal correction to Gibbs Free Energy=         0.302434
 Sum of electronic and zero-point Energies=          -1074.191150
 Sum of electronic and thermal Energies=             -1074.174231
 Sum of electronic and thermal Enthalpies=           -1074.173287
 Sum of electronic and thermal Free Energies=        -1074.237245

                     E (Thermal)             CV                S
                      KCal/Mol        Cal/Mol-Kelvin    Cal/Mol-Kelvin
 Total                  229.322             64.609            134.612
 Electronic               0.000              0.000              0.000
 Translational            0.889              2.981             42.391
 Rotational               0.889              2.981             33.054
 Vibrational            227.545             58.647             59.168
 Vibration     1          0.593              1.985              6.290
 Vibration     2          0.594              1.983              5.723
 Vibration     3          0.594              1.981              5.261
 Vibration     4          0.598              1.970              4.239
 Vibration     5          0.600              1.962              3.849
 Vibration     6          0.604              1.950              3.474
 Vibration     7          0.619              1.901              2.649
 Vibration     8          0.621              1.893              2.570
 Vibration     9          0.634              1.851              2.207
 Vibration    10          0.654              1.789              1.848
 Vibration    11          0.656              1.784              1.824
 Vibration    12          0.665              1.757              1.705
 Vibration    13          0.669              1.744              1.656
 Vibration    14          0.676              1.722              1.574
 Vibration    15          0.702              1.647              1.342
 Vibration    16          0.709              1.627              1.289
 Vibration    17          0.736              1.549              1.111
 Vibration    18          0.755              1.499              1.013
 Vibration    19          0.774              1.449              0.927
 Vibration    20          0.782              1.428              0.893
 Vibration    21          0.831              1.306              0.724
 Vibration    22          0.843              1.278              0.690
 Vibration    23          0.848              1.267              0.678
 Vibration    24          0.912              1.125              0.530
 Vibration    25          0.942              1.064              0.477
 Vibration    26          0.970              1.010              0.432
 Vibration    27          0.973              1.002              0.426

                           ! Non-Optimized Parameters !
 Normal termination of Gaussian 16 at Fri Dec 11 00:09:02 2020.

 ----------------------------------------------------------------------
 # B3LYP/6-311++G(d,p) empiricaldispersion=gd3bj scf=xqc pop=npa geom=c
 heck
 ----------------------------------------------------------------------

 ---------------------------------------
 CID_127453542_JID_6541_Energie_neutraal
 ---------------------------------------
 Structure from the checkpoint file:  "JID_6541.chk"
 Charge =  0 Multiplicity = 1

 SCF Done:  E(RB3LYP) =  -1074.75480655     A.U. after   15 cycles
 Normal termination of Gaussian 16 at Fri Dec 11 00:15:40 2020.

 ----------------------------------------------------------------------
 # B3LYP/6-311++G(d,p) empiricaldispersion=gd3bj scf=xqc pop=npa geom=c
 heck
 ----------------------------------------------------------------------

 -------------------------------------
 CID_127453542_JID_6541_Energie_kation
 -------------------------------------
 Structure from the checkpoint file:  "JID_6541.chk"
 Charge =  1 Multiplicity = 2

 SCF Done:  E(UB3LYP) =  -1074.42401328     A.U. after   23 cycles
 Normal termination of Gaussian 16 at Fri Dec 11 00:29:10 2020.
 Gaussian 16:  ES64L-G16RevA.03 25-Dec-2016

 ----------------------------------------------------------------------
 # B3LYP/6-311++G(d,p) empiricaldispersion=gd3bj scf=xqc pop=npa geom=c
 heck
 ----------------------------------------------------------------------

 ------------------------------------
 CID_127453542_JID_6541_Energie_anion
 ------------------------------------
 Structure from the checkpoint file:  "JID_6541.chk"
 Charge = -1 Multiplicity = 2

                         Standard orientation:
 ---------------------------------------------------------------------
 Center     Atomic      Atomic             Coordinates (Angstroms)
 Number     Number       Type             X           Y           Z
 ---------------------------------------------------------------------
      1          6           0       -3.815115    1.823125   -0.057396
      2          6           0       -3.910093    0.300994   -0.212477
      3          6           0       -5.313686   -0.121362   -0.662590
      4          6           0       -2.872405   -0.252394   -1.205832
      5          6           0       -1.408015    0.102304   -0.930587
      6         16           0       -0.818471   -0.564886    0.655286
      7          8           0       -1.302945    0.309985    1.728197
      8          8           0       -1.096557   -2.004352    0.652542
      9          7           0        0.844310   -0.399176    0.630424
     10          6           0        1.651535   -1.237049   -0.267449
     11          6           0        3.088124   -0.799755    0.070981
     12          6           0        4.063566   -0.644032   -1.113356
     13          6           0        4.898741    0.595876   -0.751250
     14          6           0        3.858685    1.551690   -0.141984
     15          6           0        2.950336    0.633552    0.701157
     16          6           0        1.443057    0.943353    0.681258
     17          1           0       -3.900818    2.325960   -1.030459
     18          1           0       -2.871538    2.119972    0.409764
     19          1           0       -4.624572    2.195558    0.580178
     20          1           0       -3.716760   -0.147850    0.768960
     21          1           0       -5.564321    0.321866   -1.635511
     22          1           0       -5.391226   -1.210495   -0.760496
     23          1           0       -6.071445    0.206646    0.057518
     24          1           0       -2.957118   -1.343783   -1.250032
     25          1           0       -3.105790    0.125417   -2.211591
     26          1           0       -0.761258   -0.331278   -1.700402
     27          1           0       -1.237546    1.181259   -0.896168
     28          1           0        1.442283   -2.289277   -0.073768
     29          1           0        1.429245   -1.027678   -1.328238
     30          1           0        3.504851   -1.484570    0.815063
     31          1           0        3.502333   -0.447598   -2.036931
     32          1           0        4.670175   -1.538394   -1.287485
     33          1           0        5.428069    1.024643   -1.608811
     34          1           0        5.653236    0.333009    0.001822
     35          1           0        3.275499    2.016656   -0.948336
     36          1           0        4.306341    2.362110    0.441931
     37          1           0        3.296375    0.608427    1.738406
     38          1           0        1.187152    1.535613   -0.213825
     39          1           0        1.079826    1.473322    1.562123
 ---------------------------------------------------------------------

 SCF Done:  E(UB3LYP) =  -1074.74506279     A.U. after   28 cycles

 The electronic state is 2-A.
 Alpha  occ. eigenvalues --  -88.96362 -19.02054 -19.01989 -14.24835 -10.11431
 Alpha  occ. eigenvalues --  -10.11417 -10.11413 -10.08947 -10.08799 -10.08614
 Alpha  occ. eigenvalues --  -10.08596 -10.07694 -10.07245 -10.07230 -10.07215
 Alpha  occ. eigenvalues --  -10.06864  -8.02557  -5.98833  -5.98813  -5.98628
 Alpha  occ. eigenvalues --   -1.02270  -0.91338  -0.85739  -0.74853  -0.73651
 Alpha  occ. eigenvalues --   -0.68310  -0.66246  -0.65063  -0.60018  -0.59193
 Alpha  occ. eigenvalues --   -0.58356  -0.54648  -0.49390  -0.48698  -0.46413
 Alpha  occ. eigenvalues --   -0.45853  -0.44177  -0.40969  -0.40165  -0.39021
 Alpha  occ. eigenvalues --   -0.37828  -0.37417  -0.36906  -0.35586  -0.35234
 Alpha  occ. eigenvalues --   -0.34265  -0.31980  -0.31610  -0.30966  -0.30529
 Alpha  occ. eigenvalues --   -0.30114  -0.29605  -0.28338  -0.26145  -0.26038
 Alpha  occ. eigenvalues --   -0.24857  -0.24802  -0.24397  -0.24363  -0.24070
 Alpha  occ. eigenvalues --   -0.23355  -0.23263  -0.22584  -0.22547  -0.21097
 Alpha  occ. eigenvalues --   -0.20248  -0.16519   0.04001
 Alpha virt. eigenvalues --    0.05688   0.06621   0.07259   0.07616   0.08135
 Alpha virt. eigenvalues --    0.08399   0.09431   0.09815   0.09894   0.10312
 Alpha virt. eigenvalues --    0.10395   0.11012   0.11554   0.11734   0.12389

  Beta  occ. eigenvalues --  -88.96361 -19.02048 -19.01986 -14.24830 -10.11416
  Beta  occ. eigenvalues --  -10.11396 -10.11389 -10.08929 -10.08798 -10.08607
  Beta  occ. eigenvalues --  -10.08588 -10.07683 -10.07220 -10.07203 -10.07190
  Beta  occ. eigenvalues --  -10.06847  -8.02554  -5.98831  -5.98812  -5.98627
  Beta  occ. eigenvalues --   -1.02257  -0.91326  -0.85723  -0.74824  -0.73629
  Beta  occ. eigenvalues --   -0.68280  -0.66213  -0.65034  -0.59989  -0.59140
  Beta  occ. eigenvalues --   -0.58318  -0.54603  -0.49335  -0.48636  -0.46366
  Beta  occ. eigenvalues --   -0.45811  -0.44139  -0.40918  -0.40148  -0.39001
  Beta  occ. eigenvalues --   -0.37804  -0.37384  -0.36879  -0.35552  -0.35217
  Beta  occ. eigenvalues --   -0.34233  -0.31944  -0.31572  -0.30933  -0.30497
  Beta  occ. eigenvalues --   -0.30095  -0.29566  -0.28317  -0.26118  -0.26015
  Beta  occ. eigenvalues --   -0.24830  -0.24756  -0.24370  -0.24346  -0.24035
  Beta  occ. eigenvalues --   -0.23330  -0.23221  -0.22559  -0.22522  -0.21089
  Beta  occ. eigenvalues --   -0.20227  -0.16481
  Beta virt. eigenvalues --    0.06033   0.06348   0.07450   0.07802   0.08080
  Beta virt. eigenvalues --    0.08355   0.08733   0.09692   0.10114   0.10320
  Beta virt. eigenvalues --    0.10558   0.10745   0.11226   0.11712   0.11845

 Mulliken charges and spin densities:
               1          2
     1  C    0.097958  -0.805649
     2  C   -0.351847   0.896090
     3  C   -0.277889  -0.375131
     4  C    0.355814  -1.019896
     5  C   -0.462698   0.139214
     6  S    0.611951  -0.347827
     7  O   -0.131573   0.006450
     8  O   -0.132530  -0.006033
     9  N   -0.124151   0.143523
    10  C   -0.018740  -0.739026
    11  C   -0.304583   0.580113
    12  C    0.702579  -1.108270
    13  C   -0.493749   0.096072
    14  C    0.847165  -1.248118
    15  C   -0.300141   0.597351
    16  C   -0.003702  -0.713349
    17  H   -0.153482   0.301975
    18  H    0.110951   0.058873
    19  H    0.090848   0.034787
    20  H    0.178143   0.032183
    21  H    0.063008   0.068667
    22  H    0.039780   0.094492
    23  H    0.077460   0.056638
    24  H    0.161230   0.025909
    25  H   -0.284949   0.471684
    26  H   -0.400769   0.636051
    27  H    0.030985   0.199327
    28  H    0.145551   0.046756
    29  H    0.185819  -0.053270
    30  H   -0.054442   0.284116
    31  H   -0.320114   0.468705
    32  H   -0.150728   0.298955
    33  H   -0.300436   0.469722
    34  H   -0.064222   0.196678
    35  H   -0.280487   0.427707
    36  H   -0.159244   0.306441
    37  H   -0.097785   0.331700
    38  H    0.024845   0.101012
    39  H    0.144176   0.045379
 Sum of Mulliken charges =  -1.00000   1.00000

 Dipole moment (field-independent basis, Debye):
    X=             -3.8106    Y=             -1.2096    Z=              2.7175  Tot=              4.8341
 Quadrupole moment (field-independent basis, Debye-Ang):
   XX=           -194.9689   YY=           -147.7204   ZZ=           -155.3122
   XY=             -3.6067   XZ=              5.0685   YZ=              5.7413

 Summary of Natural Population Analysis:

                                       Natural Population
                Natural  -----------------------------------------------
    Atom  No    Charge         Core      Valence    Rydberg      Total
 -----------------------------------------------------------------------
      C    1   -0.28880      0.99965     2.28308    0.00607     3.28880
      C    2   -0.12100      0.99961     2.11232    0.00907     3.12100
      C    3   -0.28138      0.99965     2.27718    0.00455     3.28138
      C    4   -0.19708      0.99960     2.18621    0.01127     3.19708
      C    5   -0.29001      0.99957     2.27891    0.01152     3.29001
      S    6    1.11237      4.99922     1.78869    0.09972     6.88763
      O    7   -0.46810      0.99991     3.46280    0.00540     4.46810
      O    8   -0.46750      0.99991     3.46231    0.00529     4.46750
      N    9   -0.37510      0.99971     2.86237    0.01302     3.87510
      C   10   -0.08290      0.99959     2.07180    0.01151     3.08290
      C   11   -0.10858      0.99959     2.09850    0.01049     3.10858
      C   12   -0.19037      0.99962     2.18227    0.00848     3.19037
      C   13   -0.18718      0.99964     2.17995    0.00758     3.18718
      C   14   -0.19036      0.99962     2.18226    0.00848     3.19036
      C   15   -0.10866      0.99959     2.09856    0.01051     3.10866
      C   16   -0.08348      0.99959     2.07232    0.01156     3.08348
      H   17    0.09560      0.00000     0.40351    0.00089     0.40440
      H   18    0.10690      0.00000     0.39208    0.00102     0.39310
      H   19    0.09731      0.00000     0.40198    0.00071     0.40269
      H   20    0.10168      0.00000     0.39624    0.00209     0.39832
      H   21    0.09589      0.00000     0.40324    0.00087     0.40411
      H   22    0.09839      0.00000     0.40082    0.00080     0.40161
      H   23    0.09691      0.00000     0.40236    0.00073     0.40309
      H   24    0.10708      0.00000     0.39170    0.00122     0.39292
      H   25    0.10359      0.00000     0.39489    0.00151     0.39641
      H   26    0.11709      0.00000     0.38127    0.00164     0.38291
      H   27    0.11440      0.00000     0.38381    0.00178     0.38560
      H   28    0.10937      0.00000     0.38941    0.00122     0.39063
      H   29    0.08708      0.00000     0.41116    0.00176     0.41292
      H   30    0.10267      0.00000     0.39606    0.00127     0.39733
      H   31    0.09776      0.00000     0.40026    0.00198     0.40224
      H   32    0.10201      0.00000     0.39684    0.00115     0.39799
      H   33    0.10164      0.00000     0.39717    0.00119     0.39836
      H   34    0.09332      0.00000     0.40530    0.00138     0.40668
      H   35    0.09762      0.00000     0.40041    0.00197     0.40238
      H   36    0.10211      0.00000     0.39671    0.00117     0.39789
      H   37    0.10283      0.00000     0.39588    0.00128     0.39717
      H   38    0.08753      0.00000     0.41069    0.00178     0.41247
      H   39    0.10935      0.00000     0.38938    0.00127     0.39065
 =======================================================================
   * Total *   -0.00000     19.99406    46.74072    0.26521    67.00000

 Normal termination of Gaussian 16 at Fri Dec 11 00:46:35 2020.
