 Gaussian 16, Revision A.03,

 -----------------------------------------------------------
 # opt freq B3LYP/6-31G(d) empiricaldispersion=gd3bj scf=xqc
 -----------------------------------------------------------

 -------------------------------
 CID_105824784_JID_7439_neutraal
 -------------------------------
 Symbolic Z-matrix:
 Charge =  0 Multiplicity = 1

 SCF Done:  E(RB3LYP) =  -1056.87684329     A.U. after   13 cycles
 SCF Done:  E(RB3LYP) =  -1056.88759913     A.U. after   11 cycles
 SCF Done:  E(RB3LYP) =  -1056.88931051     A.U. after   11 cycles
 SCF Done:  E(RB3LYP) =  -1056.89000625     A.U. after   11 cycles
 SCF Done:  E(RB3LYP) =  -1056.88896451     A.U. after   11 cycles
 SCF Done:  E(RB3LYP) =  -1056.89066548     A.U. after   11 cycles
 SCF Done:  E(RB3LYP) =  -1056.89098141     A.U. after   11 cycles
 SCF Done:  E(RB3LYP) =  -1056.89105265     A.U. after   11 cycles
 SCF Done:  E(RB3LYP) =  -1056.89118647     A.U. after   10 cycles
 SCF Done:  E(RB3LYP) =  -1056.89121403     A.U. after   10 cycles
 SCF Done:  E(RB3LYP) =  -1056.89123427     A.U. after    9 cycles
 SCF Done:  E(RB3LYP) =  -1056.89124341     A.U. after    8 cycles
 SCF Done:  E(RB3LYP) =  -1056.89124437     A.U. after    7 cycles
 SCF Done:  E(RB3LYP) =  -1056.89124446     A.U. after    7 cycles
 SCF Done:  E(RB3LYP) =  -1056.89124448     A.U. after    6 cycles
 Optimization completed.
    -- Stationary point found.
 Normal termination of Gaussian 16 at Sun Dec 13 12:35:48 2020.

 --------------------------------------------------------------------
 #N Geom=AllCheck Guess=TCheck SCRF=Check GenChk RB3LYP/6-31G(d) Freq
 --------------------------------------------------------------------

 Structure from the checkpoint file:  "JID_7439.chk"
 -------------------------------
 CID_105824784_JID_7439_neutraal
 -------------------------------
 Charge =  0 Multiplicity = 1

 SCF Done:  E(RB3LYP) =  -1056.89124448     A.U. after    1 cycles

  Exact polarizability: 198.208  -3.812 170.509   4.137  -2.888 146.807
 Approx polarizability: 239.105  -1.347 248.386   3.196  -6.613 236.774

                      1                      2                      3
                      A                      A                      A
 Frequencies --     30.0952                45.4994                52.2201
 Red. masses --      3.7141                 3.8144                 3.4732
 Frc consts  --      0.0020                 0.0047                 0.0056
 IR Inten    --      0.1833                 0.3876                 0.3001

                      4                      5                      6
                      A                      A                      A
 Frequencies --    117.2990               119.2188               135.3970
 Red. masses --      1.8674                 3.5033                 2.1682
 Frc consts  --      0.0151                 0.0293                 0.0234
 IR Inten    --      2.8023                 1.5846                 0.1672

                      7                      8                      9
                      A                      A                      A
 Frequencies --    140.6470               147.5600               184.2542
 Red. masses --      1.5683                 2.5390                 3.0416
 Frc consts  --      0.0183                 0.0326                 0.0608
 IR Inten    --      0.2476                 0.1021                 0.2663

                     10                     11                     12
                      A                      A                      A
 Frequencies --    203.0240               223.6978               246.2729
 Red. masses --      3.2754                 2.4586                 2.6518
 Frc consts  --      0.0795                 0.0725                 0.0948
 IR Inten    --      1.4162                 1.7667                 0.1543

                     13                     14                     15
                      A                      A                      A
 Frequencies --    263.0084               307.0282               324.8585
 Red. masses --      2.2106                 2.4978                 2.2284
 Frc consts  --      0.0901                 0.1387                 0.1386
 IR Inten    --      0.0538                 1.8267                 2.1820

                     16                     17                     18
                      A                      A                      A
 Frequencies --    341.5617               356.4170               363.2457
 Red. masses --      2.1192                 3.2796                 2.5820
 Frc consts  --      0.1457                 0.2455                 0.2007
 IR Inten    --      1.3868                 0.3196                 1.1224

                     19                     20                     21
                      A                      A                      A
 Frequencies --    399.8654               425.6556               444.2991
 Red. masses --      2.6452                 2.3523                 3.2858
 Frc consts  --      0.2492                 0.2511                 0.3822
 IR Inten    --      1.8202                 1.3308                 0.9178

                     22                     23                     24
                      A                      A                      A
 Frequencies --    453.3656               498.3863               518.5181
 Red. masses --      3.6127                 2.8330                 2.4365
 Frc consts  --      0.4375                 0.4146                 0.3860
 IR Inten    --      1.0870                 0.1688                 0.4676

                     25                     26                     27
                      A                      A                      A
 Frequencies --    550.0435               586.6807               636.6792
 Red. masses --      2.2771                 2.4761                 2.2096
 Frc consts  --      0.4059                 0.5021                 0.5277
 IR Inten    --      1.0392                 2.5578                 0.2841

                     28                     29                     30
                      A                      A                      A
 Frequencies --    699.1005               714.5420               767.6251
 Red. masses --      1.6871                 5.3316                 2.9567
 Frc consts  --      0.4858                 1.6038                 1.0265
 IR Inten    --      6.0900                 1.7116                 6.2073

                     31                     32                     33
                      A                      A                      A
 Frequencies --    809.1791               826.4731               848.8698
 Red. masses --      1.2273                 2.2559                 1.5863
 Frc consts  --      0.4735                 0.9079                 0.6735
 IR Inten    --      0.2727                 7.1928                 1.7141

                     34                     35                     36
                      A                      A                      A
 Frequencies --    854.1440               878.0358               887.5679
 Red. masses --      2.2776                 1.8798                 2.5062
 Frc consts  --      0.9790                 0.8539                 1.1633
 IR Inten    --      5.2830                 1.9919                 2.0433

                     37                     38                     39
                      A                      A                      A
 Frequencies --    894.4662               922.4216               927.7144
 Red. masses --      2.2181                 1.7105                 1.8710
 Frc consts  --      1.0456                 0.8575                 0.9488
 IR Inten    --      5.7523                 2.2563                 0.7536

                     40                     41                     42
                      A                      A                      A
 Frequencies --    945.2788               947.8516               972.9834
 Red. masses --      2.4606                 2.4431                 2.2484
 Frc consts  --      1.2954                 1.2932                 1.2541
 IR Inten    --      5.3924                 3.0928                 1.3277

                     43                     44                     45
                      A                      A                      A
 Frequencies --    995.6203               999.0303              1007.9373
 Red. masses --      1.4578                 1.1865                 1.8971
 Frc consts  --      0.8514                 0.6977                 1.1356
 IR Inten    --     14.5395                 6.1786                 2.8829

                     46                     47                     48
                      A                      A                      A
 Frequencies --   1011.3181              1033.2202              1065.5084
 Red. masses --      1.6883                 2.0147                 2.1204
 Frc consts  --      1.0174                 1.2672                 1.4184
 IR Inten    --      1.6588                 4.3147                26.2951

                     49                     50                     51
                      A                      A                      A
 Frequencies --   1067.9542              1084.2070              1100.8399
 Red. masses --      1.5068                 1.9959                 1.9246
 Frc consts  --      1.0126                 1.3823                 1.3741
 IR Inten    --      6.8902                 5.1851                 2.8007

                     52                     53                     54
                      A                      A                      A
 Frequencies --   1101.5490              1108.2538              1126.3681
 Red. masses --      2.4647                 2.1096                 2.3697
 Frc consts  --      1.7621                 1.5266                 1.7714
 IR Inten    --     40.0227                 4.3413                 7.4780

                     55                     56                     57
                      A                      A                      A
 Frequencies --   1155.8597              1166.6208              1174.7387
 Red. masses --      2.9384                 1.7367                 2.3849
 Frc consts  --      2.3130                 1.3926                 1.9391
 IR Inten    --     18.3720                42.2693                11.5118

                     58                     59                     60
                      A                      A                      A
 Frequencies --   1185.5784              1198.3037              1207.6499
 Red. masses --      2.4534                 2.2465                 2.1420
 Frc consts  --      2.0318                 1.9006                 1.8405
 IR Inten    --     22.3449                 7.9313                 4.0513

                     61                     62                     63
                      A                      A                      A
 Frequencies --   1214.4177              1225.9973              1257.7648
 Red. masses --      1.3087                 1.6783                 1.2963
 Frc consts  --      1.1371                 1.4863                 1.2082
 IR Inten    --      2.7945                30.2901                 5.5024

                     64                     65                     66
                      A                      A                      A
 Frequencies --   1263.6231              1271.8493              1285.6002
 Red. masses --      1.3876                 1.2635                 1.6605
 Frc consts  --      1.3054                 1.2042                 1.6170
 IR Inten    --      5.0812                 0.2236                 2.5303

                     67                     68                     69
                      A                      A                      A
 Frequencies --   1288.7669              1291.2175              1302.7615
 Red. masses --      1.4259                 1.3133                 1.5206
 Frc consts  --      1.3953                 1.2901                 1.5205
 IR Inten    --      0.4275                 4.4626                 4.6442

                     70                     71                     72
                      A                      A                      A
 Frequencies --   1314.8520              1328.8560              1343.2066
 Red. masses --      1.2003                 1.2785                 1.4488
 Frc consts  --      1.2226                 1.3301                 1.5401
 IR Inten    --      6.0496                 3.1792                16.5134

                     73                     74                     75
                      A                      A                      A
 Frequencies --   1349.5758              1369.8347              1377.1456
 Red. masses --      1.2980                 1.3492                 1.1686
 Frc consts  --      1.3929                 1.4917                 1.3058
 IR Inten    --      8.3043                26.1076                 4.9440

                     76                     77                     78
                      A                      A                      A
 Frequencies --   1385.1862              1393.4639              1403.9821
 Red. masses --      1.3590                 1.3555                 1.3839
 Frc consts  --      1.5364                 1.5508                 1.6072
 IR Inten    --      4.9031                14.2979                 2.8481

                     79                     80                     81
                      A                      A                      A
 Frequencies --   1404.9473              1410.3368              1416.9007
 Red. masses --      1.4415                 1.3629                 1.3822
 Frc consts  --      1.6764                 1.5973                 1.6349
 IR Inten    --     64.3509                18.7466                 3.3665

                     82                     83                     84
                      A                      A                      A
 Frequencies --   1422.0353              1450.2640              1457.9156
 Red. masses --      1.6106                 1.4789                 1.5508
 Frc consts  --      1.9189                 1.8326                 1.9421
 IR Inten    --      1.8918                 3.8529                 2.0448

                     85                     86                     87
                      A                      A                      A
 Frequencies --   1494.4904              1504.4320              1505.0125
 Red. masses --      1.0540                 1.0916                 1.0895
 Frc consts  --      1.3870                 1.4557                 1.4540
 IR Inten    --      4.0273                 0.4687                 3.6555

                     88                     89                     90
                      A                      A                      A
 Frequencies --   1509.7942              1513.6245              1515.8732
 Red. masses --      1.0837                 1.0858                 1.0845
 Frc consts  --      1.4555                 1.4656                 1.4682
 IR Inten    --      1.7280                 6.8721                10.0984

                     91                     92                     93
                      A                      A                      A
 Frequencies --   1517.0402              1518.4654              1526.5331
 Red. masses --      1.0885                 1.0846                 1.1027
 Frc consts  --      1.4759                 1.4734                 1.5139
 IR Inten    --      1.2363                 1.3099                 3.1277

                     94                     95                     96
                      A                      A                      A
 Frequencies --   1530.0520              1535.0209              1539.0868
 Red. masses --      1.0787                 1.0972                 1.1120
 Frc consts  --      1.4879                 1.5232                 1.5520
 IR Inten    --      0.5530                 5.9873                 3.8672

                     97                     98                     99
                      A                      A                      A
 Frequencies --   1540.5791              2892.1066              2902.2336
 Red. masses --      1.1044                 1.0790                 1.0739
 Frc consts  --      1.5443                 5.3173                 5.3293
 IR Inten    --      4.3942                18.0623                57.0007

                    100                    101                    102
                      A                      A                      A
 Frequencies --   2925.6106              2930.7146              2943.5795
 Red. masses --      1.0727                 1.0725                 1.0719
 Frc consts  --      5.4096                 5.4277                 5.4721
 IR Inten    --     52.6618                39.7022               150.4714

                    103                    104                    105
                      A                      A                      A
 Frequencies --   3007.6776              3029.3328              3039.1898
 Red. masses --      1.0588                 1.0664                 1.0602
 Frc consts  --      5.6431                 5.7658                 5.7694
 IR Inten    --     46.8167                27.2293                26.3888

                    106                    107                    108
                      A                      A                      A
 Frequencies --   3045.3555              3049.7932              3067.2978
 Red. masses --      1.0622                 1.1043                 1.0321
 Frc consts  --      5.8043                 6.0515                 5.7212
 IR Inten    --     19.5677                17.1491                24.7076

                    109                    110                    111
                      A                      A                      A
 Frequencies --   3068.8018              3071.8435              3074.8396
 Red. masses --      1.0871                 1.0602                 1.0877
 Frc consts  --      6.0320                 5.8943                 6.0591
 IR Inten    --     11.6679                35.6458                95.2435

                    112                    113                    114
                      A                      A                      A
 Frequencies --   3077.0143              3078.4963              3081.5122
 Red. masses --      1.0932                 1.0604                 1.0932
 Frc consts  --      6.0982                 5.9211                 6.1164
 IR Inten    --     29.2527                53.7512                31.4181

                    115                    116                    117
                      A                      A                      A
 Frequencies --   3084.7755              3087.7227              3092.2440
 Red. masses --      1.0766                 1.0819                 1.1050
 Frc consts  --      6.0362                 6.0773                 6.2250
 IR Inten    --     19.9499                51.6284                69.3648

                    118                    119                    120
                      A                      A                      A
 Frequencies --   3114.1727              3117.5177              3133.0419
 Red. masses --      1.0894                 1.1082                 1.1075
 Frc consts  --      6.2248                 6.3456                 6.4052
 IR Inten    --     13.8211                 8.8018                 4.3597

                    121                    122                    123
                      A                      A                      A
 Frequencies --   3141.9396              3145.1304              3182.0860
 Red. masses --      1.1070                 1.1045                 1.1049
 Frc consts  --      6.4386                 6.4373                 6.5918
 IR Inten    --     54.6844                14.1988                 0.0696

 - Thermochemistry -
 -------------------
 Temperature   298.150 Kelvin.  Pressure   1.00000 Atm.
 Atom     1 has atomic number  6 and mass  12.00000

 Molecular mass:   254.18167 amu.
 Principal axes and moments of inertia in atomic units:
                           1         2         3
     Eigenvalues --  2078.632518146.739169094.70106
           X            0.99995  -0.00977   0.00221
           Y            0.00979   0.99991  -0.00892
           Z           -0.00212   0.00894   0.99996
 This molecule is an asymmetric top.
 Rotational symmetry number  1.
 Warning -- assumption of classical behavior for rotation
           may cause significant error
 Rotational temperatures (Kelvin)      0.04167     0.01063     0.00952
 Rotational constants (GHZ):           0.86823     0.22153     0.19844
 Zero-point vibrational energy    1029782.2 (Joules/Mol)
                                  246.12386 (Kcal/Mol)
 Warning -- explicit consideration of  26 degrees of freedom as
           vibrations may cause significant error
 Vibrational temperatures:     43.30    65.46    75.13   168.77   171.53
          (Kelvin)            194.81   202.36   212.31   265.10   292.11
                              321.85   354.33   378.41   441.75   467.40
                              491.43   512.80   522.63   575.32   612.42
                              639.25   652.29   717.07   746.03   791.39
                              844.10   916.04  1005.85  1028.07  1104.44
                             1164.23  1189.11  1221.33  1228.92  1263.30
                             1277.01  1286.94  1327.16  1334.77  1360.05
                             1363.75  1399.91  1432.48  1437.38  1450.20
                             1455.06  1486.57  1533.03  1536.55  1559.93
                             1583.86  1584.88  1594.53  1620.59  1663.02
                             1678.51  1690.19  1705.78  1724.09  1737.54
                             1747.28  1763.94  1809.64  1818.07  1829.91
                             1849.69  1854.25  1857.77  1874.38  1891.78
                             1911.93  1932.57  1941.74  1970.89  1981.41
                             1992.97  2004.88  2020.02  2021.41  2029.16
                             2038.60  2045.99  2086.61  2097.62  2150.24
                             2164.54  2165.38  2172.26  2177.77  2181.00
                             2182.68  2184.73  2196.34  2201.40  2208.55
                             2214.40  2216.55  4161.10  4175.67  4209.30
                             4216.64  4235.15  4327.38  4358.53  4372.72
                             4381.59  4387.97  4413.16  4415.32  4419.70
                             4424.01  4427.14  4429.27  4433.61  4438.30
                             4442.54  4449.05  4480.60  4485.41  4507.75
                             4520.55  4525.14  4578.31

 Zero-point correction=                           0.392223 (Hartree/Particle)
 Thermal correction to Energy=                    0.409287
 Thermal correction to Enthalpy=                  0.410231
 Thermal correction to Gibbs Free Energy=         0.347276
 Sum of electronic and zero-point Energies=          -1056.499021
 Sum of electronic and thermal Energies=             -1056.481957
 Sum of electronic and thermal Enthalpies=           -1056.481013
 Sum of electronic and thermal Free Energies=        -1056.543968

                     E (Thermal)             CV                S
                      KCal/Mol        Cal/Mol-Kelvin    Cal/Mol-Kelvin
 Total                  256.832             67.447            132.500
 Electronic               0.000              0.000              0.000
 Translational            0.889              2.981             42.499
 Rotational               0.889              2.981             33.398
 Vibrational            255.054             61.486             56.603
 Vibration     1          0.594              1.984              5.823
 Vibration     2          0.595              1.979              5.004
 Vibration     3          0.596              1.977              4.731
 Vibration     4          0.608              1.935              3.144
 Vibration     5          0.609              1.933              3.113
 Vibration     6          0.613              1.918              2.868
 Vibration     7          0.615              1.913              2.795
 Vibration     8          0.617              1.905              2.703
 Vibration     9          0.631              1.861              2.285
 Vibration    10          0.639              1.836              2.106
 Vibration    11          0.649              1.805              1.929
 Vibration    12          0.661              1.769              1.757
 Vibration    13          0.670              1.741              1.642
 Vibration    14          0.697              1.660              1.378
 Vibration    15          0.709              1.626              1.286
 Vibration    16          0.721              1.592              1.205
 Vibration    17          0.732              1.562              1.138
 Vibration    18          0.737              1.548              1.108
 Vibration    19          0.766              1.470              0.963
 Vibration    20          0.787              1.414              0.873
 Vibration    21          0.804              1.373              0.813
 Vibration    22          0.812              1.353              0.786
 Vibration    23          0.854              1.254              0.662
 Vibration    24          0.874              1.209              0.613
 Vibration    25          0.905              1.140              0.544
 Vibration    26          0.944              1.060              0.473

 Optimization completed.
    -- Stationary point found.
 Normal termination of Gaussian 16 at Sun Dec 13 12:58:02 2020.

 ----------------------------------------------------------------------
 # B3LYP/6-311++G(d,p) empiricaldispersion=gd3bj scf=xqc pop=npa geom=c
 heck
 ----------------------------------------------------------------------

 ---------------------------------------
 CID_105824784_JID_7439_Energie_neutraal
 ---------------------------------------
 Structure from the checkpoint file:  "JID_7439.chk"
 Charge =  0 Multiplicity = 1

 SCF Done:  E(RB3LYP) =  -1057.09234057     A.U. after   14 cycles
 Normal termination of Gaussian 16 at Sun Dec 13 13:08:21 2020.

 ----------------------------------------------------------------------
 # B3LYP/6-311++G(d,p) empiricaldispersion=gd3bj scf=xqc pop=npa geom=c
 heck
 ----------------------------------------------------------------------

 -------------------------------------
 CID_105824784_JID_7439_Energie_kation
 -------------------------------------
 Structure from the checkpoint file:  "JID_7439.chk"
 Charge =  1 Multiplicity = 2

 SCF Done:  E(UB3LYP) =  -1056.82267293     A.U. after   25 cycles
 Normal termination of Gaussian 16 at Sun Dec 13 13:35:17 2020.
 Gaussian 16:  ES64L-G16RevA.03 25-Dec-2016

 ----------------------------------------------------------------------
 # B3LYP/6-311++G(d,p) empiricaldispersion=gd3bj scf=xqc pop=npa geom=c
 heck
 ----------------------------------------------------------------------

 ------------------------------------
 CID_105824784_JID_7439_Energie_anion
 ------------------------------------
 Structure from the checkpoint file:  "JID_7439.chk"
 Charge = -1 Multiplicity = 2

                         Standard orientation:
 ---------------------------------------------------------------------
 Center     Atomic      Atomic             Coordinates (Angstroms)
 Number     Number       Type             X           Y           Z
 ---------------------------------------------------------------------
      1          6           0       -1.914888   -1.825410    1.597757
      2         16           0       -3.064552   -1.533770    0.204332
      3          6           0       -2.750374    0.247874   -0.150428
      4          6           0       -4.003921    1.016958   -0.662911
      5          6           0       -3.634217    2.181002    0.293701
      6          6           0       -2.706004    1.209872    1.069427
      7          6           0       -1.569733    0.450666   -1.109433
      8          7           0       -0.281033    0.006762   -0.573764
      9          6           0        0.251869   -1.171401   -1.254893
     10          6           0        1.506207   -1.660127   -0.544529
     11          7           0        2.519829   -0.611989   -0.480513
     12          6           0        3.737094   -1.107186    0.159304
     13          6           0        4.841966   -0.052364    0.152159
     14          6           0        4.357175    1.227803    0.838344
     15          6           0        3.050405    1.698152    0.194307
     16          6           0        1.994410    0.587682    0.182719
     17          6           0        0.729168    1.057995   -0.534435
     18          1           0       -1.892151   -2.904602    1.770609
     19          1           0       -2.266017   -1.329378    2.506935
     20          1           0       -0.918551   -1.464479    1.341778
     21          1           0       -4.035625    1.230002   -1.736922
     22          1           0       -4.932717    0.520657   -0.371048
     23          1           0       -4.453439    2.635246    0.857734
     24          1           0       -3.080426    2.977804   -0.212073
     25          1           0       -3.208506    0.785589    1.942328
     26          1           0       -1.714787    1.561835    1.369607
     27          1           0       -1.794915   -0.066111   -2.052976
     28          1           0       -1.510387    1.521167   -1.354887
     29          1           0       -0.510179   -1.955392   -1.242671
     30          1           0        0.498909   -0.947762   -2.310743
     31          1           0        1.232243   -2.017391    0.468328
     32          1           0        1.925060   -2.514046   -1.090096
     33          1           0        3.536882   -1.419835    1.206043
     34          1           0        4.061746   -2.003338   -0.382793
     35          1           0        5.733727   -0.450893    0.650773
     36          1           0        5.115488    0.166771   -0.887815
     37          1           0        4.185790    1.025156    1.905265
     38          1           0        5.118987    2.014478    0.782352
     39          1           0        2.647442    2.570349    0.724209
     40          1           0        3.243507    2.004741   -0.842202
     41          1           0        1.715952    0.350130    1.231335
     42          1           0        1.007124    1.396335   -1.552123
     43          1           0        0.321168    1.920774    0.003149
 ---------------------------------------------------------------------

 SCF Done:  E(UB3LYP) =  -1057.07678264     A.U. after   32 cycles

 The electronic state is 2-A.
 Alpha  occ. eigenvalues --  -88.74011 -14.21426 -14.21190 -10.11629 -10.10751
 Alpha  occ. eigenvalues --  -10.10288 -10.10077 -10.10037 -10.09845 -10.09815
 Alpha  occ. eigenvalues --  -10.09284 -10.08361 -10.07912 -10.07668 -10.07161
 Alpha  occ. eigenvalues --  -10.07123 -10.07050  -7.82642  -5.79034  -5.78676
 Alpha  occ. eigenvalues --   -5.78011  -0.85966  -0.82190  -0.76977  -0.71164
 Alpha  occ. eigenvalues --   -0.68365  -0.67626  -0.65261  -0.62282  -0.57887
 Alpha  occ. eigenvalues --   -0.57031  -0.55493  -0.53746  -0.52904  -0.50828
 Alpha  occ. eigenvalues --   -0.46983  -0.46390  -0.43716  -0.40735  -0.39769
 Alpha  occ. eigenvalues --   -0.39219  -0.38543  -0.37109  -0.36631  -0.35710
 Alpha  occ. eigenvalues --   -0.35256  -0.33795  -0.33112  -0.32390  -0.31923
 Alpha  occ. eigenvalues --   -0.31444  -0.30693  -0.30313  -0.29290  -0.28219
 Alpha  occ. eigenvalues --   -0.27587  -0.27039  -0.26568  -0.25432  -0.25079
 Alpha  occ. eigenvalues --   -0.24288  -0.23620  -0.23468  -0.22348  -0.22005
 Alpha  occ. eigenvalues --   -0.21095  -0.19816  -0.13842  -0.13206  -0.12112
 Alpha  occ. eigenvalues --    0.04295
 Alpha virt. eigenvalues --    0.05819   0.06383   0.06843   0.07366   0.07965
 Alpha virt. eigenvalues --    0.08107   0.08669   0.08958   0.09733   0.09850
 Alpha virt. eigenvalues --    0.10196   0.10723   0.11113   0.11535   0.11871

  Beta  occ. eigenvalues --  -88.74008 -14.21422 -14.21175 -10.11628 -10.10745
  Beta  occ. eigenvalues --  -10.10282 -10.10068 -10.10033 -10.09831 -10.09802
  Beta  occ. eigenvalues --  -10.09261 -10.08357 -10.07883 -10.07645 -10.07145
  Beta  occ. eigenvalues --  -10.07104 -10.07035  -7.82639  -5.79028  -5.78671
  Beta  occ. eigenvalues --   -5.78010  -0.85949  -0.82173  -0.76960  -0.71137
  Beta  occ. eigenvalues --   -0.68341  -0.67600  -0.65240  -0.62255  -0.57853
  Beta  occ. eigenvalues --   -0.56991  -0.55463  -0.53713  -0.52867  -0.50769
  Beta  occ. eigenvalues --   -0.46946  -0.46349  -0.43682  -0.40696  -0.39747
  Beta  occ. eigenvalues --   -0.39191  -0.38517  -0.37084  -0.36608  -0.35680
  Beta  occ. eigenvalues --   -0.35227  -0.33768  -0.33087  -0.32365  -0.31887
  Beta  occ. eigenvalues --   -0.31419  -0.30671  -0.30289  -0.29260  -0.28193
  Beta  occ. eigenvalues --   -0.27552  -0.27020  -0.26537  -0.25406  -0.25050
  Beta  occ. eigenvalues --   -0.24254  -0.23592  -0.23441  -0.22318  -0.21972
  Beta  occ. eigenvalues --   -0.21070  -0.19794  -0.13819  -0.13131  -0.12094
  Beta virt. eigenvalues --    0.06268   0.06600   0.06891   0.07240   0.07818
  Beta virt. eigenvalues --    0.08278   0.08462   0.09030   0.09303   0.09930
  Beta virt. eigenvalues --    0.10126   0.10337   0.10949   0.11245   0.11783

 Mulliken charges and spin densities:
               1          2
     1  C   -0.259448  -0.413136
     2  S    0.166336  -0.092105
     3  C    1.054093   0.710370
     4  C   -0.807812   0.382124
     5  C    1.057702  -1.393919
     6  C   -0.071415  -0.344611
     7  C   -1.476254  -0.625131
     8  N    0.484147   0.047321
     9  C   -0.876011   0.592817
    10  C    0.778916  -0.755539
    11  N    0.163022   0.080897
    12  C    0.016923  -0.094576
    13  C    0.796421  -1.317004
    14  C   -0.746816   0.355253
    15  C    0.443646  -0.669639
    16  C   -0.912214   0.739919
    17  C    0.372332  -1.126817
    18  H   -0.104228   0.282357
    19  H   -0.081582   0.247173
    20  H   -0.063518   0.143041
    21  H    0.042566   0.108307
    22  H    0.089929   0.037861
    23  H   -0.335471   0.510582
    24  H   -0.301639   0.435694
    25  H    0.000275   0.154533
    26  H   -0.359602   0.518931
    27  H    0.149953   0.023276
    28  H    0.049409   0.086884
    29  H    0.042164   0.088694
    30  H    0.110557   0.005683
    31  H    0.087552   0.008519
    32  H   -0.042212   0.217573
    33  H   -0.055178   0.169454
    34  H   -0.077600   0.223682
    35  H   -0.342754   0.515145
    36  H    0.104314   0.022116
    37  H    0.057166   0.064818
    38  H   -0.426294   0.607204
    39  H   -0.355429   0.522341
    40  H    0.081907   0.049134
    41  H    0.110367   0.040783
    42  H    0.014063   0.103203
    43  H    0.421718  -0.263209
 Sum of Mulliken charges =  -1.00000   1.00000

 Dipole moment (field-independent basis, Debye):
    X=             -2.2982    Y=             -3.2022    Z=             -3.9140  Tot=              5.5548
 Quadrupole moment (field-independent basis, Debye-Ang):
   XX=           -218.5919   YY=           -170.3691   ZZ=           -150.6772
   XY=              2.9881   XZ=              1.2995   YZ=             -4.5388

 Summary of Natural Population Analysis:

                                       Natural Population
                Natural  -----------------------------------------------
    Atom  No    Charge         Core      Valence    Rydberg      Total
 -----------------------------------------------------------------------
      C    1   -0.35193      0.99961     2.34577    0.00655     3.35193
      S    2    0.08595      4.99954     2.89719    0.01732     7.91405
      C    3   -0.09703      0.99949     2.08044    0.01709     3.09703
      C    4   -0.18757      0.99958     2.17917    0.00881     3.18757
      C    5   -0.18973      0.99965     2.18113    0.00895     3.18973
      C    6   -0.18941      0.99957     2.17953    0.01031     3.18941
      C    7   -0.08473      0.99952     2.07188    0.01333     3.08473
      N    8   -0.29437      0.99970     2.78163    0.01305     3.79437
      C    9   -0.08596      0.99961     2.07765    0.00870     3.08596
      C   10   -0.08694      0.99961     2.07596    0.01137     3.08694
      N   11   -0.28135      0.99969     2.77130    0.01037     3.78135
      C   12   -0.08150      0.99962     2.07051    0.01138     3.08150
      C   13   -0.19326      0.99963     2.18459    0.00905     3.19326
      C   14   -0.18783      0.99963     2.18002    0.00818     3.18783
      C   15   -0.19210      0.99961     2.18257    0.00993     3.19210
      C   16   -0.00957      0.99957     1.99659    0.01341     3.00957
      C   17   -0.07975      0.99958     2.06874    0.01143     3.07975
      H   18    0.10397      0.00000     0.39516    0.00087     0.39603
      H   19    0.10021      0.00000     0.39827    0.00152     0.39979
      H   20    0.11245      0.00000     0.38504    0.00251     0.38755
      H   21    0.09638      0.00000     0.40277    0.00085     0.40362
      H   22    0.10373      0.00000     0.39504    0.00124     0.39627
      H   23    0.09908      0.00000     0.39957    0.00135     0.40092
      H   24    0.09790      0.00000     0.40027    0.00183     0.40210
      H   25    0.10282      0.00000     0.39583    0.00135     0.39718
      H   26    0.10398      0.00000     0.39421    0.00181     0.39602
      H   27    0.09450      0.00000     0.40423    0.00127     0.40550
      H   28    0.09632      0.00000     0.40206    0.00162     0.40368
      H   29    0.10482      0.00000     0.39390    0.00128     0.39518
      H   30    0.08193      0.00000     0.41661    0.00146     0.41807
      H   31    0.08270      0.00000     0.41556    0.00174     0.41730
      H   32    0.09643      0.00000     0.40253    0.00103     0.40357
      H   33    0.07923      0.00000     0.41922    0.00155     0.42077
      H   34    0.09564      0.00000     0.40307    0.00129     0.40436
      H   35    0.10027      0.00000     0.39853    0.00120     0.39973
      H   36    0.09546      0.00000     0.40311    0.00142     0.40454
      H   37    0.09448      0.00000     0.40410    0.00143     0.40552
      H   38    0.10009      0.00000     0.39868    0.00123     0.39991
      H   39    0.10286      0.00000     0.39605    0.00110     0.39714
      H   40    0.09620      0.00000     0.40227    0.00153     0.40380
      H   41    0.08270      0.00000     0.41447    0.00283     0.41730
      H   42    0.08182      0.00000     0.41656    0.00162     0.41818
      H   43    0.10113      0.00000     0.39747    0.00140     0.39887
 =======================================================================
   * Total *   -0.00000     20.99319    48.77924    0.22757    70.00000

 Normal termination of Gaussian 16 at Sun Dec 13 14:09:03 2020.
