 Gaussian 16, Revision A.03,

 -----------------------------------------------------------
 # opt freq B3LYP/6-31G(d) empiricaldispersion=gd3bj scf=xqc
 -----------------------------------------------------------

 ------------------------------
 CID_20267293_JID_7520_neutraal
 ------------------------------
 Symbolic Z-matrix:
 Charge =  0 Multiplicity = 1

 SCF Done:  E(RB3LYP) =  -1214.32191846     A.U. after   15 cycles
 SCF Done:  E(RB3LYP) =  -1214.33181800     A.U. after   13 cycles
 SCF Done:  E(RB3LYP) =  -1214.33305428     A.U. after   12 cycles
 SCF Done:  E(RB3LYP) =  -1214.33353791     A.U. after   12 cycles
 SCF Done:  E(RB3LYP) =  -1214.33414258     A.U. after   13 cycles
 SCF Done:  E(RB3LYP) =  -1214.33484906     A.U. after   13 cycles
 SCF Done:  E(RB3LYP) =  -1214.33557307     A.U. after   14 cycles
 SCF Done:  E(RB3LYP) =  -1214.33576812     A.U. after   12 cycles
 SCF Done:  E(RB3LYP) =  -1214.33580397     A.U. after   10 cycles
 SCF Done:  E(RB3LYP) =  -1214.33581210     A.U. after   10 cycles
 SCF Done:  E(RB3LYP) =  -1214.33501287     A.U. after   12 cycles
 SCF Done:  E(RB3LYP) =  -1214.33585627     A.U. after   11 cycles
 SCF Done:  E(RB3LYP) =  -1214.33586112     A.U. after    7 cycles
 SCF Done:  E(RB3LYP) =  -1214.33573951     A.U. after   12 cycles
 SCF Done:  E(RB3LYP) =  -1214.33586398     A.U. after   12 cycles
 SCF Done:  E(RB3LYP) =  -1214.33586407     A.U. after    9 cycles
 Optimization completed.
    -- Stationary point found.
 Normal termination of Gaussian 16 at Fri Dec 11 12:47:30 2020.

 --------------------------------------------------------------------
 #N Geom=AllCheck Guess=TCheck SCRF=Check GenChk RB3LYP/6-31G(d) Freq
 --------------------------------------------------------------------

 Structure from the checkpoint file:  "JID_7520.chk"
 ------------------------------
 CID_20267293_JID_7520_neutraal
 ------------------------------
 Charge =  0 Multiplicity = 1

 SCF Done:  E(RB3LYP) =  -1214.33586407     A.U. after    1 cycles

  Exact polarizability: 236.339 -17.573 140.006  -2.305  -1.928  62.966
 Approx polarizability: 334.431 -57.485 284.429  -8.942  -5.454 103.131

                      1                      2                      3
                      A                      A                      A
 Frequencies --     19.0105                37.4124                44.7949
 Red. masses --     10.1438                 4.3146                 8.0338
 Frc consts  --      0.0022                 0.0036                 0.0095
 IR Inten    --      0.7495                 1.8522                 1.4454

                      4                      5                      6
                      A                      A                      A
 Frequencies --     92.9046               112.7489               127.3932
 Red. masses --      8.6914                 3.4452                 2.0183
 Frc consts  --      0.0442                 0.0258                 0.0193
 IR Inten    --      1.0356                31.2796                47.7314

                      7                      8                      9
                      A                      A                      A
 Frequencies --    131.6586               183.2230               202.4662
 Red. masses --     12.1252                 7.7131                 7.8424
 Frc consts  --      0.1238                 0.1526                 0.1894
 IR Inten    --      2.0025                 0.9471                 2.0741

                     10                     11                     12
                      A                      A                      A
 Frequencies --    215.1672               303.0827               334.4810
 Red. masses --      5.1968                 7.3956                 4.7461
 Frc consts  --      0.1418                 0.4003                 0.3128
 IR Inten    --      4.8923                 2.3012                 7.0948

                     13                     14                     15
                      A                      A                      A
 Frequencies --    360.7216               383.0611               409.8243
 Red. masses --      5.8236                 8.3050                 3.0042
 Frc consts  --      0.4465                 0.7180                 0.2973
 IR Inten    --      1.3048                39.6096                 0.0882

                     16                     17                     18
                      A                      A                      A
 Frequencies --    429.5898               445.8589               461.1319
 Red. masses --      5.5537                 8.3711                 6.1872
 Frc consts  --      0.6039                 0.9805                 0.7752
 IR Inten    --      4.3247                 9.2383                 6.3967

                     19                     20                     21
                      A                      A                      A
 Frequencies --    491.0331               524.0565               553.0710
 Red. masses --      7.5230                 1.1490                 2.9339
 Frc consts  --      1.0687                 0.1859                 0.5288
 IR Inten    --      2.4315               142.1303                 6.0170

                     22                     23                     24
                      A                      A                      A
 Frequencies --    586.1121               620.8596               647.2917
 Red. masses --     11.4118                 5.1767                 7.2089
 Frc consts  --      2.3098                 1.1757                 1.7796
 IR Inten    --    135.6776                11.6536                 4.1733

                     25                     26                     27
                      A                      A                      A
 Frequencies --    666.1623               699.7506               705.9616
 Red. masses --      7.6598                 4.1187                 6.9980
 Frc consts  --      2.0028                 1.1882                 2.0549
 IR Inten    --     14.8588                 5.4510                29.7520

                     28                     29                     30
                      A                      A                      A
 Frequencies --    737.7260               764.3503               775.2863
 Red. masses --      4.7859                 6.8924                 6.1941
 Frc consts  --      1.5346                 2.3725                 2.1936
 IR Inten    --     16.9269                65.1213                 4.0366

                     31                     32                     33
                      A                      A                      A
 Frequencies --    800.5390               850.8642               862.9942
 Red. masses --     10.5447                 1.4152                 1.4046
 Frc consts  --      3.9815                 0.6036                 0.6163
 IR Inten    --    274.9589                16.0821                45.6500

                     34                     35                     36
                      A                      A                      A
 Frequencies --    882.0238               945.4018               976.7079
 Red. masses --      1.6027                 3.9931                 1.4487
 Frc consts  --      0.7346                 2.1028                 0.8142
 IR Inten    --      6.3807                11.4950                 2.5102

                     37                     38                     39
                      A                      A                      A
 Frequencies --    981.0519               998.2609              1039.7261
 Red. masses --      2.8569                 1.3137                 3.5280
 Frc consts  --      1.6200                 0.7713                 2.2471
 IR Inten    --     17.5874                 1.7780                 5.7457

                     40                     41                     42
                      A                      A                      A
 Frequencies --   1105.1810              1136.4417              1139.2747
 Red. masses --      3.7751                 2.4888                 1.8900
 Frc consts  --      2.7167                 1.8938                 1.4454
 IR Inten    --     21.1791                30.6593                87.5200

                     43                     44                     45
                      A                      A                      A
 Frequencies --   1153.0010              1185.5527              1229.1193
 Red. masses --      1.4481                 2.3808                 1.1919
 Frc consts  --      1.1342                 1.9716                 1.0609
 IR Inten    --      9.4389               244.5131                 6.6348

                     46                     47                     48
                      A                      A                      A
 Frequencies --   1253.2108              1310.3593              1346.6964
 Red. masses --      1.8301                 4.6874                 1.7842
 Frc consts  --      1.6934                 4.7420                 1.9065
 IR Inten    --      4.1351               103.2191                38.7917

                     49                     50                     51
                      A                      A                      A
 Frequencies --   1353.1893              1360.2076              1362.8628
 Red. masses --      2.3521                 2.9298                 5.7054
 Frc consts  --      2.5376                 3.1938                 6.2437
 IR Inten    --     14.2556                97.8030               159.4246

                     52                     53                     54
                      A                      A                      A
 Frequencies --   1377.6454              1453.3528              1542.6858
 Red. masses --      8.3984                 2.8858                 2.2478
 Frc consts  --      9.3912                 3.5914                 3.1518
 IR Inten    --    104.0293                24.0446                 5.9807

                     55                     56                     57
                      A                      A                      A
 Frequencies --   1618.8184              1657.5082              1666.7782
 Red. masses --      6.6122                 5.4575                 8.4309
 Frc consts  --     10.2093                 8.8340                13.8000
 IR Inten    --     10.4152                 1.2611                37.8659

                     58                     59                     60
                      A                      A                      A
 Frequencies --   1824.9581              1862.4671              3212.3606
 Red. masses --      9.9758                12.4001                 1.0888
 Frc consts  --     19.5750                25.3427                 6.6198
 IR Inten    --    599.9250               114.9065                 3.8773

                     61                     62                     63
                      A                      A                      A
 Frequencies --   3232.5503              3235.2141              3260.0282
 Red. masses --      1.0908                 1.0938                 1.0930
 Frc consts  --      6.7159                 6.7449                 6.8442
 IR Inten    --      0.6573                 1.0221                 5.1155

                     64                     65                     66
                      A                      A                      A
 Frequencies --   3266.9838              3650.2464              3700.4997
 Red. masses --      1.0964                 1.0802                 1.0660
 Frc consts  --      6.8949                 8.4798                 8.6002
 IR Inten    --      1.4285               109.6548               137.5723

 - Thermochemistry -
 -------------------
 Temperature   298.150 Kelvin.  Pressure   1.00000 Atm.
 Atom     1 has atomic number  6 and mass  12.00000

 Molecular mass:   253.00449 amu.
 Principal axes and moments of inertia in atomic units:
                           1         2         3
     Eigenvalues --  1301.75290********************
           X            1.00000   0.00194   0.00234
           Y           -0.00193   0.99999  -0.00368
           Z           -0.00234   0.00367   0.99999
 This molecule is an asymmetric top.
 Rotational symmetry number  1.
 Warning -- assumption of classical behavior for rotation
           may cause significant error
 Rotational temperatures (Kelvin)      0.06654     0.00825     0.00760
 Rotational constants (GHZ):           1.38639     0.17194     0.15838
 Zero-point vibrational energy     430063.2 (Joules/Mol)
                                  102.78758 (Kcal/Mol)
 Warning -- explicit consideration of  22 degrees of freedom as
           vibrations may cause significant error
 Vibrational temperatures:     27.35    53.83    64.45   133.67   162.22
          (Kelvin)            183.29   189.43   263.62   291.30   309.58
                              436.07   481.24   519.00   551.14   589.65
                              618.08   641.49   663.47   706.49   754.00
                              795.75   843.28   893.28   931.31   958.46
                             1006.79  1015.72  1061.42  1099.73  1115.46
                             1151.80  1224.20  1241.66  1269.04  1360.22
                             1405.26  1411.51  1436.27  1495.93  1590.11
                             1635.09  1639.16  1658.91  1705.75  1768.43
                             1803.09  1885.31  1937.60  1946.94  1957.04
                             1960.86  1982.12  2091.05  2219.58  2329.12
                             2384.78  2398.12  2625.71  2679.67  4621.87
                             4650.92  4654.75  4690.45  4700.46  5251.89
                             5324.19

 Zero-point correction=                           0.163802 (Hartree/Particle)
 Thermal correction to Energy=                    0.178685
 Thermal correction to Enthalpy=                  0.179629
 Thermal correction to Gibbs Free Energy=         0.119386
 Sum of electronic and zero-point Energies=          -1214.172062
 Sum of electronic and thermal Energies=             -1214.157179
 Sum of electronic and thermal Enthalpies=           -1214.156235
 Sum of electronic and thermal Free Energies=        -1214.216478

                     E (Thermal)             CV                S
                      KCal/Mol        Cal/Mol-Kelvin    Cal/Mol-Kelvin
 Total                  112.127             55.268            126.793
 Electronic               0.000              0.000              0.000
 Translational            0.889              2.981             42.485
 Rotational               0.889              2.981             33.409
 Vibrational            110.349             49.306             50.899
 Vibration     1          0.593              1.986              6.735
 Vibration     2          0.594              1.982              5.392
 Vibration     3          0.595              1.979              5.035
 Vibration     4          0.602              1.954              3.598
 Vibration     5          0.607              1.939              3.221
 Vibration     6          0.611              1.926              2.985
 Vibration     7          0.612              1.922              2.922
 Vibration     8          0.631              1.863              2.295
 Vibration     9          0.639              1.836              2.111
 Vibration    10          0.645              1.818              1.999
 Vibration    11          0.695              1.668              1.400
 Vibration    12          0.716              1.607              1.238
 Vibration    13          0.735              1.553              1.119
 Vibration    14          0.752              1.506              1.027
 Vibration    15          0.774              1.449              0.927
 Vibration    16          0.791              1.406              0.860
 Vibration    17          0.805              1.370              0.808
 Vibration    18          0.819              1.336              0.763
 Vibration    19          0.847              1.270              0.681
 Vibration    20          0.879              1.197              0.601
 Vibration    21          0.908              1.133              0.538
 Vibration    22          0.943              1.061              0.474

                           ! Non-Optimized Parameters !
 Normal termination of Gaussian 16 at Fri Dec 11 12:55:27 2020.

 ----------------------------------------------------------------------
 # B3LYP/6-311++G(d,p) empiricaldispersion=gd3bj scf=xqc pop=npa geom=c
 heck
 ----------------------------------------------------------------------

 --------------------------------------
 CID_20267293_JID_7520_Energie_neutraal
 --------------------------------------
 Structure from the checkpoint file:  "JID_7520.chk"
 Charge =  0 Multiplicity = 1

 SCF Done:  E(RB3LYP) =  -1214.59943086     A.U. after   17 cycles
 Normal termination of Gaussian 16 at Fri Dec 11 12:59:24 2020.

 ----------------------------------------------------------------------
 # B3LYP/6-311++G(d,p) empiricaldispersion=gd3bj scf=xqc pop=npa geom=c
 heck
 ----------------------------------------------------------------------

 ------------------------------------
 CID_20267293_JID_7520_Energie_kation
 ------------------------------------
 Structure from the checkpoint file:  "JID_7520.chk"
 Charge =  1 Multiplicity = 2

 SCF Done:  E(UB3LYP) =  -1214.25435101     A.U. after   32 cycles
 Normal termination of Gaussian 16 at Fri Dec 11 13:09:57 2020.
 Gaussian 16:  ES64L-G16RevA.03 25-Dec-2016

 ----------------------------------------------------------------------
 # B3LYP/6-311++G(d,p) empiricaldispersion=gd3bj scf=xqc pop=npa geom=c
 heck
 ----------------------------------------------------------------------

 -----------------------------------
 CID_20267293_JID_7520_Energie_anion
 -----------------------------------
 Structure from the checkpoint file:  "JID_7520.chk"
 Charge = -1 Multiplicity = 2

                         Standard orientation:
 ---------------------------------------------------------------------
 Center     Atomic      Atomic             Coordinates (Angstroms)
 Number     Number       Type             X           Y           Z
 ---------------------------------------------------------------------
      1          6           0        0.117896   -1.257853    0.268371
      2          6           0       -1.269519   -1.252252    0.287457
      3          6           0       -1.940270   -0.044558    0.085721
      4          6           0       -1.250760    1.148854   -0.117895
      5          6           0        0.140527    1.133586   -0.139505
      6          6           0        0.843002   -0.071713    0.044060
      7          6           0        2.305697   -0.112557    0.001432
      8          6           0        3.118877   -1.183704   -0.105894
      9          6           0        4.543935   -0.748644   -0.096707
     10          8           0        5.545457   -1.426291   -0.171557
     11          7           0        4.498958    0.646949    0.015760
     12          6           0        3.196417    1.122306    0.078397
     13          8           0        2.873591    2.288196    0.175666
     14         16           0       -3.722432   -0.030846    0.097775
     15          8           0       -4.209299   -1.260380    0.723760
     16          8           0       -4.172384    1.286153    0.518364
     17          8           0       -4.051606   -0.165634   -1.511250
     18          1           0        0.645979   -2.188274    0.448706
     19          1           0       -1.831777   -2.159611    0.476601
     20          1           0       -1.797680    2.076124   -0.245879
     21          1           0        0.691842    2.052757   -0.286994
     22          1           0        2.854647   -2.227992   -0.204612
     23          1           0        5.315092    1.241941    0.048482
     24          1           0       -4.532774   -1.007190   -1.623526
 ---------------------------------------------------------------------

 SCF Done:  E(UB3LYP) =  -1214.67405683     A.U. after   23 cycles

 The electronic state is 2-A.
 Alpha  occ. eigenvalues --  -88.98718 -19.08877 -19.03871 -19.03556 -18.97563
 Alpha  occ. eigenvalues --  -18.96841 -14.22210 -10.15120 -10.14167 -10.09883
 Alpha  occ. eigenvalues --  -10.08513 -10.08021 -10.07883 -10.07049 -10.06329
 Alpha  occ. eigenvalues --  -10.05373 -10.03772  -8.04806  -6.01221  -6.01026
 Alpha  occ. eigenvalues --   -6.00796  -1.06146  -0.95480  -0.93320  -0.93285
 Alpha  occ. eigenvalues --   -0.91483  -0.81792  -0.76686  -0.69723  -0.65192
 Alpha  occ. eigenvalues --   -0.65161  -0.59042  -0.53819  -0.51614  -0.51021
 Alpha  occ. eigenvalues --   -0.47286  -0.45994  -0.45372  -0.43151  -0.39613
 Alpha  occ. eigenvalues --   -0.37486  -0.37044  -0.35686  -0.34552  -0.34227
 Alpha  occ. eigenvalues --   -0.33331  -0.32993  -0.31678  -0.30531  -0.29286
 Alpha  occ. eigenvalues --   -0.28769  -0.27952  -0.27144  -0.26604  -0.25925
 Alpha  occ. eigenvalues --   -0.24951  -0.24121  -0.23068  -0.22423  -0.19696
 Alpha  occ. eigenvalues --   -0.16693  -0.16152  -0.15753  -0.13022  -0.12936
 Alpha  occ. eigenvalues --   -0.01498
 Alpha virt. eigenvalues --    0.06111   0.07018   0.08479   0.09087   0.09818
 Alpha virt. eigenvalues --    0.10416   0.11487   0.12598   0.13544   0.13758
 Alpha virt. eigenvalues --    0.14190   0.14451   0.15098   0.15854   0.15985

  Beta  occ. eigenvalues --  -88.98715 -19.08849 -19.03859 -19.03541 -18.97306
  Beta  occ. eigenvalues --  -18.96453 -14.22273 -10.15022 -10.14072 -10.09719
  Beta  occ. eigenvalues --  -10.08547 -10.08012 -10.07822 -10.06959 -10.06272
  Beta  occ. eigenvalues --  -10.05199 -10.03377  -8.04803  -6.01204  -6.01024
  Beta  occ. eigenvalues --   -6.00798  -1.06102  -0.95427  -0.93258  -0.92902
  Beta  occ. eigenvalues --   -0.90897  -0.81555  -0.76493  -0.69305  -0.65025
  Beta  occ. eigenvalues --   -0.64745  -0.58819  -0.53148  -0.51522  -0.50732
  Beta  occ. eigenvalues --   -0.47079  -0.45820  -0.45116  -0.43069  -0.39561
  Beta  occ. eigenvalues --   -0.37265  -0.36924  -0.35544  -0.34434  -0.34016
  Beta  occ. eigenvalues --   -0.32959  -0.32348  -0.31391  -0.30218  -0.29070
  Beta  occ. eigenvalues --   -0.28447  -0.27621  -0.26925  -0.25798  -0.25056
  Beta  occ. eigenvalues --   -0.24810  -0.24065  -0.22938  -0.22347  -0.18460
  Beta  occ. eigenvalues --   -0.15774  -0.15483  -0.15373  -0.12595  -0.11374
  Beta virt. eigenvalues --    0.04199   0.06183   0.08359   0.08858   0.09110
  Beta virt. eigenvalues --    0.09823   0.10416   0.11494   0.12608   0.13596
  Beta virt. eigenvalues --    0.13796   0.14338   0.14540   0.15171   0.15886

 Mulliken charges and spin densities:
               1          2
     1  C   -0.596139   0.084977
     2  C   -0.262728  -0.015865
     3  C   -0.743531   0.090902
     4  C   -0.508333   0.019643
     5  C   -0.484811   0.061965
     6  C    1.072135   0.020391
     7  C   -0.043503   0.140544
     8  C    0.229486   0.282859
     9  C   -0.296276   0.083226
    10  O   -0.431258   0.135489
    11  N   -0.271147  -0.042799
    12  C    0.296681   0.049139
    13  O   -0.393779   0.093688
    14  S    0.589795   0.019546
    15  O   -0.255994   0.001759
    16  O   -0.167969   0.002053
    17  O   -0.135751  -0.000447
    18  H    0.084949  -0.004968
    19  H    0.211144   0.002014
    20  H    0.205048  -0.000824
    21  H    0.173649  -0.003182
    22  H    0.142773  -0.021269
    23  H    0.308299  -0.000247
    24  H    0.277259   0.001408
 Sum of Mulliken charges =  -1.00000   1.00000

 Dipole moment (field-independent basis, Debye):
    X=             -5.7544    Y=             -1.2729    Z=             -1.6813  Tot=              6.1287
 Quadrupole moment (field-independent basis, Debye-Ang):
   XX=           -192.1700   YY=           -121.8878   ZZ=           -112.0396
   XY=             17.4490   XZ=             10.5409   YZ=              0.6653

 Summary of Natural Population Analysis:

                                       Natural Population
                Natural  -----------------------------------------------
    Atom  No    Charge         Core      Valence    Rydberg      Total
 -----------------------------------------------------------------------
      C    1   -0.06707      0.99945     2.05938    0.00824     3.06707
      C    2   -0.11180      0.99953     2.10169    0.01058     3.11180
      C    3   -0.12227      0.99936     2.10835    0.01456     3.12227
      C    4   -0.09760      0.99953     2.08768    0.01039     3.09760
      C    5   -0.07247      0.99946     2.06453    0.00848     3.07247
      C    6   -0.00291      0.99939     1.99331    0.01020     3.00291
      C    7   -0.03446      0.99945     2.02496    0.01005     3.03446
      C    8   -0.03092      0.99946     2.02385    0.00761     3.03092
      C    9    0.33909      0.99970     1.63833    0.02288     2.66091
      O   10   -0.26303      0.99987     3.25649    0.00666     4.26303
      N   11   -0.34968      0.99964     2.83972    0.01031     3.84968
      C   12    0.35530      0.99967     1.62295    0.02208     2.64470
      O   13   -0.28582      0.99987     3.27933    0.00662     4.28582
      S   14    1.12576      4.99927     1.77025    0.10472     6.87424
      O   15   -0.46594      0.99990     3.46024    0.00580     4.46594
      O   16   -0.44854      0.99990     3.44266    0.00598     4.44854
      O   17   -0.43759      0.99991     3.43063    0.00705     4.43759
      H   18    0.09957      0.00000     0.39866    0.00177     0.40043
      H   19    0.10884      0.00000     0.39001    0.00115     0.39116
      H   20    0.10929      0.00000     0.38957    0.00114     0.39071
      H   21    0.11881      0.00000     0.37994    0.00125     0.38119
      H   22    0.09393      0.00000     0.40495    0.00112     0.40607
      H   23    0.19648      0.00000     0.30177    0.00175     0.30352
      H   24    0.24305      0.00000     0.25360    0.00335     0.25695
 =======================================================================
   * Total *    0.00001     20.99337    43.72287    0.28375    64.99999

 Normal termination of Gaussian 16 at Fri Dec 11 13:17:26 2020.
