 Gaussian 16, Revision A.03,

 -----------------------------------------------------------
 # opt freq B3LYP/6-31G(d) empiricaldispersion=gd3bj scf=xqc
 -----------------------------------------------------------

 ------------------------------
 CID_18615988_JID_3573_neutraal
 ------------------------------
 Symbolic Z-matrix:
 Charge =  0 Multiplicity = 1

 SCF Done:  E(RB3LYP) =  -600.065376645     A.U. after   13 cycles
 SCF Done:  E(RB3LYP) =  -600.068203083     A.U. after   11 cycles
 SCF Done:  E(RB3LYP) =  -600.068626100     A.U. after   11 cycles
 SCF Done:  E(RB3LYP) =  -600.068687055     A.U. after   10 cycles
 SCF Done:  E(RB3LYP) =  -600.068748886     A.U. after   10 cycles
 SCF Done:  E(RB3LYP) =  -600.068753117     A.U. after    9 cycles
 SCF Done:  E(RB3LYP) =  -600.068753062     A.U. after    8 cycles
 SCF Done:  E(RB3LYP) =  -600.068754779     A.U. after    7 cycles
 SCF Done:  E(RB3LYP) =  -600.068754855     A.U. after    7 cycles
 SCF Done:  E(RB3LYP) =  -600.068755063     A.U. after    6 cycles
 SCF Done:  E(RB3LYP) =  -600.068754842     A.U. after    6 cycles
 SCF Done:  E(RB3LYP) =  -600.068754853     A.U. after    6 cycles
 SCF Done:  E(RB3LYP) =  -600.068754866     A.U. after    6 cycles
 Optimization completed.
    -- Stationary point found.
 Normal termination of Gaussian 16 at Mon Dec 14 13:14:31 2020.

 --------------------------------------------------------------------
 #N Geom=AllCheck Guess=TCheck SCRF=Check GenChk RB3LYP/6-31G(d) Freq
 --------------------------------------------------------------------

 Structure from the checkpoint file:  "JID_3573.chk"
 ------------------------------
 CID_18615988_JID_3573_neutraal
 ------------------------------
 Charge =  0 Multiplicity = 1

 SCF Done:  E(RB3LYP) =  -600.068754866     A.U. after    1 cycles

  Exact polarizability: 151.746  -0.853 109.325  -0.338   2.897 105.490
 Approx polarizability: 171.462  -2.213 163.341  -2.436   5.041 158.924

                      1                      2                      3
                      A                      A                      A
 Frequencies --     31.9767                35.6355                47.1459
 Red. masses --      4.0647                 3.8116                 3.8028
 Frc consts  --      0.0024                 0.0029                 0.0050
 IR Inten    --      0.4559                 0.3681                 0.9535

                      4                      5                      6
                      A                      A                      A
 Frequencies --     59.7998                70.8772                82.9129
 Red. masses --      3.7804                 3.4552                 3.3972
 Frc consts  --      0.0080                 0.0102                 0.0138
 IR Inten    --      0.4763                 0.3459                 0.1294

                      7                      8                      9
                      A                      A                      A
 Frequencies --    123.9274               148.8810               205.6523
 Red. masses --      2.7108                 2.4747                 1.7400
 Frc consts  --      0.0245                 0.0323                 0.0434
 IR Inten    --      0.3696                 0.6221                 0.1010

                     10                     11                     12
                      A                      A                      A
 Frequencies --    216.7818               234.2114               258.4513
 Red. masses --      1.2455                 2.8350                 1.7258
 Frc consts  --      0.0345                 0.0916                 0.0679
 IR Inten    --     44.3964                 1.2727                 1.1575

                     13                     14                     15
                      A                      A                      A
 Frequencies --    296.9580               311.7658               326.9560
 Red. masses --      1.8649                 2.1144                 1.9732
 Frc consts  --      0.0969                 0.1211                 0.1243
 IR Inten    --      6.5385                 2.4891                 5.5710

                     16                     17                     18
                      A                      A                      A
 Frequencies --    365.5384               378.2976               396.7982
 Red. masses --      1.9747                 1.3674                 1.7934
 Frc consts  --      0.1555                 0.1153                 0.1664
 IR Inten    --      2.0855               123.9629                 2.5952

                     19                     20                     21
                      A                      A                      A
 Frequencies --    435.1257               463.2568               487.3387
 Red. masses --      1.9130                 2.6473                 1.9070
 Frc consts  --      0.2134                 0.3347                 0.2668
 IR Inten    --      3.1946                 2.5691                 4.9779

                     22                     23                     24
                      A                      A                      A
 Frequencies --    524.4958               561.8056               585.8417
 Red. masses --      2.1314                 3.0511                 4.5985
 Frc consts  --      0.3455                 0.5674                 0.9299
 IR Inten    --      5.1674                 0.6066                 3.7592

                     25                     26                     27
                      A                      A                      A
 Frequencies --    704.3351               719.9400               754.9873
 Red. masses --      1.2549                 1.4291                 1.5229
 Frc consts  --      0.3668                 0.4364                 0.5114
 IR Inten    --     25.6173                 0.6212                 1.3857

                     28                     29                     30
                      A                      A                      A
 Frequencies --    798.1778               808.7580               824.3353
 Red. masses --      2.5200                 2.0212                 3.2065
 Frc consts  --      0.9459                 0.7789                 1.2838
 IR Inten    --     13.7861                 3.9176                54.9640

                     31                     32                     33
                      A                      A                      A
 Frequencies --    856.2784               863.5748               892.0647
 Red. masses --      2.4231                 2.0012                 2.0931
 Frc consts  --      1.0468                 0.8793                 0.9814
 IR Inten    --     34.7439                12.4013                39.2927

                     34                     35                     36
                      A                      A                      A
 Frequencies --    924.7195               940.8612               976.9058
 Red. masses --      2.2714                 1.7261                 1.5609
 Frc consts  --      1.1443                 0.9003                 0.8777
 IR Inten    --     14.6454                 8.5114                 1.8254

                     37                     38                     39
                      A                      A                      A
 Frequencies --    982.4218              1014.8024              1027.4631
 Red. masses --      2.2292                 1.7532                 1.7683
 Frc consts  --      1.2677                 1.0638                 1.0998
 IR Inten    --      7.3958                 1.2804                 4.0448

                     40                     41                     42
                      A                      A                      A
 Frequencies --   1034.3053              1071.6550              1083.2810
 Red. masses --      1.7412                 2.5468                 1.3886
 Frc consts  --      1.0975                 1.7233                 0.9601
 IR Inten    --      4.4731                 6.2671                 1.1622

                     43                     44                     45
                      A                      A                      A
 Frequencies --   1084.0645              1105.3824              1131.2137
 Red. masses --      1.5155                 2.1415                 2.1769
 Frc consts  --      1.0493                 1.5417                 1.6413
 IR Inten    --      5.3210                 1.3513                 0.6214

                     46                     47                     48
                      A                      A                      A
 Frequencies --   1155.3433              1157.2345              1199.5004
 Red. masses --      2.0901                 2.2468                 1.3434
 Frc consts  --      1.6438                 1.7728                 1.1388
 IR Inten    --      1.0414                 1.7789                 0.8419

                     49                     50                     51
                      A                      A                      A
 Frequencies --   1205.6248              1249.0395              1253.6892
 Red. masses --      1.4345                 1.2209                 1.2884
 Frc consts  --      1.2285                 1.1222                 1.1931
 IR Inten    --      3.1507                 1.4148                 1.3016

                     52                     53                     54
                      A                      A                      A
 Frequencies --   1284.7383              1307.3222              1325.8978
 Red. masses --      1.2543                 1.2148                 1.1565
 Frc consts  --      1.2198                 1.2233                 1.1978
 IR Inten    --      1.5731                 3.0014                 0.4213

                     55                     56                     57
                      A                      A                      A
 Frequencies --   1342.6768              1352.1485              1360.2105
 Red. masses --      1.1202                 1.1011                 1.0925
 Frc consts  --      1.1898                 1.1861                 1.1910
 IR Inten    --      8.0007                37.6854                20.4980

                     58                     59                     60
                      A                      A                      A
 Frequencies --   1375.7271              1382.3821              1391.3029
 Red. masses --      1.3500                 1.5857                 1.3648
 Frc consts  --      1.5054                 1.7854                 1.5565
 IR Inten    --     17.9732                 2.5851                 1.2760

                     61                     62                     63
                      A                      A                      A
 Frequencies --   1401.5805              1407.2353              1419.7354
 Red. masses --      1.4876                 1.3703                 1.4162
 Frc consts  --      1.7217                 1.5988                 1.6819
 IR Inten    --      0.8830                 3.7686                 0.9510

                     64                     65                     66
                      A                      A                      A
 Frequencies --   1420.7299              1429.5905              1430.4052
 Red. masses --      1.4063                 1.4230                 1.4403
 Frc consts  --      1.6724                 1.7135                 1.7362
 IR Inten    --      5.1729                 1.5273                 4.9786

                     67                     68                     69
                      A                      A                      A
 Frequencies --   1442.8873              1458.5520              1501.6836
 Red. masses --      1.2752                 1.3364                 1.0781
 Frc consts  --      1.5642                 1.6751                 1.4324
 IR Inten    --      4.9129                27.3013                 0.6658

                     70                     71                     72
                      A                      A                      A
 Frequencies --   1510.3516              1511.9139              1515.4965
 Red. masses --      1.0748                 1.0900                 1.0882
 Frc consts  --      1.4445                 1.4680                 1.4725
 IR Inten    --      1.7599                 3.8015                 2.4747

                     73                     74                     75
                      A                      A                      A
 Frequencies --   1522.2070              1524.9733              1530.2490
 Red. masses --      1.0698                 1.0899                 1.0638
 Frc consts  --      1.4605                 1.4933                 1.4677
 IR Inten    --     10.2533                 4.8476                 4.0338

                     76                     77                     78
                      A                      A                      A
 Frequencies --   1533.5823              1538.8999              1540.3407
 Red. masses --      1.0649                 1.0690                 1.0800
 Frc consts  --      1.4756                 1.4916                 1.5098
 IR Inten    --      7.0989                 1.5334                 5.0247

                     79                     80                     81
                      A                      A                      A
 Frequencies --   1547.2438              3026.2495              3031.1142
 Red. masses --      1.0895                 1.0637                 1.0631
 Frc consts  --      1.5368                 5.7398                 5.7547
 IR Inten    --      0.5868                24.7729                24.5045

                     82                     83                     84
                      A                      A                      A
 Frequencies --   3033.4419              3036.9031              3037.9543
 Red. masses --      1.0647                 1.0625                 1.0647
 Frc consts  --      5.7723                 5.7736                 5.7894
 IR Inten    --     41.9983                 8.6490                 2.8381

                     85                     86                     87
                      A                      A                      A
 Frequencies --   3041.8611              3043.4741              3046.3419
 Red. masses --      1.0648                 1.0473                 1.0558
 Frc consts  --      5.8050                 5.7153                 5.7728
 IR Inten    --     10.5807                27.5036                 2.5291

                     88                     89                     90
                      A                      A                      A
 Frequencies --   3050.7225              3053.6254              3058.4152
 Red. masses --      1.0653                 1.0698                 1.0984
 Frc consts  --      5.8418                 5.8776                 6.0537
 IR Inten    --     17.3861                15.3412                 0.2508

                     91                     92                     93
                      A                      A                      A
 Frequencies --   3061.4309              3068.7598              3076.0613
 Red. masses --      1.0952                 1.0980                 1.0998
 Frc consts  --      6.0477                 6.0922                 6.1311
 IR Inten    --     28.9638               115.6969                96.6180

                     94                     95                     96
                      A                      A                      A
 Frequencies --   3077.6241              3078.2840              3093.2016
 Red. masses --      1.1007                 1.0985                 1.0955
 Frc consts  --      6.1428                 6.1327                 6.1756
 IR Inten    --     60.7677                69.3030                44.5808

                     97                     98                     99
                      A                      A                      A
 Frequencies --   3103.0849              3108.3541              3116.1705
 Red. masses --      1.0960                 1.1015                 1.1019
 Frc consts  --      6.2178                 6.2701                 6.3041
 IR Inten    --     59.5521                50.6370                51.4850

                    100                    101                    102
                      A                      A                      A
 Frequencies --   3127.9930              3730.8125              3732.7156
 Red. masses --      1.0981                 1.0680                 1.0679
 Frc consts  --      6.3303                 8.7585                 8.7665
 IR Inten    --     21.1457                29.5573                25.2873

 - Thermochemistry -
 -------------------
 Temperature   298.150 Kelvin.  Pressure   1.00000 Atm.
 Atom     1 has atomic number  6 and mass  12.00000

 Molecular mass:   189.17288 amu.
 Principal axes and moments of inertia in atomic units:
                           1         2         3
     Eigenvalues --   810.089217838.172987898.77415
           X            0.99999  -0.00111   0.00502
           Y            0.00085   0.99868   0.05131
           Z           -0.00507  -0.05130   0.99867
 This molecule is an asymmetric top.
 Rotational symmetry number  1.
 Warning -- assumption of classical behavior for rotation
           may cause significant error
 Rotational temperatures (Kelvin)      0.10692     0.01105     0.01097
 Rotational constants (GHZ):           2.22783     0.23025     0.22848
 Zero-point vibrational energy     870971.4 (Joules/Mol)
                                  208.16716 (Kcal/Mol)
 Warning -- explicit consideration of  24 degrees of freedom as
           vibrations may cause significant error
 Vibrational temperatures:     46.01    51.27    67.83    86.04   101.98
          (Kelvin)            119.29   178.30   214.21   295.89   311.90
                              336.98   371.85   427.26   448.56   470.42
                              525.93   544.29   570.90   626.05   666.52
                              701.17   754.63   808.31   842.90  1013.38
                             1035.83  1086.26  1148.40  1163.62  1186.03
                             1231.99  1242.49  1283.48  1330.47  1353.69
                             1405.55  1413.49  1460.07  1478.29  1488.13
                             1541.87  1558.60  1559.73  1590.40  1627.56
                             1662.28  1665.00  1725.81  1734.63  1797.09
                             1803.78  1848.45  1880.95  1907.67  1931.81
                             1945.44  1957.04  1979.36  1988.94  2001.77
                             2016.56  2024.70  2042.68  2044.11  2056.86
                             2058.03  2075.99  2098.53  2160.59  2173.06
                             2175.31  2180.46  2190.12  2194.10  2201.69
                             2206.48  2214.13  2216.21  2226.14  4354.10
                             4361.10  4364.45  4369.43  4370.94  4376.56
                             4378.88  4383.01  4389.31  4393.49  4400.38
                             4404.72  4415.26  4425.77  4428.01  4428.96
                             4450.43  4464.65  4472.23  4483.47  4500.48
                             5367.81  5370.55

 Zero-point correction=                           0.331735 (Hartree/Particle)
 Thermal correction to Energy=                    0.347858
 Thermal correction to Enthalpy=                  0.348802
 Thermal correction to Gibbs Free Energy=         0.286828
 Sum of electronic and zero-point Energies=           -599.737019
 Sum of electronic and thermal Energies=              -599.720897
 Sum of electronic and thermal Enthalpies=            -599.719953
 Sum of electronic and thermal Free Energies=         -599.781926

                     E (Thermal)             CV                S
                      KCal/Mol        Cal/Mol-Kelvin    Cal/Mol-Kelvin
 Total                  218.284             59.648            130.434
 Electronic               0.000              0.000              0.000
 Translational            0.889              2.981             41.618
 Rotational               0.889              2.981             32.284
 Vibrational            216.507             53.686             56.532
 Vibration     1          0.594              1.983              5.703
 Vibration     2          0.594              1.982              5.488
 Vibration     3          0.595              1.979              4.934
 Vibration     4          0.597              1.973              4.464
 Vibration     5          0.598              1.968              4.129
 Vibration     6          0.600              1.961              3.821
 Vibration     7          0.610              1.929              3.038
 Vibration     8          0.618              1.904              2.686
 Vibration     9          0.640              1.832              2.082
 Vibration    10          0.646              1.815              1.986
 Vibration    11          0.654              1.789              1.846
 Vibration    12          0.667              1.748              1.672
 Vibration    13          0.691              1.679              1.434
 Vibration    14          0.700              1.651              1.353
 Vibration    15          0.711              1.622              1.275
 Vibration    16          0.739              1.543              1.098
 Vibration    17          0.749              1.516              1.046
 Vibration    18          0.763              1.477              0.974
 Vibration    19          0.796              1.394              0.842
 Vibration    20          0.821              1.332              0.757
 Vibration    21          0.843              1.278              0.691
 Vibration    22          0.879              1.196              0.600
 Vibration    23          0.918              1.114              0.520
 Vibration    24          0.943              1.062              0.475

 Optimization completed.
    -- Stationary point found.
 Normal termination of Gaussian 16 at Mon Dec 14 13:23:27 2020.

 ----------------------------------------------------------------------
 # B3LYP/6-311++G(d,p) empiricaldispersion=gd3bj scf=xqc pop=npa geom=c
 heck
 ----------------------------------------------------------------------

 --------------------------------------
 CID_18615988_JID_3573_Energie_neutraal
 --------------------------------------
 Structure from the checkpoint file:  "JID_3573.chk"
 Charge =  0 Multiplicity = 1

 SCF Done:  E(RB3LYP) =  -600.260075812     A.U. after   13 cycles
 Normal termination of Gaussian 16 at Mon Dec 14 13:28:04 2020.

 ----------------------------------------------------------------------
 # B3LYP/6-311++G(d,p) empiricaldispersion=gd3bj scf=xqc pop=npa geom=c
 heck
 ----------------------------------------------------------------------

 ------------------------------------
 CID_18615988_JID_3573_Energie_kation
 ------------------------------------
 Structure from the checkpoint file:  "JID_3573.chk"
 Charge =  1 Multiplicity = 2

 SCF Done:  E(UB3LYP) =  -599.923036159     A.U. after   31 cycles
 Normal termination of Gaussian 16 at Mon Dec 14 13:43:05 2020.
 Gaussian 16:  ES64L-G16RevA.03 25-Dec-2016

 ----------------------------------------------------------------------
 # B3LYP/6-311++G(d,p) empiricaldispersion=gd3bj scf=xqc pop=npa geom=c
 heck
 ----------------------------------------------------------------------

 -----------------------------------
 CID_18615988_JID_3573_Energie_anion
 -----------------------------------
 Structure from the checkpoint file:  "JID_3573.chk"
 Charge = -1 Multiplicity = 2

                         Standard orientation:
 ---------------------------------------------------------------------
 Center     Atomic      Atomic             Coordinates (Angstroms)
 Number     Number       Type             X           Y           Z
 ---------------------------------------------------------------------
      1          6           0       -5.419089   -0.569345   -0.410177
      2          6           0       -4.370265    0.423724   -0.919488
      3          6           0       -3.487218    1.019206    0.187636
      4          6           0       -2.677089   -0.005529    0.997998
      5          6           0       -1.748164   -0.902904    0.165098
      6          6           0       -0.719127   -0.151647   -0.694552
      7          6           0        0.213818    0.790982    0.081455
      8          6           0        1.020825    0.129889    1.208778
      9          6           0        1.872679   -1.076511    0.783700
     10          6           0        2.880411   -0.866519   -0.349026
     11          7           0        4.018892   -0.024462    0.057500
     12          8           0        4.949442   -0.145161   -1.029823
     13          8           0        3.523173    1.324414   -0.007893
     14          1           0       -4.954429   -1.456406    0.034434
     15          1           0       -6.069311   -0.910586   -1.223469
     16          1           0       -6.055565   -0.110402    0.356751
     17          1           0       -3.739919   -0.066829   -1.672774
     18          1           0       -4.876505    1.246658   -1.441086
     19          1           0       -2.803312    1.751192   -0.261416
     20          1           0       -4.123585    1.586430    0.881481
     21          1           0       -2.086040    0.535072    1.748521
     22          1           0       -3.363055   -0.646359    1.566859
     23          1           0       -1.226187   -1.587621    0.846503
     24          1           0       -2.351584   -1.542954   -0.491930
     25          1           0       -0.120812   -0.890300   -1.244460
     26          1           0       -1.242355    0.432349   -1.462744
     27          1           0        0.908644    1.264113   -0.621155
     28          1           0       -0.375785    1.609015    0.515799
     29          1           0        1.666344    0.888952    1.661468
     30          1           0        0.339421   -0.208115    2.000863
     31          1           0        2.417808   -1.456759    1.657079
     32          1           0        1.209025   -1.889547    0.462124
     33          1           0        3.324276   -1.828029   -0.618261
     34          1           0        2.417907   -0.442551   -1.249967
     35          1           0        5.805651   -0.043475   -0.583234
     36          1           0        3.985503    1.755291    0.729314
 ---------------------------------------------------------------------

 SCF Done:  E(UB3LYP) =  -600.247763680     A.U. after   27 cycles

 The electronic state is 2-A.
 Alpha  occ. eigenvalues --  -19.05044 -19.04940 -14.31153 -10.09928 -10.07420
 Alpha  occ. eigenvalues --  -10.07383 -10.07147 -10.07074 -10.07024 -10.06932
 Alpha  occ. eigenvalues --  -10.06727 -10.06360 -10.06236  -1.00855  -0.90674
 Alpha  occ. eigenvalues --   -0.73445  -0.72134  -0.69400  -0.66078  -0.62533
 Alpha  occ. eigenvalues --   -0.59294  -0.56304  -0.53132  -0.49864  -0.46482
 Alpha  occ. eigenvalues --   -0.43986  -0.43591  -0.41984  -0.38987  -0.38632
 Alpha  occ. eigenvalues --   -0.37287  -0.35531  -0.35134  -0.33322  -0.31808
 Alpha  occ. eigenvalues --   -0.31318  -0.31036  -0.30429  -0.29309  -0.28877
 Alpha  occ. eigenvalues --   -0.27634  -0.26809  -0.26211  -0.25325  -0.23933
 Alpha  occ. eigenvalues --   -0.23507  -0.23142  -0.22772  -0.21723  -0.21193
 Alpha  occ. eigenvalues --   -0.21117  -0.19200  -0.15335   0.04144
 Alpha virt. eigenvalues --    0.05321   0.07016   0.07116   0.07613   0.08100
 Alpha virt. eigenvalues --    0.08875   0.09367   0.09875   0.10478   0.10624
 Alpha virt. eigenvalues --    0.10879   0.11793   0.11992   0.12786   0.13375

  Beta  occ. eigenvalues --  -19.05002 -19.04894 -14.31127 -10.09923 -10.07407
  Beta  occ. eigenvalues --  -10.07375 -10.07136 -10.07065 -10.07013 -10.06928
  Beta  occ. eigenvalues --  -10.06694 -10.06346 -10.06229  -1.00771  -0.90561
  Beta  occ. eigenvalues --   -0.73396  -0.72101  -0.69366  -0.66039  -0.62496
  Beta  occ. eigenvalues --   -0.59254  -0.56262  -0.53087  -0.49822  -0.46439
  Beta  occ. eigenvalues --   -0.43918  -0.43535  -0.41898  -0.38960  -0.38607
  Beta  occ. eigenvalues --   -0.37253  -0.35500  -0.35106  -0.33289  -0.31781
  Beta  occ. eigenvalues --   -0.31294  -0.30988  -0.30398  -0.29285  -0.28850
  Beta  occ. eigenvalues --   -0.27610  -0.26782  -0.26181  -0.25301  -0.23908
  Beta  occ. eigenvalues --   -0.23477  -0.23115  -0.22733  -0.21704  -0.21168
  Beta  occ. eigenvalues --   -0.21095  -0.19142  -0.15243
  Beta virt. eigenvalues --    0.05994   0.06934   0.07301   0.07436   0.07999
  Beta virt. eigenvalues --    0.08811   0.09058   0.09847   0.10288   0.10555
  Beta virt. eigenvalues --    0.10684   0.11076   0.11912   0.12216   0.12850

 Mulliken charges and spin densities:
               1          2
     1  C    0.903299  -1.536792
     2  C   -0.695195   0.500510
     3  C    0.173476  -0.425607
     4  C   -0.334161   0.115240
     5  C    0.173288  -0.477583
     6  C    0.085954  -0.392571
     7  C   -0.786479   0.494954
     8  C   -0.028937  -0.064712
     9  C    0.045884  -0.400779
    10  C    0.242655  -0.892214
    11  N   -0.231223  -0.094065
    12  O   -0.064072  -0.016118
    13  O   -0.089733   0.039503
    14  H   -0.103218   0.236791
    15  H   -0.248100   0.384080
    16  H   -0.207142   0.344044
    17  H    0.126241  -0.005130
    18  H   -0.188222   0.337527
    19  H    0.083224   0.055841
    20  H   -0.171712   0.325305
    21  H    0.004915   0.149260
    22  H    0.024086   0.135997
    23  H    0.011383   0.134770
    24  H    0.057949   0.107322
    25  H    0.129114   0.017868
    26  H    0.014089   0.137457
    27  H    0.226066  -0.037461
    28  H   -0.045076   0.195099
    29  H   -0.175927   0.326190
    30  H    0.134792  -0.001503
    31  H   -0.046342   0.240177
    32  H    0.179213  -0.072208
    33  H    0.013943   0.175928
    34  H    0.144707   0.045068
    35  H   -0.207567   0.496831
    36  H   -0.151174   0.420981
 Sum of Mulliken charges =  -1.00000   1.00000

 Dipole moment (field-independent basis, Debye):
    X=             -2.2385    Y=             -2.1175    Z=             -0.1712  Tot=              3.0861
 Quadrupole moment (field-independent basis, Debye-Ang):
   XX=           -225.2129   YY=           -113.9171   ZZ=           -113.8416
   XY=             -8.2632   XZ=             -1.6108   YZ=             -1.4171

 Summary of Natural Population Analysis:

                                       Natural Population
                Natural  -----------------------------------------------
    Atom  No    Charge         Core      Valence    Rydberg      Total
 -----------------------------------------------------------------------
      C    1   -0.28809      0.99967     2.28321    0.00521     3.28809
      C    2   -0.19360      0.99964     2.18495    0.00901     3.19360
      C    3   -0.19116      0.99963     2.18311    0.00843     3.19116
      C    4   -0.19361      0.99963     2.18562    0.00836     3.19361
      C    5   -0.19282      0.99963     2.18575    0.00745     3.19282
      C    6   -0.19288      0.99963     2.18610    0.00715     3.19288
      C    7   -0.19663      0.99962     2.18860    0.00841     3.19663
      C    8   -0.19140      0.99962     2.18332    0.00847     3.19140
      C    9   -0.19766      0.99961     2.18851    0.00954     3.19766
      C   10   -0.09655      0.99960     2.08373    0.01323     3.09655
      N   11    0.00826      0.99974     2.47262    0.01937     3.49174
      O   12   -0.29331      0.99990     3.28615    0.00726     4.29331
      O   13   -0.29368      0.99990     3.28555    0.00823     4.29368
      H   14    0.09603      0.00000     0.40295    0.00102     0.40397
      H   15    0.09897      0.00000     0.40000    0.00103     0.40103
      H   16    0.09625      0.00000     0.40256    0.00119     0.40375
      H   17    0.09296      0.00000     0.40592    0.00112     0.40704
      H   18    0.09561      0.00000     0.40339    0.00100     0.40439
      H   19    0.09608      0.00000     0.40280    0.00112     0.40392
      H   20    0.09581      0.00000     0.40319    0.00100     0.40419
      H   21    0.09760      0.00000     0.40129    0.00111     0.40240
      H   22    0.09657      0.00000     0.40239    0.00104     0.40343
      H   23    0.09616      0.00000     0.40274    0.00109     0.40384
      H   24    0.09579      0.00000     0.40317    0.00104     0.40421
      H   25    0.09457      0.00000     0.40432    0.00111     0.40543
      H   26    0.09596      0.00000     0.40295    0.00109     0.40404
      H   27    0.10521      0.00000     0.39352    0.00127     0.39479
      H   28    0.09577      0.00000     0.40318    0.00105     0.40423
      H   29    0.10413      0.00000     0.39451    0.00136     0.39587
      H   30    0.09315      0.00000     0.40570    0.00115     0.40685
      H   31    0.10133      0.00000     0.39733    0.00133     0.39867
      H   32    0.09620      0.00000     0.40279    0.00101     0.40380
      H   33    0.10247      0.00000     0.39631    0.00122     0.39753
      H   34    0.09424      0.00000     0.40428    0.00148     0.40576
      H   35    0.23542      0.00000     0.25324    0.01134     0.26458
      H   36    0.23684      0.00000     0.25013    0.01303     0.26316
 =======================================================================
   * Total *   -0.00000     12.99582    39.83587    0.16831    53.00000

 Normal termination of Gaussian 16 at Mon Dec 14 13:56:28 2020.
