 Gaussian 16, Revision A.03,

 -----------------------------------------------------------
 # opt freq B3LYP/6-31G(d) empiricaldispersion=gd3bj scf=xqc
 -----------------------------------------------------------

 -------------------------------
 CID_126762835_JID_2464_neutraal
 -------------------------------
 Symbolic Z-matrix:
 Charge =  0 Multiplicity = 1

 SCF Done:  E(RB3LYP) =  -594.299523748     A.U. after   14 cycles
 SCF Done:  E(RB3LYP) =  -594.305792690     A.U. after   12 cycles
 SCF Done:  E(RB3LYP) =  -594.306414840     A.U. after   11 cycles
 SCF Done:  E(RB3LYP) =  -594.306107129     A.U. after   12 cycles
 SCF Done:  E(RB3LYP) =  -594.306773743     A.U. after   10 cycles
 SCF Done:  E(RB3LYP) =  -594.306839865     A.U. after   11 cycles
 SCF Done:  E(RB3LYP) =  -594.306856729     A.U. after   10 cycles
 SCF Done:  E(RB3LYP) =  -594.306875642     A.U. after    9 cycles
 SCF Done:  E(RB3LYP) =  -594.306891860     A.U. after   10 cycles
 SCF Done:  E(RB3LYP) =  -594.306895274     A.U. after    9 cycles
 SCF Done:  E(RB3LYP) =  -594.306896096     A.U. after    9 cycles
 SCF Done:  E(RB3LYP) =  -594.306896073     A.U. after    8 cycles
 SCF Done:  E(RB3LYP) =  -594.306895930     A.U. after    8 cycles
 SCF Done:  E(RB3LYP) =  -594.306895905     A.U. after    7 cycles
 SCF Done:  E(RB3LYP) =  -594.306896323     A.U. after    9 cycles
 SCF Done:  E(RB3LYP) =  -594.306895967     A.U. after    9 cycles
 Optimization completed.
    -- Stationary point found.
 Normal termination of Gaussian 16 at Wed Dec  9 17:28:51 2020.

 --------------------------------------------------------------------
 #N Geom=AllCheck Guess=TCheck SCRF=Check GenChk RB3LYP/6-31G(d) Freq
 --------------------------------------------------------------------

 Structure from the checkpoint file:  "JID_2464.chk"
 -------------------------------
 CID_126762835_JID_2464_neutraal
 -------------------------------
 Charge =  0 Multiplicity = 1

 SCF Done:  E(RB3LYP) =  -594.306895967     A.U. after    1 cycles

  Exact polarizability: 108.380  -0.089 102.531  -2.367   2.659  84.080
 Approx polarizability: 145.093  -3.845 135.894  -6.151   6.769 126.356

                      1                      2                      3
                      A                      A                      A
 Frequencies --     24.1844                50.2685                72.5873
 Red. masses --      3.6913                 3.3959                 3.5014
 Frc consts  --      0.0013                 0.0051                 0.0109
 IR Inten    --      0.1341                 1.1208                 2.2327

                      4                      5                      6
                      A                      A                      A
 Frequencies --     89.7780               100.5566               122.7868
 Red. masses --      2.7158                 4.5629                 2.4151
 Frc consts  --      0.0129                 0.0272                 0.0215
 IR Inten    --      4.1063                 0.7182                 0.6988

                      7                      8                      9
                      A                      A                      A
 Frequencies --    138.2727               176.5183               220.5983
 Red. masses --      2.2656                 1.8811                 1.3171
 Frc consts  --      0.0255                 0.0345                 0.0378
 IR Inten    --      2.8736                25.7853                 2.9877

                     10                     11                     12
                      A                      A                      A
 Frequencies --    232.1515               267.6155               289.3206
 Red. masses --      1.5080                 2.2230                 2.6820
 Frc consts  --      0.0479                 0.0938                 0.1323
 IR Inten    --      7.8802                 2.5527                10.6890

                     13                     14                     15
                      A                      A                      A
 Frequencies --    291.2525               320.0312               359.3037
 Red. masses --      2.0170                 2.5610                 2.7328
 Frc consts  --      0.1008                 0.1545                 0.2079
 IR Inten    --     38.7302                23.8781                 2.7027

                     16                     17                     18
                      A                      A                      A
 Frequencies --    404.4258               454.9864               494.9228
 Red. masses --      2.4844                 4.0372                 4.6440
 Frc consts  --      0.2394                 0.4924                 0.6702
 IR Inten    --      2.6196                 8.1909                 5.8891

                     19                     20                     21
                      A                      A                      A
 Frequencies --    612.7430               686.8369               713.1388
 Red. masses --      2.8653                 4.0686                 3.5002
 Frc consts  --      0.6338                 1.1308                 1.0488
 IR Inten    --     10.3901                12.1103                 4.6656

                     22                     23                     24
                      A                      A                      A
 Frequencies --    794.7092               824.5279               879.3370
 Red. masses --      1.4081                 3.4024                 2.8371
 Frc consts  --      0.5240                 1.3628                 1.2925
 IR Inten    --      8.0549                10.4197                 4.0651

                     25                     26                     27
                      A                      A                      A
 Frequencies --    915.6649               947.6576               988.3556
 Red. masses --      2.1056                 2.4405                 3.6070
 Frc consts  --      1.0402                 1.2913                 2.0760
 IR Inten    --      1.0365                10.6373                47.0709

                     28                     29                     30
                      A                      A                      A
 Frequencies --    996.0960              1054.4329              1059.2643
 Red. masses --      2.6046                 2.3797                 3.7362
 Frc consts  --      1.5226                 1.5589                 2.4700
 IR Inten    --     23.8876                 5.6010                91.5981

                     31                     32                     33
                      A                      A                      A
 Frequencies --   1104.8855              1121.5725              1142.0384
 Red. masses --      1.9304                 1.7230                 4.4988
 Frc consts  --      1.3884                 1.2770                 3.4571
 IR Inten    --      1.4428                10.5256               142.9077

                     34                     35                     36
                      A                      A                      A
 Frequencies --   1143.0962              1164.0449              1174.9694
 Red. masses --      2.0597                 2.1762                 1.4822
 Frc consts  --      1.5857                 1.7374                 1.2056
 IR Inten    --     61.3524                32.3556                38.8699

                     37                     38                     39
                      A                      A                      A
 Frequencies --   1196.3644              1224.6260              1234.9039
 Red. masses --      1.3145                 1.6029                 1.7495
 Frc consts  --      1.1085                 1.4164                 1.5719
 IR Inten    --     22.9730                62.8589                28.9950

                     40                     41                     42
                      A                      A                      A
 Frequencies --   1240.1191              1274.4631              1305.4938
 Red. masses --      1.4829                 1.3273                 1.4161
 Frc consts  --      1.3437                 1.2702                 1.4220
 IR Inten    --     30.5496                 9.2470                40.7421

                     43                     44                     45
                      A                      A                      A
 Frequencies --   1321.5510              1330.5259              1363.4014
 Red. masses --      1.3234                 1.7821                 1.3338
 Frc consts  --      1.3618                 1.8587                 1.4608
 IR Inten    --     15.0958                29.6613                25.1326

                     46                     47                     48
                      A                      A                      A
 Frequencies --   1391.2121              1407.5688              1430.6591
 Red. masses --      1.6183                 2.1148                 1.4691
 Frc consts  --      1.8455                 2.4686                 1.7717
 IR Inten    --     29.6939                81.2003                34.0286

                     49                     50                     51
                      A                      A                      A
 Frequencies --   1441.3807              1444.8820              1449.2834
 Red. masses --      1.2566                 1.2557                 1.2559
 Frc consts  --      1.5382                 1.5445                 1.5543
 IR Inten    --     22.0832                50.1946                26.7142

                     52                     53                     54
                      A                      A                      A
 Frequencies --   1502.5270              1512.4187              1516.1877
 Red. masses --      1.1577                 1.0839                 1.0485
 Frc consts  --      1.5399                 1.4608                 1.4202
 IR Inten    --      2.6926                 3.1713                 4.1194

                     55                     56                     57
                      A                      A                      A
 Frequencies --   1526.3786              1527.4980              1533.0687
 Red. masses --      1.0629                 1.0413                 1.0700
 Frc consts  --      1.4590                 1.4315                 1.4817
 IR Inten    --      7.6755                 3.8429                 7.6807

                     58                     59                     60
                      A                      A                      A
 Frequencies --   1543.2660              1550.1939              1883.1497
 Red. masses --      1.0685                 1.0812                12.1881
 Frc consts  --      1.4994                 1.5308                25.4658
 IR Inten    --      3.1592                 2.5732               418.8006

                     61                     62                     63
                      A                      A                      A
 Frequencies --   2995.8302              3025.9973              3035.0422
 Red. masses --      1.0378                 1.0533                 1.0619
 Frc consts  --      5.4879                 5.6827                 5.7632
 IR Inten    --     52.4541                54.1634                16.6243

                     64                     65                     66
                      A                      A                      A
 Frequencies --   3039.2943              3043.6784              3050.4036
 Red. masses --      1.0634                 1.1041                 1.0376
 Frc consts  --      5.7876                 6.0263                 5.6886
 IR Inten    --     17.7203                70.0892                25.3614

                     67                     68                     69
                      A                      A                      A
 Frequencies --   3064.0642              3064.8012              3074.8308
 Red. masses --      1.0956                 1.1064                 1.0980
 Frc consts  --      6.0602                 6.1230                 6.1162
 IR Inten    --      3.8941                35.5435                20.4751

                     70                     71                     72
                      A                      A                      A
 Frequencies --   3083.2516              3104.6813              3113.2956
 Red. masses --      1.0969                 1.0858                 1.1023
 Frc consts  --      6.1438                 6.1667                 6.2950
 IR Inten    --     43.6845                21.6046                42.8180

                     73                     74                     75
                      A                      A                      A
 Frequencies --   3125.9408              3147.3692              3731.9137
 Red. masses --      1.1012                 1.0971                 1.0664
 Frc consts  --      6.3396                 6.4029                 8.7502
 IR Inten    --     47.5485                25.1811                21.1947

 - Thermochemistry -
 -------------------
 Temperature   298.150 Kelvin.  Pressure   1.00000 Atm.
 Atom     1 has atomic number  6 and mass  12.00000

 Molecular mass:   173.10519 amu.
 Principal axes and moments of inertia in atomic units:
                           1         2         3
     Eigenvalues --  1983.616512324.459423497.73813
           X            0.99982  -0.01017   0.01580
           Y            0.01043   0.99982  -0.01596
           Z           -0.01563   0.01613   0.99975
 This molecule is an asymmetric top.
 Rotational symmetry number  1.
 Warning -- assumption of classical behavior for rotation
           may cause significant error
 Rotational temperatures (Kelvin)      0.04366     0.03726     0.02476
 Rotational constants (GHZ):           0.90982     0.77641     0.51597
 Zero-point vibrational energy     611796.9 (Joules/Mol)
                                  146.22296 (Kcal/Mol)
 Warning -- explicit consideration of  19 degrees of freedom as
           vibrations may cause significant error
 Vibrational temperatures:     34.80    72.33   104.44   129.17   144.68
          (Kelvin)            176.66   198.94   253.97   317.39   334.01
                              385.04   416.27   419.05   460.45   516.96
                              581.88   654.62   712.08   881.60   988.21
                             1026.05  1143.41  1186.31  1265.17  1317.44
                             1363.47  1422.02  1433.16  1517.09  1524.05
                             1589.68  1613.69  1643.14  1644.66  1674.80
                             1690.52  1721.30  1761.96  1776.75  1784.25
                             1833.67  1878.31  1901.42  1914.33  1961.63
                             2001.64  2025.18  2058.40  2073.83  2078.86
                             2085.20  2161.80  2176.03  2181.46  2196.12
                             2197.73  2205.74  2220.42  2230.38  2709.43
                             4310.33  4353.74  4366.75  4372.87  4379.17
                             4388.85  4408.51  4409.57  4424.00  4436.11
                             4466.94  4479.34  4497.53  4528.36  5369.39

 Zero-point correction=                           0.233021 (Hartree/Particle)
 Thermal correction to Energy=                    0.246853
 Thermal correction to Enthalpy=                  0.247797
 Thermal correction to Gibbs Free Energy=         0.191172
 Sum of electronic and zero-point Energies=           -594.073875
 Sum of electronic and thermal Energies=              -594.060043
 Sum of electronic and thermal Enthalpies=            -594.059099
 Sum of electronic and thermal Free Energies=         -594.115724

                     E (Thermal)             CV                S
                      KCal/Mol        Cal/Mol-Kelvin    Cal/Mol-Kelvin
 Total                  154.902             48.368            119.177
 Electronic               0.000              0.000              0.000
 Translational            0.889              2.981             41.354
 Rotational               0.889              2.981             31.156
 Vibrational            153.125             42.407             46.667
 Vibration     1          0.593              1.985              6.257
 Vibration     2          0.595              1.977              4.807
 Vibration     3          0.599              1.967              4.082
 Vibration     4          0.602              1.956              3.665
 Vibration     5          0.604              1.949              3.444
 Vibration     6          0.610              1.930              3.056
 Vibration     7          0.614              1.915              2.828
 Vibration     8          0.628              1.871              2.365
 Vibration     9          0.647              1.810              1.954
 Vibration    10          0.653              1.792              1.862
 Vibration    11          0.673              1.733              1.612
 Vibration    12          0.686              1.694              1.478
 Vibration    13          0.687              1.690              1.467
 Vibration    14          0.706              1.635              1.310
 Vibration    15          0.734              1.556              1.125
 Vibration    16          0.770              1.461              0.947
 Vibration    17          0.813              1.350              0.781
 Vibration    18          0.851              1.261              0.671
 Vibration    19          0.972              1.005              0.428

 Optimization completed.
    -- Stationary point found.
 Normal termination of Gaussian 16 at Wed Dec  9 17:35:42 2020.

 ----------------------------------------------------------------------
 # B3LYP/6-311++G(d,p) empiricaldispersion=gd3bj scf=xqc pop=npa geom=c
 heck
 ----------------------------------------------------------------------

 ---------------------------------------
 CID_126762835_JID_2464_Energie_neutraal
 ---------------------------------------
 Structure from the checkpoint file:  "JID_2464.chk"
 Charge =  0 Multiplicity = 1

 SCF Done:  E(RB3LYP) =  -594.492084277     A.U. after   13 cycles
 Normal termination of Gaussian 16 at Wed Dec  9 17:38:41 2020.

 ----------------------------------------------------------------------
 # B3LYP/6-311++G(d,p) empiricaldispersion=gd3bj scf=xqc pop=npa geom=c
 heck
 ----------------------------------------------------------------------

 -------------------------------------
 CID_126762835_JID_2464_Energie_kation
 -------------------------------------
 Structure from the checkpoint file:  "JID_2464.chk"
 Charge =  1 Multiplicity = 2

 SCF Done:  E(UB3LYP) =  -594.155836846     A.U. after   26 cycles
 Normal termination of Gaussian 16 at Wed Dec  9 17:48:02 2020.
 Gaussian 16:  ES64L-G16RevA.03 25-Dec-2016

 ----------------------------------------------------------------------
 # B3LYP/6-311++G(d,p) empiricaldispersion=gd3bj scf=xqc pop=npa geom=c
 heck
 ----------------------------------------------------------------------

 ------------------------------------
 CID_126762835_JID_2464_Energie_anion
 ------------------------------------
 Structure from the checkpoint file:  "JID_2464.chk"
 Charge = -1 Multiplicity = 2

                         Standard orientation:
 ---------------------------------------------------------------------
 Center     Atomic      Atomic             Coordinates (Angstroms)
 Number     Number       Type             X           Y           Z
 ---------------------------------------------------------------------
      1          6           0        2.766349   -1.555977    0.924462
      2          6           0        2.107442   -1.679320   -0.454022
      3          6           0        0.606474   -2.036951   -0.376042
      4          6           0       -0.333018   -0.848852   -0.501031
      5          6           0       -1.831196   -1.043861   -0.086019
      6          6           0       -1.627752    0.229904    0.771815
      7          8           0       -2.337962    1.025193    1.340845
      8          7           0       -0.256768    0.206108    0.549293
      9          6           0        0.601030    1.349495    0.587482
     10          8           0        0.579013    1.974843   -0.684466
     11          6           0        1.445594    3.090326   -0.745533
     12          8           0       -2.833062   -1.022041   -1.062568
     13          1           0        2.227822   -0.853838    1.569436
     14          1           0        3.805246   -1.216809    0.844307
     15          1           0        2.770011   -2.525248    1.436885
     16          1           0        2.230578   -0.744320   -1.017142
     17          1           0        2.639027   -2.447554   -1.028171
     18          1           0        0.338657   -2.731189   -1.182907
     19          1           0        0.402573   -2.562659    0.566576
     20          1           0       -0.264828   -0.398583   -1.498168
     21          1           0       -1.980184   -1.950525    0.508053
     22          1           0        0.212414    2.020438    1.366685
     23          1           0        1.629805    1.060599    0.842396
     24          1           0        1.151281    3.872744   -0.029172
     25          1           0        2.489852    2.805290   -0.540450
     26          1           0        1.378747    3.491906   -1.759000
     27          1           0       -2.907066   -0.115542   -1.401536
 ---------------------------------------------------------------------

 SCF Done:  E(UB3LYP) =  -594.479930200     A.U. after   32 cycles

 The electronic state is 2-A.
 Alpha  occ. eigenvalues --  -19.04696 -19.03592 -19.01093 -14.24500 -10.17567
 Alpha  occ. eigenvalues --  -10.15802 -10.14228 -10.11871 -10.11458 -10.07587
 Alpha  occ. eigenvalues --  -10.07090 -10.06005  -0.96806  -0.95259  -0.94194
 Alpha  occ. eigenvalues --   -0.86281  -0.70513  -0.68164  -0.61762  -0.59127
 Alpha  occ. eigenvalues --   -0.55192  -0.53301  -0.48946  -0.47376  -0.42918
 Alpha  occ. eigenvalues --   -0.40968  -0.39673  -0.38593  -0.37658  -0.36787
 Alpha  occ. eigenvalues --   -0.34285  -0.33849  -0.32495  -0.31974  -0.31140
 Alpha  occ. eigenvalues --   -0.30150  -0.28305  -0.28157  -0.26539  -0.25093
 Alpha  occ. eigenvalues --   -0.24720  -0.24183  -0.23237  -0.20375  -0.17502
 Alpha  occ. eigenvalues --   -0.17112  -0.16017   0.04384
 Alpha virt. eigenvalues --    0.06576   0.06694   0.07842   0.08620   0.09304
 Alpha virt. eigenvalues --    0.09611   0.09963   0.10844   0.10942   0.11845
 Alpha virt. eigenvalues --    0.12299   0.12982   0.13672   0.14022   0.14871

  Beta  occ. eigenvalues --  -19.04659 -19.03578 -19.01036 -14.24501 -10.17523
  Beta  occ. eigenvalues --  -10.15778 -10.14224 -10.11864 -10.11405 -10.07572
  Beta  occ. eigenvalues --  -10.07069 -10.05969  -0.96732  -0.95210  -0.94102
  Beta  occ. eigenvalues --   -0.86244  -0.70481  -0.68113  -0.61708  -0.59055
  Beta  occ. eigenvalues --   -0.55124  -0.53228  -0.48873  -0.47319  -0.42875
  Beta  occ. eigenvalues --   -0.40903  -0.39616  -0.38548  -0.37588  -0.36741
  Beta  occ. eigenvalues --   -0.34235  -0.33801  -0.32441  -0.31920  -0.31094
  Beta  occ. eigenvalues --   -0.30010  -0.28209  -0.28107  -0.26484  -0.25053
  Beta  occ. eigenvalues --   -0.24660  -0.24119  -0.23193  -0.20311  -0.17466
  Beta  occ. eigenvalues --   -0.17042  -0.15956
  Beta virt. eigenvalues --    0.06669   0.07484   0.07531   0.08296   0.09166
  Beta virt. eigenvalues --    0.09753   0.10195   0.10552   0.11141   0.11315
  Beta virt. eigenvalues --    0.12466   0.12677   0.13177   0.13872   0.14299

 Mulliken charges and spin densities:
               1          2
     1  C    1.312752  -1.856653
     2  C   -1.016084   0.956750
     3  C    0.000443  -0.557072
     4  C    0.053302  -0.103478
     5  C    0.263504  -0.586172
     6  C    0.115785   0.041674
     7  O   -0.370129   0.012700
     8  N    0.002357   0.098954
     9  C   -0.244711  -0.075226
    10  O   -0.211183   0.089710
    11  C    1.167197  -1.407663
    12  O   -0.210826   0.007548
    13  H   -0.259519   0.403287
    14  H   -0.462230   0.605454
    15  H   -0.102903   0.231548
    16  H    0.103450   0.042300
    17  H   -0.512420   0.691188
    18  H   -0.146437   0.293526
    19  H    0.090429   0.035582
    20  H    0.131998   0.131077
    21  H    0.104077   0.105927
    22  H    0.106612   0.082622
    23  H    0.245354  -0.093093
    24  H   -0.264033   0.392493
    25  H   -0.520969   0.659685
    26  H   -0.463881   0.609397
    27  H    0.088068   0.187936
 Sum of Mulliken charges =  -1.00000   1.00000

 Dipole moment (field-independent basis, Debye):
    X=             -4.1594    Y=             -2.1589    Z=              1.1919  Tot=              4.8355
 Quadrupole moment (field-independent basis, Debye-Ang):
   XX=           -142.6815   YY=           -128.3638   ZZ=           -105.4947
   XY=              0.5273   XZ=              3.2382   YZ=              0.0566

 Summary of Natural Population Analysis:

                                       Natural Population
                Natural  -----------------------------------------------
    Atom  No    Charge         Core      Valence    Rydberg      Total
 -----------------------------------------------------------------------
      C    1   -0.28434      0.99967     2.27873    0.00594     3.28434
      C    2   -0.19472      0.99964     2.18650    0.00858     3.19472
      C    3   -0.19656      0.99960     2.18777    0.00919     3.19656
      C    4   -0.00491      0.99959     1.99231    0.01301     3.00491
      C    5    0.03219      0.99950     1.95357    0.01473     2.96781
      C    6    0.34698      0.99965     1.62839    0.02498     2.65302
      O    7   -0.29733      0.99987     3.29097    0.00648     4.29733
      N    8   -0.26623      0.99963     2.75535    0.01125     3.76623
      C    9    0.08033      0.99958     1.90501    0.01508     2.91967
      O   10   -0.29961      0.99989     3.29070    0.00902     4.29961
      C   11   -0.10018      0.99962     2.09122    0.00934     3.10018
      O   12   -0.35742      0.99989     3.35082    0.00670     4.35742
      H   13    0.09473      0.00000     0.40394    0.00134     0.40527
      H   14    0.10229      0.00000     0.39612    0.00159     0.39771
      H   15    0.09502      0.00000     0.40381    0.00118     0.40498
      H   16    0.09716      0.00000     0.40102    0.00182     0.40284
      H   17    0.09851      0.00000     0.39992    0.00156     0.40149
      H   18    0.10415      0.00000     0.39476    0.00109     0.39585
      H   19    0.09490      0.00000     0.40364    0.00146     0.40510
      H   20    0.09812      0.00000     0.39979    0.00209     0.40188
      H   21    0.09407      0.00000     0.40462    0.00131     0.40593
      H   22    0.09005      0.00000     0.40840    0.00155     0.40995
      H   23    0.08423      0.00000     0.41375    0.00201     0.41577
      H   24    0.07903      0.00000     0.41920    0.00177     0.42097
      H   25    0.08250      0.00000     0.41497    0.00253     0.41750
      H   26    0.09431      0.00000     0.40394    0.00174     0.40569
      H   27    0.23270      0.00000     0.26409    0.00321     0.26730
 =======================================================================
   * Total *    0.00000     11.99613    34.84332    0.16055    47.00000

 Normal termination of Gaussian 16 at Wed Dec  9 17:57:55 2020.
