 Gaussian 16, Revision A.03,

 -----------------------------------------------------------
 # opt freq B3LYP/6-31G(d) empiricaldispersion=gd3bj scf=xqc
 -----------------------------------------------------------

 ------------------------------
 CID_23262921_JID_6568_neutraal
 ------------------------------
 Symbolic Z-matrix:
 Charge =  0 Multiplicity = 1

 SCF Done:  E(RB3LYP) =  -866.524536011     A.U. after   14 cycles
 SCF Done:  E(RB3LYP) =  -866.541720266     A.U. after   12 cycles
 SCF Done:  E(RB3LYP) =  -866.543240810     A.U. after   12 cycles
 SCF Done:  E(RB3LYP) =  -866.545498253     A.U. after   12 cycles
 SCF Done:  E(RB3LYP) =  -866.546609319     A.U. after   12 cycles
 SCF Done:  E(RB3LYP) =  -866.547208111     A.U. after   12 cycles
 SCF Done:  E(RB3LYP) =  -866.547552794     A.U. after   11 cycles
 SCF Done:  E(RB3LYP) =  -866.547715810     A.U. after   11 cycles
 SCF Done:  E(RB3LYP) =  -866.547836422     A.U. after   11 cycles
 SCF Done:  E(RB3LYP) =  -866.547913310     A.U. after   11 cycles
 SCF Done:  E(RB3LYP) =  -866.571011010     A.U. after    7 cycles
 SCF Done:  E(RB3LYP) =  -866.571011111     A.U. after    7 cycles
 SCF Done:  E(RB3LYP) =  -866.571011205     A.U. after    7 cycles
 SCF Done:  E(RB3LYP) =  -866.571011271     A.U. after    7 cycles
 SCF Done:  E(RB3LYP) =  -866.571011333     A.U. after    7 cycles
 Optimization completed.
    -- Stationary point found.
 Normal termination of Gaussian 16 at Fri Dec 11 00:04:28 2020.

 --------------------------------------------------------------------
 #N Geom=AllCheck Guess=TCheck SCRF=Check GenChk RB3LYP/6-31G(d) Freq
 --------------------------------------------------------------------

 Structure from the checkpoint file:  "JID_6568.chk"
 ------------------------------
 CID_23262921_JID_6568_neutraal
 ------------------------------
 Charge =  0 Multiplicity = 1

 SCF Done:  E(RB3LYP) =  -866.571011333     A.U. after    1 cycles

  Exact polarizability: 136.787  -9.190 109.677  -0.994   0.928  95.543
 Approx polarizability: 187.939 -20.952 163.392  -4.504   2.591 141.910

                      1                      2                      3
                      A                      A                      A
 Frequencies --     42.3716                58.4326                67.5140
 Red. masses --      5.4709                 5.2058                 6.7794
 Frc consts  --      0.0058                 0.0105                 0.0182
 IR Inten    --      6.2146                 7.4712                 1.7577

                      4                      5                      6
                      A                      A                      A
 Frequencies --     81.6428               100.5158               122.4188
 Red. masses --      5.1874                 5.7331                 7.2287
 Frc consts  --      0.0204                 0.0341                 0.0638
 IR Inten    --      4.3277                 1.0698                 1.0877

                      7                      8                      9
                      A                      A                      A
 Frequencies --    135.9561               139.4986               155.3677
 Red. masses --      8.4901                 5.6762                 4.3905
 Frc consts  --      0.0925                 0.0651                 0.0624
 IR Inten    --      4.4310                39.5136                 6.9368

                     10                     11                     12
                      A                      A                      A
 Frequencies --    196.3777               206.7358               216.3334
 Red. masses --      5.9186                 6.6630                 4.5991
 Frc consts  --      0.1345                 0.1678                 0.1268
 IR Inten    --      3.1626                 5.5340                16.0235

                     13                     14                     15
                      A                      A                      A
 Frequencies --    276.7530               288.7327               302.1293
 Red. masses --      2.9377                 2.6590                 3.0707
 Frc consts  --      0.1326                 0.1306                 0.1651
 IR Inten    --      0.7315                 6.4717                 5.2169

                     16                     17                     18
                      A                      A                      A
 Frequencies --    333.8437               400.3598               440.7501
 Red. masses --      4.2116                 6.5517                 5.5658
 Frc consts  --      0.2766                 0.6187                 0.6370
 IR Inten    --      7.0040                 3.6430                 1.4082

                     19                     20                     21
                      A                      A                      A
 Frequencies --    514.6095               534.3616               551.3555
 Red. masses --      1.2840                 2.3933                 2.8046
 Frc consts  --      0.2003                 0.4026                 0.5023
 IR Inten    --     42.6667                 1.4367                 7.1547

                     22                     23                     24
                      A                      A                      A
 Frequencies --    562.0959               576.5750               604.2426
 Red. masses --      2.7216                 2.9678                 2.1688
 Frc consts  --      0.5066                 0.5813                 0.4665
 IR Inten    --     14.7928                21.0770                45.8998

                     25                     26                     27
                      A                      A                      A
 Frequencies --    617.9653               646.6782               659.8032
 Red. masses --      1.4532                 1.9751                 1.6261
 Frc consts  --      0.3270                 0.4866                 0.4171
 IR Inten    --    235.6687               133.1017                90.0899

                     28                     29                     30
                      A                      A                      A
 Frequencies --    698.8716               729.7434               759.9431
 Red. masses --      1.8377                 1.1672                 1.9097
 Frc consts  --      0.5288                 0.3662                 0.6498
 IR Inten    --      0.3634                80.2263                16.0706

                     31                     32                     33
                      A                      A                      A
 Frequencies --    774.9750               782.9391               808.6605
 Red. masses --      4.6055                 3.2901                 3.1574
 Frc consts  --      1.6297                 1.1883                 1.2165
 IR Inten    --     71.8147               134.9199                27.7202

                     34                     35                     36
                      A                      A                      A
 Frequencies --    818.0730               836.7641               847.2933
 Red. masses --      1.4676                 3.1360                 3.2715
 Frc consts  --      0.5787                 1.2937                 1.3838
 IR Inten    --    144.2861               102.6228                21.2209

                     37                     38                     39
                      A                      A                      A
 Frequencies --    906.7151               955.0086              1025.5535
 Red. masses --      3.3125                 1.8623                 1.7061
 Frc consts  --      1.6045                 1.0007                 1.0572
 IR Inten    --      8.2092                38.4173                63.0956

                     40                     41                     42
                      A                      A                      A
 Frequencies --   1037.4848              1074.3865              1087.7788
 Red. masses --      3.8137                 5.0949                 2.0540
 Frc consts  --      2.4186                 3.4651                 1.4320
 IR Inten    --     15.5173               148.2363                 5.9698

                     43                     44                     45
                      A                      A                      A
 Frequencies --   1109.2247              1128.8075              1166.8663
 Red. masses --      2.5074                 2.2951                 2.3390
 Frc consts  --      1.8176                 1.7230                 1.8764
 IR Inten    --     43.1623                94.4029                36.9158

                     46                     47                     48
                      A                      A                      A
 Frequencies --   1167.8011              1191.9342              1205.3138
 Red. masses --      1.9941                 2.9475                 3.6371
 Frc consts  --      1.6023                 2.4672                 3.1132
 IR Inten    --     35.8171                47.0452                93.8805

                     49                     50                     51
                      A                      A                      A
 Frequencies --   1281.2567              1310.2512              1332.4827
 Red. masses --      1.2115                 1.1422                 2.0995
 Frc consts  --      1.1717                 1.1553                 2.1963
 IR Inten    --     86.9884                30.3890               236.4263

                     52                     53                     54
                      A                      A                      A
 Frequencies --   1344.7694              1366.0968              1394.6223
 Red. masses --      1.1589                 1.2237                 1.2829
 Frc consts  --      1.2348                 1.3455                 1.4702
 IR Inten    --     16.1864               117.0900                59.2579

                     55                     56                     57
                      A                      A                      A
 Frequencies --   1417.2995              1441.8880              1462.8950
 Red. masses --      1.6923                 2.1719                 1.3456
 Frc consts  --      2.0029                 2.6605                 1.6967
 IR Inten    --    152.7948               201.8449               122.8124

                     58                     59                     60
                      A                      A                      A
 Frequencies --   1467.5115              1487.1537              1489.9683
 Red. masses --      1.4756                 1.3462                 1.6814
 Frc consts  --      1.8723                 1.7542                 2.1993
 IR Inten    --     71.6995                39.8010                78.3596

                     61                     62                     63
                      A                      A                      A
 Frequencies --   1499.7895              1505.8688              1537.8075
 Red. masses --      1.4479                 1.5754                 1.2749
 Frc consts  --      1.9189                 2.1049                 1.7763
 IR Inten    --     34.6242                88.2200                36.6343

                     64                     65                     66
                      A                      A                      A
 Frequencies --   1544.2557              1569.0874              1575.5069
 Red. masses --      1.4687                 1.1216                 1.0898
 Frc consts  --      2.0635                 1.6270                 1.5939
 IR Inten    --      8.1900                 5.7564                 0.7627

                     67                     68                     69
                      A                      A                      A
 Frequencies --   1665.4419              1782.3524              1807.2091
 Red. masses --      1.2546                 4.0447                 6.7191
 Frc consts  --      2.0502                 7.5704                12.9295
 IR Inten    --    151.9581               527.8061               489.9682

                     70                     71                     72
                      A                      A                      A
 Frequencies --   1819.5237              3056.7671              3058.3035
 Red. masses --      6.4515                 1.0726                 1.0660
 Frc consts  --     12.5842                 5.9048                 5.8747
 IR Inten    --    353.8324                74.7663                28.2998

                     73                     74                     75
                      A                      A                      A
 Frequencies --   3061.6662              3104.8501              3107.2137
 Red. masses --      1.0580                 1.1049                 1.1104
 Frc consts  --      5.8433                 6.2754                 6.3164
 IR Inten    --     49.1008                20.6513                14.2561

                     76                     77                     78
                      A                      A                      A
 Frequencies --   3237.1422              3438.8057              3494.8405
 Red. masses --      1.0885                 1.0740                 1.0767
 Frc consts  --      6.7204                 7.4832                 7.7481
 IR Inten    --      3.4396               106.3135               533.6775

                     79                     80                     81
                      A                      A                      A
 Frequencies --   3527.4024              3538.7729              3570.3374
 Red. masses --      1.0741                 1.0504                 1.0753
 Frc consts  --      7.8739                 7.7499                 8.0760
 IR Inten    --     15.2626                27.7249                30.7925

                     82                     83                     84
                      A                      A                      A
 Frequencies --   3600.0393              3601.5121              3663.4375
 Red. masses --      1.0753                 1.0764                 1.0974
 Frc consts  --      8.2113                 8.2264                 8.6774
 IR Inten    --     46.4125                19.9293                60.1292

 - Thermochemistry -
 -------------------
 Temperature   298.150 Kelvin.  Pressure   1.00000 Atm.
 Atom     1 has atomic number  6 and mass  12.00000

 Molecular mass:   234.10765 amu.
 Principal axes and moments of inertia in atomic units:
                           1         2         3
     Eigenvalues --  2839.823524390.180725767.69107
           X            0.99987   0.01069   0.01210
           Y           -0.01065   0.99994  -0.00284
           Z           -0.01213   0.00271   0.99992
 This molecule is an asymmetric top.
 Rotational symmetry number  1.
 Warning -- assumption of classical behavior for rotation
           may cause significant error
 Rotational temperatures (Kelvin)      0.03050     0.01973     0.01502
 Rotational constants (GHZ):           0.63551     0.41109     0.31291
 Zero-point vibrational energy     652632.8 (Joules/Mol)
                                  155.98299 (Kcal/Mol)
 Warning -- explicit consideration of  25 degrees of freedom as
           vibrations may cause significant error
 Vibrational temperatures:     60.96    84.07    97.14   117.47   144.62
          (Kelvin)            176.13   195.61   200.71   223.54   282.54
                              297.45   311.26   398.19   415.42   434.70
                              480.33   576.03   634.14   740.41   768.83
                              793.28   808.73   829.56   869.37   889.11
                              930.43   949.31  1005.52  1049.94  1093.39
                             1115.02  1126.47  1163.48  1177.02  1203.92
                             1219.07  1304.56  1374.04  1475.54  1492.71
                             1545.80  1565.07  1595.93  1624.10  1678.86
                             1680.21  1714.93  1734.18  1843.44  1885.16
                             1917.15  1934.82  1965.51  2006.55  2039.18
                             2074.56  2104.78  2111.42  2139.68  2143.73
                             2157.86  2166.61  2212.56  2221.84  2257.57
                             2266.80  2396.20  2564.41  2600.17  2617.89
                             4398.01  4400.22  4405.05  4467.19  4470.59
                             4657.53  4947.67  5028.30  5075.15  5091.50
                             5136.92  5179.65  5181.77  5270.87

 Zero-point correction=                           0.248575 (Hartree/Particle)
 Thermal correction to Energy=                    0.264697
 Thermal correction to Enthalpy=                  0.265641
 Thermal correction to Gibbs Free Energy=         0.204534
 Sum of electronic and zero-point Energies=           -866.322437
 Sum of electronic and thermal Energies=              -866.306314
 Sum of electronic and thermal Enthalpies=            -866.305370
 Sum of electronic and thermal Free Energies=         -866.366477

                     E (Thermal)             CV                S
                      KCal/Mol        Cal/Mol-Kelvin    Cal/Mol-Kelvin
 Total                  166.100             59.602            128.611
 Electronic               0.000              0.000              0.000
 Translational            0.889              2.981             42.254
 Rotational               0.889              2.981             32.642
 Vibrational            164.323             53.640             53.716
 Vibration     1          0.595              1.980              5.145
 Vibration     2          0.596              1.974              4.509
 Vibration     3          0.598              1.970              4.225
 Vibration     4          0.600              1.962              3.851
 Vibration     5          0.604              1.949              3.444
 Vibration     6          0.610              1.930              3.062
 Vibration     7          0.614              1.917              2.860
 Vibration     8          0.615              1.914              2.811
 Vibration     9          0.620              1.897              2.605
 Vibration    10          0.636              1.845              2.167
 Vibration    11          0.641              1.830              2.072
 Vibration    12          0.645              1.816              1.990
 Vibration    13          0.678              1.716              1.554
 Vibration    14          0.685              1.695              1.481
 Vibration    15          0.694              1.670              1.405
 Vibration    16          0.715              1.608              1.241
 Vibration    17          0.766              1.469              0.961
 Vibration    18          0.801              1.381              0.824
 Vibration    19          0.870              1.218              0.623
 Vibration    20          0.889              1.174              0.578
 Vibration    21          0.907              1.137              0.541
 Vibration    22          0.918              1.113              0.520
 Vibration    23          0.933              1.082              0.492
 Vibration    24          0.963              1.023              0.442
 Vibration    25          0.978              0.994              0.420

                           ! Non-Optimized Parameters !
 Normal termination of Gaussian 16 at Fri Dec 11 00:14:26 2020.

 ----------------------------------------------------------------------
 # B3LYP/6-311++G(d,p) empiricaldispersion=gd3bj scf=xqc pop=npa geom=c
 heck
 ----------------------------------------------------------------------

 --------------------------------------
 CID_23262921_JID_6568_Energie_neutraal
 --------------------------------------
 Structure from the checkpoint file:  "JID_6568.chk"
 Charge =  0 Multiplicity = 1

 SCF Done:  E(RB3LYP) =  -866.861745977     A.U. after   14 cycles
 Normal termination of Gaussian 16 at Fri Dec 11 00:17:51 2020.

 ----------------------------------------------------------------------
 # B3LYP/6-311++G(d,p) empiricaldispersion=gd3bj scf=xqc pop=npa geom=c
 heck
 ----------------------------------------------------------------------

 ------------------------------------
 CID_23262921_JID_6568_Energie_kation
 ------------------------------------
 Structure from the checkpoint file:  "JID_6568.chk"
 Charge =  1 Multiplicity = 2

 SCF Done:  E(UB3LYP) =  -866.522442149     A.U. after   33 cycles
 SCF Done:  E(UB3LYP) =  -866.527387889     a.u. after   22 cycles
 Normal termination of Gaussian 16 at Fri Dec 11 03:55:37 2020.
 Gaussian 16:  ES64L-G16RevA.03 25-Dec-2016

 ----------------------------------------------------------------------
 # B3LYP/6-311++G(d,p) empiricaldispersion=gd3bj scf=xqc pop=npa geom=c
 heck
 ----------------------------------------------------------------------

 -----------------------------------
 CID_23262921_JID_6568_Energie_anion
 -----------------------------------
 Structure from the checkpoint file:  "JID_6568.chk"
 Charge = -1 Multiplicity = 2

                         Standard orientation:
 ---------------------------------------------------------------------
 Center     Atomic      Atomic             Coordinates (Angstroms)
 Number     Number       Type             X           Y           Z
 ---------------------------------------------------------------------
      1          6           0       -2.614874   -0.415717    0.715412
      2          7           0       -1.491315   -1.293510    0.580342
      3          6           0       -1.138389   -1.954916   -0.567487
      4          8           0       -0.088799   -2.607230   -0.642338
      5          7           0       -2.023221   -1.851693   -1.619894
      6          7           0       -2.580761    0.773201   -0.178960
      7          6           0       -1.793801    1.884728    0.211554
      8          8           0       -2.296282    2.974640    0.440413
      9          7           0       -0.435412    1.647070    0.322193
     10          6           0        0.347873    0.911893   -0.701203
     11          7           0        1.702289    1.409849   -0.720545
     12          6           0        2.844495    0.631810   -0.507632
     13          8           0        3.883116    0.875321   -1.103393
     14          7           0        2.748547   -0.413573    0.396409
     15          6           0        1.914558   -0.479504    1.578131
     16          8           0        1.151936   -1.671489    1.660474
     17          1           0       -2.668295   -0.121360    1.768888
     18          1           0       -3.540334   -0.943536    0.461381
     19          1           0       -0.771942   -1.305782    1.301766
     20          1           0       -2.494015   -0.958307   -1.720019
     21          1           0       -1.643537   -2.229048   -2.478399
     22          1           0       -3.526240    1.132944   -0.291376
     23          1           0        0.040249    2.500023    0.598622
     24          1           0        0.373071   -0.148907   -0.481894
     25          1           0       -0.118922    1.040070   -1.685052
     26          1           0        1.907468    2.113293   -1.419040
     27          1           0        3.626503   -0.916029    0.442193
     28          1           0        2.542117   -0.455248    2.476516
     29          1           0        1.268567    0.403715    1.594324
     30          1           0        1.005482   -2.050937    0.761364
 ---------------------------------------------------------------------

 SCF Done:  E(UB3LYP) =  -866.858265303     A.U. after   32 cycles

 The electronic state is 2-A.
 Alpha  occ. eigenvalues --  -19.03903 -19.00834 -19.00620 -19.00148 -14.26065
 Alpha  occ. eigenvalues --  -14.25789 -14.24827 -14.24470 -14.23866 -14.23093
 Alpha  occ. eigenvalues --  -10.22439 -10.21074 -10.20988 -10.17934 -10.16161
 Alpha  occ. eigenvalues --  -10.15879  -0.97817  -0.96859  -0.96508  -0.94722
 Alpha  occ. eigenvalues --   -0.87294  -0.86343  -0.83832  -0.81791  -0.80373
 Alpha  occ. eigenvalues --   -0.79032  -0.62738  -0.61548  -0.61224  -0.54011
 Alpha  occ. eigenvalues --   -0.53325  -0.51014  -0.47352  -0.45783  -0.44344
 Alpha  occ. eigenvalues --   -0.43668  -0.42522  -0.41818  -0.40710  -0.39451
 Alpha  occ. eigenvalues --   -0.39217  -0.37490  -0.37387  -0.35406  -0.34529
 Alpha  occ. eigenvalues --   -0.34275  -0.33844  -0.33228  -0.32685  -0.31246
 Alpha  occ. eigenvalues --   -0.29836  -0.28768  -0.22060  -0.21413  -0.20732
 Alpha  occ. eigenvalues --   -0.20135  -0.19456  -0.18815  -0.18318  -0.17762
 Alpha  occ. eigenvalues --   -0.17385  -0.16450   0.03908
 Alpha virt. eigenvalues --    0.06145   0.06619   0.07560   0.08686   0.08952
 Alpha virt. eigenvalues --    0.09344   0.09996   0.10229   0.10762   0.11612
 Alpha virt. eigenvalues --    0.12062   0.12661   0.12956   0.13023   0.14448

  Beta  occ. eigenvalues --  -19.03900 -19.00830 -19.00612 -19.00134 -14.26055
  Beta  occ. eigenvalues --  -14.25767 -14.24806 -14.24470 -14.23819 -14.23025
  Beta  occ. eigenvalues --  -10.22438 -10.21057 -10.20982 -10.17926 -10.16134
  Beta  occ. eigenvalues --  -10.15834  -0.97806  -0.96836  -0.96483  -0.94714
  Beta  occ. eigenvalues --   -0.87266  -0.86309  -0.83814  -0.81739  -0.80311
  Beta  occ. eigenvalues --   -0.78969  -0.62695  -0.61460  -0.61189  -0.53975
  Beta  occ. eigenvalues --   -0.53260  -0.50939  -0.47329  -0.45714  -0.44319
  Beta  occ. eigenvalues --   -0.43625  -0.42476  -0.41727  -0.40629  -0.39417
  Beta  occ. eigenvalues --   -0.39167  -0.37457  -0.37344  -0.35377  -0.34502
  Beta  occ. eigenvalues --   -0.34245  -0.33801  -0.33190  -0.32646  -0.31192
  Beta  occ. eigenvalues --   -0.29789  -0.28758  -0.22036  -0.21387  -0.20708
  Beta  occ. eigenvalues --   -0.20081  -0.19413  -0.18778  -0.18299  -0.17713
  Beta  occ. eigenvalues --   -0.17350  -0.16423
  Beta virt. eigenvalues --    0.06116   0.07189   0.07523   0.07976   0.09122
  Beta virt. eigenvalues --    0.09563   0.09709   0.10261   0.10730   0.10918
  Beta virt. eigenvalues --    0.11587   0.12415   0.13121   0.13289   0.13605

 Mulliken charges and spin densities:
               1          2
     1  C    1.557471  -2.010161
     2  N   -0.378457   0.132122
     3  C    0.457477  -0.519370
     4  O   -0.351979   0.020853
     5  N   -0.403158   0.137505
     6  N   -0.596472   0.368732
     7  C    0.493786  -0.324914
     8  O   -0.305254   0.000126
     9  N   -0.134295  -0.103175
    10  C   -0.021678  -0.338461
    11  N   -0.272351  -0.018057
    12  C    0.127945   0.014369
    13  O   -0.362573   0.016214
    14  N   -0.232338  -0.036955
    15  C   -0.131509  -0.212704
    16  O   -0.309650   0.002321
    17  H   -0.022893   0.195212
    18  H   -0.896908   1.151609
    19  H    0.425973  -0.043187
    20  H   -0.074156   0.352849
    21  H   -0.142937   0.431662
    22  H   -0.209321   0.534348
    23  H    0.290999   0.043799
    24  H    0.374070  -0.237599
    25  H   -0.690347   0.940834
    26  H    0.052730   0.265273
    27  H    0.294504   0.025234
    28  H    0.003794   0.158342
    29  H    0.149672   0.048811
    30  H    0.307852   0.004367
 Sum of Mulliken charges =  -1.00000   1.00000

 Dipole moment (field-independent basis, Debye):
    X=              6.0810    Y=             -0.6969    Z=              5.0418  Tot=              7.9300
 Quadrupole moment (field-independent basis, Debye-Ang):
   XX=           -171.7270   YY=           -142.1983   ZZ=           -130.8863
   XY=              0.9130   XZ=              1.6440   YZ=              1.3018

 Summary of Natural Population Analysis:

                                       Natural Population
                Natural  -----------------------------------------------
    Atom  No    Charge         Core      Valence    Rydberg      Total
 -----------------------------------------------------------------------
      C    1    0.00212      0.99962     1.98327    0.01499     2.99788
      N    2   -0.34140      0.99965     2.83253    0.00922     3.84140
      C    3    0.40464      0.99971     1.57198    0.02366     2.59536
      O    4   -0.35678      0.99986     3.35136    0.00556     4.35678
      N    5   -0.41095      0.99970     2.90268    0.00857     3.91095
      N    6   -0.35899      0.99970     2.84671    0.01258     3.85899
      C    7    0.41551      0.99970     1.56146    0.02334     2.58449
      O    8   -0.31875      0.99987     3.31338    0.00549     4.31875
      N    9   -0.34351      0.99967     2.83357    0.01027     3.84351
      C   10   -0.00065      0.99959     1.98685    0.01422     3.00065
      N   11   -0.33869      0.99967     2.82941    0.00960     3.83869
      C   12    0.41178      0.99970     1.56601    0.02251     2.58822
      O   13   -0.33033      0.99987     3.32481    0.00565     4.33033
      N   14   -0.33725      0.99967     2.83057    0.00702     3.83725
      C   15    0.07268      0.99963     1.91363    0.01406     2.92732
      O   16   -0.39339      0.99989     3.38657    0.00693     4.39339
      H   17    0.09423      0.00000     0.40452    0.00125     0.40577
      H   18    0.10475      0.00000     0.39196    0.00328     0.39525
      H   19    0.21176      0.00000     0.28547    0.00277     0.28824
      H   20    0.20539      0.00000     0.28550    0.00911     0.29461
      H   21    0.19687      0.00000     0.30103    0.00210     0.30313
      H   22    0.20040      0.00000     0.29220    0.00740     0.29960
      H   23    0.19576      0.00000     0.30201    0.00223     0.30424
      H   24    0.09894      0.00000     0.39608    0.00499     0.40106
      H   25    0.10037      0.00000     0.39664    0.00299     0.39963
      H   26    0.20082      0.00000     0.29676    0.00242     0.29918
      H   27    0.19612      0.00000     0.30174    0.00214     0.30388
      H   28    0.07981      0.00000     0.41895    0.00123     0.42019
      H   29    0.08656      0.00000     0.41137    0.00207     0.41344
      H   30    0.25219      0.00000     0.24407    0.00374     0.24781
 =======================================================================
   * Total *    0.00000     15.99551    45.76311    0.24138    62.00000

 Normal termination of Gaussian 16 at Fri Dec 11 04:05:59 2020.
