 Gaussian 16, Revision A.03,

 -----------------------------------------------------------
 # opt freq B3LYP/6-31G(d) empiricaldispersion=gd3bj scf=xqc
 -----------------------------------------------------------

 --------------------------------
 CID_105113702_JID_10744_neutraal
 --------------------------------
 Symbolic Z-matrix:
 Charge =  0 Multiplicity = 1

 SCF Done:  E(RB3LYP) =  -1224.58656564     A.U. after   15 cycles
 SCF Done:  E(RB3LYP) =  -1224.59155538     A.U. after   13 cycles
 SCF Done:  E(RB3LYP) =  -1224.58790138     A.U. after   14 cycles
 SCF Done:  E(RB3LYP) =  -1224.59211661     A.U. after   12 cycles
 SCF Done:  E(RB3LYP) =  -1224.59328038     A.U. after   13 cycles
 SCF Done:  E(RB3LYP) =  -1224.59552726     A.U. after   13 cycles
 SCF Done:  E(RB3LYP) =  -1224.59679394     A.U. after   12 cycles
 SCF Done:  E(RB3LYP) =  -1224.59799110     A.U. after   13 cycles
 SCF Done:  E(RB3LYP) =  -1224.59884084     A.U. after   12 cycles
 SCF Done:  E(RB3LYP) =  -1224.59933789     A.U. after   12 cycles
 SCF Done:  E(RB3LYP) =  -1224.60194878     A.U. after   11 cycles
 SCF Done:  E(RB3LYP) =  -1224.60195112     A.U. after   10 cycles
 SCF Done:  E(RB3LYP) =  -1224.60195165     A.U. after    8 cycles
 SCF Done:  E(RB3LYP) =  -1224.60195173     A.U. after    7 cycles
 SCF Done:  E(RB3LYP) =  -1224.60195174     A.U. after    7 cycles
 Optimization completed.
    -- Stationary point found.
 Normal termination of Gaussian 16 at Sun Dec 13 17:33:13 2020.

 --------------------------------------------------------------------
 #N Geom=AllCheck Guess=TCheck SCRF=Check GenChk RB3LYP/6-31G(d) Freq
 --------------------------------------------------------------------

 Structure from the checkpoint file:  "JID_10744.chk"
 --------------------------------
 CID_105113702_JID_10744_neutraal
 --------------------------------
 Charge =  0 Multiplicity = 1

 SCF Done:  E(RB3LYP) =  -1224.60195174     A.U. after    1 cycles

  Exact polarizability: 252.433  24.875 200.050  10.427 -26.359 126.853
 Approx polarizability: 364.923  45.555 315.823  17.498 -70.476 221.923

                      1                      2                      3
                      A                      A                      A
 Frequencies --     21.4031                36.2324                43.9046
 Red. masses --      7.3570                 3.7448                 5.9140
 Frc consts  --      0.0020                 0.0029                 0.0067
 IR Inten    --      0.5880                 0.1779                 0.6157

                      4                      5                      6
                      A                      A                      A
 Frequencies --     53.0942                71.1975                79.6495
 Red. masses --      5.2767                 3.1675                 5.2274
 Frc consts  --      0.0088                 0.0095                 0.0195
 IR Inten    --      1.9313                 3.3873                 0.3315

                      7                      8                      9
                      A                      A                      A
 Frequencies --     89.4519               114.5360               129.2798
 Red. masses --      3.8383                 3.7264                 3.6733
 Frc consts  --      0.0181                 0.0288                 0.0362
 IR Inten    --      1.6209                 1.1047                 7.5518

                     10                     11                     12
                      A                      A                      A
 Frequencies --    135.7270               156.6881               196.3131
 Red. masses --      2.4491                 3.6437                 4.3613
 Frc consts  --      0.0266                 0.0527                 0.0990
 IR Inten    --      0.1662                 0.4621                 0.0529

                     13                     14                     15
                      A                      A                      A
 Frequencies --    239.0965               253.7497               269.0312
 Red. masses --      1.3007                 3.2206                 1.3838
 Frc consts  --      0.0438                 0.1222                 0.0590
 IR Inten    --      0.2299                 1.6126                 0.8557

                     16                     17                     18
                      A                      A                      A
 Frequencies --    288.6076               293.0014               318.9359
 Red. masses --      3.7405                 3.8252                 2.1069
 Frc consts  --      0.1836                 0.1935                 0.1263
 IR Inten    --      3.5448                 4.4325                 0.3973

                     19                     20                     21
                      A                      A                      A
 Frequencies --    321.9468               375.6427               389.8590
 Red. masses --      4.6930                 3.8692                 2.5856
 Frc consts  --      0.2866                 0.3217                 0.2315
 IR Inten    --      1.4666                 2.9682                 2.7347

                     22                     23                     24
                      A                      A                      A
 Frequencies --    418.2850               438.3986               461.1088
 Red. masses --      3.0313                 3.6403                 4.4635
 Frc consts  --      0.3125                 0.4122                 0.5592
 IR Inten    --      0.3493                 3.0560                 3.3229

                     25                     26                     27
                      A                      A                      A
 Frequencies --    479.1530               512.0971               555.8921
 Red. masses --      4.1166                 3.9805                 3.2099
 Frc consts  --      0.5569                 0.6150                 0.5844
 IR Inten    --     14.9381                 2.6104                 1.4408

                     28                     29                     30
                      A                      A                      A
 Frequencies --    579.1215               620.8271               635.5304
 Red. masses --      3.4202                 8.3245                 6.4600
 Frc consts  --      0.6758                 1.8904                 1.5373
 IR Inten    --      9.9518                 4.7085                 0.4340

                     31                     32                     33
                      A                      A                      A
 Frequencies --    638.2842               684.3340               692.6669
 Red. masses --      2.6042                 6.4217                 3.4653
 Frc consts  --      0.6251                 1.7719                 0.9796
 IR Inten    --      3.2024                12.0239                 5.5625

                     34                     35                     36
                      A                      A                      A
 Frequencies --    708.4277               719.0874               745.2148
 Red. masses --      2.1925                 2.8814                 1.2961
 Frc consts  --      0.6483                 0.8778                 0.4241
 IR Inten    --      9.3198                19.5060                65.1735

                     37                     38                     39
                      A                      A                      A
 Frequencies --    758.0782               791.8317               797.7889
 Red. masses --      2.1375                 2.5609                 2.8240
 Frc consts  --      0.7237                 0.9460                 1.0590
 IR Inten    --      4.9242                 5.3244                 5.6092

                     40                     41                     42
                      A                      A                      A
 Frequencies --    809.0431               856.7908               864.2478
 Red. masses --      1.9708                 3.1031                 1.4524
 Frc consts  --      0.7600                 1.3421                 0.6392
 IR Inten    --      6.2914                10.8930                 4.4284

                     43                     44                     45
                      A                      A                      A
 Frequencies --    904.2188               926.0163               936.0681
 Red. masses --      2.7851                 5.1469                 1.4433
 Frc consts  --      1.3416                 2.6004                 0.7451
 IR Inten    --     15.6946                 0.4524                 4.2502

                     46                     47                     48
                      A                      A                      A
 Frequencies --    958.6836               972.8970               975.8090
 Red. masses --      2.2289                 1.9975                 1.3786
 Frc consts  --      1.2069                 1.1140                 0.7734
 IR Inten    --      4.4840                 0.6825                 1.8601

                     49                     50                     51
                      A                      A                      A
 Frequencies --   1001.8995              1002.9889              1022.7040
 Red. masses --      1.2927                 1.9741                 5.4137
 Frc consts  --      0.7645                 1.1701                 3.3361
 IR Inten    --      2.7678                 1.5271                 0.2016

                     52                     53                     54
                      A                      A                      A
 Frequencies --   1057.8386              1059.1911              1083.1079
 Red. masses --      2.3817                 2.4825                 1.9535
 Frc consts  --      1.5703                 1.6409                 1.3502
 IR Inten    --     15.2582                 5.2657                17.9185

                     55                     56                     57
                      A                      A                      A
 Frequencies --   1108.2896              1117.2276              1123.5136
 Red. masses --      2.0831                 1.7169                 2.2655
 Frc consts  --      1.5076                 1.2626                 1.6849
 IR Inten    --     55.0297                42.9486                37.4095

                     58                     59                     60
                      A                      A                      A
 Frequencies --   1141.1146              1181.1338              1184.8930
 Red. masses --      2.3777                 2.1496                 1.3567
 Frc consts  --      1.8242                 1.7669                 1.1223
 IR Inten    --     13.7075                31.4947                 7.0920

                     61                     62                     63
                      A                      A                      A
 Frequencies --   1194.7810              1200.4919              1219.4912
 Red. masses --      1.0980                 2.5489                 1.1885
 Frc consts  --      0.9235                 2.1643                 1.0414
 IR Inten    --      0.2640                41.4556                 2.1979

                     64                     65                     66
                      A                      A                      A
 Frequencies --   1223.6288              1238.1492              1250.3322
 Red. masses --      1.5547                 1.5439                 1.7038
 Frc consts  --      1.3715                 1.3945                 1.5693
 IR Inten    --     29.1678                16.7691                28.6311

                     67                     68                     69
                      A                      A                      A
 Frequencies --   1278.3555              1302.3712              1321.7408
 Red. masses --      1.5734                 1.4966                 2.0829
 Frc consts  --      1.5149                 1.4956                 2.1439
 IR Inten    --     45.0114                24.2098                 8.3504

                     70                     71                     72
                      A                      A                      A
 Frequencies --   1323.5806              1350.8789              1361.7822
 Red. masses --      2.1979                 1.1418                 6.3990
 Frc consts  --      2.2686                 1.2276                 6.9916
 IR Inten    --      8.0076                 7.8478                13.6848

                     73                     74                     75
                      A                      A                      A
 Frequencies --   1375.5124              1379.2531              1416.3253
 Red. masses --      1.6282                 1.4251                 1.2894
 Frc consts  --      1.8150                 1.5973                 1.5239
 IR Inten    --      2.4165                 2.8109                 1.1127

                     76                     77                     78
                      A                      A                      A
 Frequencies --   1425.4656              1439.0336              1479.6337
 Red. masses --      1.1906                 1.3135                 1.0982
 Frc consts  --      1.4254                 1.6026                 1.4166
 IR Inten    --      8.1842                16.0071                12.8369

                     79                     80                     81
                      A                      A                      A
 Frequencies --   1493.6610              1499.1596              1501.9428
 Red. masses --      2.3291                 1.1277                 1.0894
 Frc consts  --      3.0616                 1.4932                 1.4479
 IR Inten    --     11.2047                 2.3980                12.8623

                     82                     83                     84
                      A                      A                      A
 Frequencies --   1515.2165              1519.8412              1523.5674
 Red. masses --      1.1192                 1.0969                 2.4672
 Frc consts  --      1.5139                 1.4928                 3.3743
 IR Inten    --      5.8019                 1.8153                 2.8307

                     85                     86                     87
                      A                      A                      A
 Frequencies --   1530.6052              1536.3174              1545.7232
 Red. masses --      1.0848                 1.0540                 1.0550
 Frc consts  --      1.4973                 1.4657                 1.4851
 IR Inten    --      7.0822                 1.6931                10.0651

                     88                     89                     90
                      A                      A                      A
 Frequencies --   1566.6011              1573.0625              1641.7720
 Red. masses --      4.5715                 6.1582                 5.5814
 Frc consts  --      6.6103                 8.9783                 8.8637
 IR Inten    --     37.6280                33.0463                 1.2093

                     91                     92                     93
                      A                      A                      A
 Frequencies --   1667.0149              1816.5174              3029.4866
 Red. masses --      5.5213                11.1818                 1.0355
 Frc consts  --      9.0400                21.7390                 5.5996
 IR Inten    --      3.0955               243.1317                33.6483

                     94                     95                     96
                      A                      A                      A
 Frequencies --   3037.7973              3059.5117              3063.5075
 Red. masses --      1.0702                 1.0501                 1.0704
 Frc consts  --      5.8188                 5.7916                 5.9190
 IR Inten    --     10.9265                18.6446                25.8698

                     97                     98                     99
                      A                      A                      A
 Frequencies --   3070.9407              3081.7575              3091.5986
 Red. masses --      1.0633                 1.0736                 1.0871
 Frc consts  --      5.9081                 6.0076                 6.1221
 IR Inten    --      5.7740                33.6020                42.1694

                    100                    101                    102
                      A                      A                      A
 Frequencies --   3118.9721              3126.8312              3135.6914
 Red. masses --      1.0944                 1.1007                 1.1018
 Frc consts  --      6.2723                 6.3404                 6.3828
 IR Inten    --      2.4656                31.8061                29.7781

                    103                    104                    105
                      A                      A                      A
 Frequencies --   3136.6375              3140.5172              3143.2437
 Red. masses --      1.1002                 1.1004                 1.1024
 Frc consts  --      6.3777                 6.3945                 6.4170
 IR Inten    --      3.6637                33.2751                13.6686

                    106                    107                    108
                      A                      A                      A
 Frequencies --   3182.9234              3191.7973              3201.1739
 Red. masses --      1.0850                 1.0882                 1.0928
 Frc consts  --      6.4763                 6.5320                 6.5979
 IR Inten    --      1.9504                 5.4318                31.9628

                    109                    110                    111
                      A                      A                      A
 Frequencies --   3211.3092              3238.1501              3283.1058
 Red. masses --      1.0971                 1.0925                 1.0939
 Frc consts  --      6.6659                 6.7493                 6.9471
 IR Inten    --     28.7924                 1.8629                 2.8691

 - Thermochemistry -
 -------------------
 Temperature   298.150 Kelvin.  Pressure   1.00000 Atm.
 Atom     1 has atomic number  6 and mass  12.00000

 Molecular mass:   289.11365 amu.
 Principal axes and moments of inertia in atomic units:
                           1         2         3
     Eigenvalues --  4396.516547611.17662**********
           X            0.99948  -0.03211   0.00092
           Y            0.03210   0.99944   0.00980
           Z           -0.00123  -0.00977   0.99995
 This molecule is an asymmetric top.
 Rotational symmetry number  1.
 Warning -- assumption of classical behavior for rotation
           may cause significant error
 Rotational temperatures (Kelvin)      0.01970     0.01138     0.00792
 Rotational constants (GHZ):           0.41049     0.23712     0.16492
 Zero-point vibrational energy     847302.5 (Joules/Mol)
                                  202.51016 (Kcal/Mol)
 Warning -- explicit consideration of  28 degrees of freedom as
           vibrations may cause significant error
 Vibrational temperatures:     30.79    52.13    63.17    76.39   102.44
          (Kelvin)            114.60   128.70   164.79   186.00   195.28
                              225.44   282.45   344.01   365.09   387.08
                              415.24   421.56   458.88   463.21   540.47
                              560.92   601.82   630.76   663.43   689.39
                              736.79   799.80   833.23   893.23   914.39
                              918.35   984.60   996.59  1019.27  1034.61
                             1072.20  1090.71  1139.27  1147.84  1164.03
                             1232.73  1243.46  1300.97  1332.33  1346.79
                             1379.33  1399.78  1403.97  1441.51  1443.08
                             1471.44  1521.99  1523.94  1558.35  1594.58
                             1607.44  1616.49  1641.81  1699.39  1704.80
                             1719.02  1727.24  1754.58  1760.53  1781.42
                             1798.95  1839.27  1873.82  1901.69  1904.34
                             1943.61  1959.30  1979.06  1984.44  2037.78
                             2050.93  2070.45  2128.86  2149.05  2156.96
                             2160.96  2180.06  2186.71  2192.07  2202.20
                             2210.42  2223.95  2253.99  2263.29  2362.14
                             2398.46  2613.56  4358.76  4370.71  4401.95
                             4407.70  4418.40  4433.96  4448.12  4487.51
                             4498.81  4511.56  4512.92  4518.50  4522.43
                             4579.52  4592.28  4605.78  4620.36  4658.98
                             4723.66

 Zero-point correction=                           0.322720 (Hartree/Particle)
 Thermal correction to Energy=                    0.342220
 Thermal correction to Enthalpy=                  0.343164
 Thermal correction to Gibbs Free Energy=         0.272897
 Sum of electronic and zero-point Energies=          -1224.279231
 Sum of electronic and thermal Energies=             -1224.259732
 Sum of electronic and thermal Enthalpies=           -1224.258788
 Sum of electronic and thermal Free Energies=        -1224.329055

                     E (Thermal)             CV                S
                      KCal/Mol        Cal/Mol-Kelvin    Cal/Mol-Kelvin
 Total                  214.746             73.438            147.889
 Electronic               0.000              0.000              0.000
 Translational            0.889              2.981             42.883
 Rotational               0.889              2.981             34.259
 Vibrational            212.969             67.476             70.748
 Vibration     1          0.593              1.985              6.500
 Vibration     2          0.594              1.982              5.455
 Vibration     3          0.595              1.980              5.075
 Vibration     4          0.596              1.976              4.699
 Vibration     5          0.598              1.968              4.120
 Vibration     6          0.600              1.963              3.899
 Vibration     7          0.602              1.957              3.672
 Vibration     8          0.607              1.937              3.191
 Vibration     9          0.612              1.924              2.957
 Vibration    10          0.614              1.918              2.863
 Vibration    11          0.620              1.895              2.589
 Vibration    12          0.636              1.845              2.167
 Vibration    13          0.657              1.781              1.810
 Vibration    14          0.665              1.756              1.704
 Vibration    15          0.673              1.730              1.602
 Vibration    16          0.685              1.695              1.482
 Vibration    17          0.688              1.687              1.457
 Vibration    18          0.705              1.637              1.316
 Vibration    19          0.707              1.631              1.300
 Vibration    20          0.746              1.522              1.057
 Vibration    21          0.758              1.492              1.001
 Vibration    22          0.781              1.431              0.898
 Vibration    23          0.799              1.386              0.832
 Vibration    24          0.819              1.336              0.763
 Vibration    25          0.836              1.296              0.712
 Vibration    26          0.867              1.223              0.629
 Vibration    27          0.911              1.127              0.532
 Vibration    28          0.936              1.076              0.487

 Optimization completed.
    -- Stationary point found.
 Normal termination of Gaussian 16 at Sun Dec 13 17:53:59 2020.

 ----------------------------------------------------------------------
 # B3LYP/6-311++G(d,p) empiricaldispersion=gd3bj scf=xqc pop=npa geom=c
 heck
 ----------------------------------------------------------------------

 ----------------------------------------
 CID_105113702_JID_10744_Energie_neutraal
 ----------------------------------------
 Structure from the checkpoint file:  "JID_10744.chk"
 Charge =  0 Multiplicity = 1

 SCF Done:  E(RB3LYP) =  -1224.85253212     A.U. after   17 cycles
 Normal termination of Gaussian 16 at Sun Dec 13 18:03:00 2020.

 ----------------------------------------------------------------------
 # B3LYP/6-311++G(d,p) empiricaldispersion=gd3bj scf=xqc pop=npa geom=c
 heck
 ----------------------------------------------------------------------

 --------------------------------------
 CID_105113702_JID_10744_Energie_kation
 --------------------------------------
 Structure from the checkpoint file:  "JID_10744.chk"
 Charge =  1 Multiplicity = 2

 SCF Done:  E(UB3LYP) =  -1224.56548310     A.U. after   27 cycles
 Normal termination of Gaussian 16 at Sun Dec 13 18:22:18 2020.
 Gaussian 16:  ES64L-G16RevA.03 25-Dec-2016

 ----------------------------------------------------------------------
 # B3LYP/6-311++G(d,p) empiricaldispersion=gd3bj scf=xqc pop=npa geom=c
 heck
 ----------------------------------------------------------------------

 -------------------------------------
 CID_105113702_JID_10744_Energie_anion
 -------------------------------------
 Structure from the checkpoint file:  "JID_10744.chk"
 Charge = -1 Multiplicity = 2

                         Standard orientation:
 ---------------------------------------------------------------------
 Center     Atomic      Atomic             Coordinates (Angstroms)
 Number     Number       Type             X           Y           Z
 ---------------------------------------------------------------------
      1          6           0        2.654880   -3.387652   -0.784376
      2          6           0        1.721707   -2.731515    0.234860
      3          6           0        2.224458   -1.372507    0.766570
      4          6           0        2.771791   -0.374716   -0.275824
      5          6           0        3.248721    0.911871    0.371965
      6          8           0        4.407386    1.271967    0.335056
      7          6           0        2.212665    1.758073    1.143530
      8          6           0        0.861828    1.829590    0.504055
      9          7           0       -0.122607    1.023203    0.772594
     10          6           0       -1.239193    1.275254   -0.009754
     11          6           0       -1.076609    2.303848   -0.905168
     12         16           0        0.506716    2.992731   -0.769182
     13          6           0       -2.444924    0.446090    0.155069
     14          6           0       -3.706399    0.913141   -0.244778
     15          6           0       -4.834176    0.106974   -0.114614
     16          6           0       -4.720143   -1.177281    0.421722
     17          6           0       -3.469960   -1.646183    0.828557
     18          6           0       -2.339218   -0.842235    0.702238
     19          8           0        0.357501   -2.710897   -0.196467
     20          6           0        0.041003   -2.012770   -1.387401
     21          1           0        2.777980   -2.789673   -1.692245
     22          1           0        2.263293   -4.368371   -1.071440
     23          1           0        3.649399   -3.525944   -0.345591
     24          1           0        1.670351   -3.391768    1.108312
     25          1           0        1.398122   -0.917794    1.319828
     26          1           0        3.027637   -1.578777    1.487027
     27          1           0        3.625297   -0.792487   -0.815032
     28          1           0        1.995526   -0.124632   -1.006047
     29          1           0        2.085621    1.302192    2.132861
     30          1           0        2.651924    2.748546    1.284826
     31          1           0       -1.782876    2.674386   -1.633667
     32          1           0       -3.807824    1.920119   -0.639558
     33          1           0       -5.804555    0.485147   -0.423874
     34          1           0       -5.600379   -1.805605    0.524223
     35          1           0       -3.369930   -2.645545    1.242449
     36          1           0       -1.366228   -1.219759    0.994159
     37          1           0        0.091305   -0.924608   -1.260088
     38          1           0        0.681152   -2.305792   -2.230182
     39          1           0       -0.992707   -2.274217   -1.625833
 ---------------------------------------------------------------------

 SCF Done:  E(UB3LYP) =  -1224.85596029     A.U. after   33 cycles
 SCF Done:  E(UB3LYP) =  -1224.85596029     a.u. after    1 cycles

 The electronic state is 2-A.
 Alpha  occ. eigenvalues --  -88.72868 -19.02211 -18.99935 -14.17021 -10.14250
 Alpha  occ. eigenvalues --  -10.13169 -10.10367 -10.08493 -10.07874 -10.07174
 Alpha  occ. eigenvalues --  -10.06954 -10.06785 -10.05935 -10.05346 -10.04844
 Alpha  occ. eigenvalues --  -10.04691 -10.04495 -10.04251 -10.03965 -10.03733
 Alpha  occ. eigenvalues --   -7.81545  -5.77823  -5.77480  -5.77187  -0.93403
 Alpha  occ. eigenvalues --   -0.93173  -0.82198  -0.73042  -0.70709  -0.67090
 Alpha  occ. eigenvalues --   -0.65239  -0.64732  -0.62472  -0.62044  -0.59828
 Alpha  occ. eigenvalues --   -0.56546  -0.55257  -0.48834  -0.47893  -0.47226
 Alpha  occ. eigenvalues --   -0.44518  -0.43070  -0.40969  -0.39723  -0.38914
 Alpha  occ. eigenvalues --   -0.37757  -0.37341  -0.35258  -0.34996  -0.33938
 Alpha  occ. eigenvalues --   -0.33316  -0.32228  -0.31942  -0.31589  -0.31221
 Alpha  occ. eigenvalues --   -0.30321  -0.29688  -0.29576  -0.27687  -0.27298
 Alpha  occ. eigenvalues --   -0.27049  -0.26921  -0.24812  -0.24548  -0.24472
 Alpha  occ. eigenvalues --   -0.23720  -0.23204  -0.22060  -0.21071  -0.20602
 Alpha  occ. eigenvalues --   -0.16323  -0.15802  -0.15111  -0.13981  -0.13429
 Alpha  occ. eigenvalues --   -0.13011  -0.09011   0.04869
 Alpha virt. eigenvalues --    0.06706   0.07635   0.08012   0.08482   0.09148
 Alpha virt. eigenvalues --    0.09640   0.09719   0.10485   0.10747   0.10912
 Alpha virt. eigenvalues --    0.11246   0.11647   0.11803   0.12186   0.12927

  Beta  occ. eigenvalues --  -88.72793 -19.02211 -18.99853 -14.17047 -10.14104
  Beta  occ. eigenvalues --  -10.13169 -10.10362 -10.08178 -10.07873 -10.07167
  Beta  occ. eigenvalues --  -10.06963 -10.06816 -10.05942 -10.05386 -10.04742
  Beta  occ. eigenvalues --  -10.04646 -10.04370 -10.04154 -10.03970 -10.03259
  Beta  occ. eigenvalues --   -7.81478  -5.77792  -5.77452  -5.76932  -0.93233
  Beta  occ. eigenvalues --   -0.93160  -0.81980  -0.72877  -0.70673  -0.66877
  Beta  occ. eigenvalues --   -0.64815  -0.64519  -0.62301  -0.61927  -0.59820
  Beta  occ. eigenvalues --   -0.56276  -0.55142  -0.48537  -0.47658  -0.47203
  Beta  occ. eigenvalues --   -0.44029  -0.42837  -0.40846  -0.39676  -0.38716
  Beta  occ. eigenvalues --   -0.37692  -0.37284  -0.35151  -0.34844  -0.33745
  Beta  occ. eigenvalues --   -0.33205  -0.32152  -0.31824  -0.31473  -0.31168
  Beta  occ. eigenvalues --   -0.30248  -0.29657  -0.29454  -0.27356  -0.27170
  Beta  occ. eigenvalues --   -0.26892  -0.26394  -0.24696  -0.24418  -0.24199
  Beta  occ. eigenvalues --   -0.23335  -0.22932  -0.21994  -0.20811  -0.20581
  Beta  occ. eigenvalues --   -0.16263  -0.15030  -0.14328  -0.13715  -0.12956
  Beta  occ. eigenvalues --   -0.12661  -0.07397
  Beta virt. eigenvalues --    0.06668   0.07959   0.08177   0.08988   0.09171
  Beta virt. eigenvalues --    0.09508   0.09686   0.09858   0.10652   0.10860
  Beta virt. eigenvalues --    0.10945   0.11619   0.11780   0.12152   0.12371

 Mulliken charges and spin densities:
               1          2
     1  C   -0.585494  -0.014284
     2  C   -0.223137   0.004405
     3  C   -0.368135   0.012531
     4  C    0.065120  -0.020653
     5  C   -0.189081   0.078542
     6  O   -0.288390   0.030733
     7  C    0.146845  -0.168982
     8  C    0.173756   0.227891
     9  N    0.210231  -0.018833
    10  C   -1.023551  -0.070156
    11  C    0.070813   0.355239
    12  S   -0.513364   0.178104
    13  C    0.460907   0.016164
    14  C   -0.326578   0.113727
    15  C   -0.298454  -0.023722
    16  C   -0.328200   0.096845
    17  C   -0.330418   0.041045
    18  C   -0.138461   0.029444
    19  O   -0.056274   0.000534
    20  C   -0.425535   0.000807
    21  H    0.143363   0.006939
    22  H    0.154131   0.002215
    23  H    0.127666   0.001780
    24  H    0.183528  -0.000092
    25  H    0.219658  -0.007022
    26  H    0.161176   0.000641
    27  H    0.196971   0.007819
    28  H    0.181186   0.011823
    29  H    0.120445   0.069348
    30  H    0.151974   0.059256
    31  H    0.230677  -0.023357
    32  H    0.098543  -0.001511
    33  H    0.124446   0.004373
    34  H    0.104820  -0.005922
    35  H    0.144696  -0.002497
    36  H    0.213115   0.001924
    37  H    0.143826  -0.002956
    38  H    0.101705   0.007810
    39  H    0.165473   0.000047
 Sum of Mulliken charges =  -1.00000   1.00000

 Dipole moment (field-independent basis, Debye):
    X=              0.9304    Y=             -4.7042    Z=             -1.0881  Tot=              4.9172
 Quadrupole moment (field-independent basis, Debye-Ang):
   XX=           -186.6526   YY=           -155.8553   ZZ=           -138.1160
   XY=            -14.1493   XZ=              3.1443   YZ=             -0.5422

 Summary of Natural Population Analysis:

                                       Natural Population
                Natural  -----------------------------------------------
    Atom  No    Charge         Core      Valence    Rydberg      Total
 -----------------------------------------------------------------------
      C    1   -0.30353      0.99965     2.29960    0.00429     3.30353
      C    2    0.07342      0.99956     1.91481    0.01221     2.92658
      C    3   -0.20602      0.99959     2.20033    0.00609     3.20602
      C    4   -0.24377      0.99958     2.23581    0.00838     3.24377
      C    5    0.32030      0.99967     1.65621    0.02383     2.67970
      O    6   -0.28847      0.99987     3.28151    0.00709     4.28847
      C    7   -0.26068      0.99953     2.25040    0.01075     3.26068
      C    8    0.07120      0.99960     1.90912    0.02008     2.92880
      N    9   -0.26218      0.99963     2.75181    0.01073     3.76218
      C   10    0.03541      0.99946     1.94929    0.01583     2.96459
      C   11   -0.10938      0.99948     2.10212    0.00777     3.10938
      S   12    0.19472      4.99943     2.78599    0.01986     7.80528
      C   13   -0.01032      0.99948     2.00117    0.00967     3.01032
      C   14   -0.08111      0.99954     2.07390    0.00767     3.08111
      C   15   -0.11599      0.99957     2.10729    0.00913     3.11599
      C   16   -0.09736      0.99957     2.08796    0.00984     3.09736
      C   17   -0.10031      0.99957     2.09159    0.00915     3.10031
      C   18   -0.09734      0.99953     2.08929    0.00851     3.09734
      O   19   -0.30476      0.99988     3.29391    0.01097     4.30476
      C   20   -0.10480      0.99960     2.09643    0.00876     3.10480
      H   21    0.09914      0.00000     0.40008    0.00078     0.40086
      H   22    0.10022      0.00000     0.39871    0.00107     0.39978
      H   23    0.10017      0.00000     0.39901    0.00082     0.39983
      H   24    0.08691      0.00000     0.41190    0.00119     0.41309
      H   25    0.12167      0.00000     0.37698    0.00135     0.37833
      H   26    0.09390      0.00000     0.40508    0.00103     0.40610
      H   27    0.10189      0.00000     0.39676    0.00136     0.39811
      H   28    0.11476      0.00000     0.38383    0.00142     0.38524
      H   29    0.11991      0.00000     0.37848    0.00161     0.38009
      H   30    0.11383      0.00000     0.38484    0.00133     0.38617
      H   31    0.09991      0.00000     0.39924    0.00085     0.40009
      H   32    0.09616      0.00000     0.40251    0.00132     0.40384
      H   33    0.09175      0.00000     0.40726    0.00100     0.40825
      H   34    0.08973      0.00000     0.40925    0.00103     0.41027
      H   35    0.09274      0.00000     0.40628    0.00098     0.40726
      H   36    0.11178      0.00000     0.38629    0.00193     0.38822
      H   37    0.09027      0.00000     0.40818    0.00156     0.40973
      H   38    0.07187      0.00000     0.42691    0.00122     0.42813
      H   39    0.09436      0.00000     0.40480    0.00084     0.40564
 =======================================================================
   * Total *   -0.00000     23.99182    52.76490    0.24328    77.00000

 Normal termination of Gaussian 16 at Sun Dec 13 18:46:17 2020.
