 Gaussian 16, Revision A.03,

 -----------------------------------------------------------
 # opt freq B3LYP/6-31G(d) empiricaldispersion=gd3bj scf=xqc
 -----------------------------------------------------------

 -------------------------------
 CID_147491800_JID_2383_neutraal
 -------------------------------
 Symbolic Z-matrix:
 Charge =  0 Multiplicity = 1

 SCF Done:  E(RB3LYP) =  -541.138641282     A.U. after   13 cycles
 SCF Done:  E(RB3LYP) =  -541.142960120     A.U. after   11 cycles
 SCF Done:  E(RB3LYP) =  -541.143328642     A.U. after   10 cycles
 SCF Done:  E(RB3LYP) =  -541.143400713     A.U. after   10 cycles
 SCF Done:  E(RB3LYP) =  -541.143426875     A.U. after    9 cycles
 SCF Done:  E(RB3LYP) =  -541.143451395     A.U. after   10 cycles
 SCF Done:  E(RB3LYP) =  -541.143465442     A.U. after   10 cycles
 SCF Done:  E(RB3LYP) =  -541.143474905     A.U. after   10 cycles
 SCF Done:  E(RB3LYP) =  -541.143476001     A.U. after    8 cycles
 SCF Done:  E(RB3LYP) =  -541.143476176     A.U. after    7 cycles
 Optimization completed.
    -- Stationary point found.
 Normal termination of Gaussian 16 at Wed Dec  9 17:14:30 2020.

 --------------------------------------------------------------------
 #N Geom=AllCheck Guess=TCheck SCRF=Check GenChk RB3LYP/6-31G(d) Freq
 --------------------------------------------------------------------

 Structure from the checkpoint file:  "JID_2383.chk"
 -------------------------------
 CID_147491800_JID_2383_neutraal
 -------------------------------
 Charge =  0 Multiplicity = 1

 SCF Done:  E(RB3LYP) =  -541.143476176     A.U. after    1 cycles

  Exact polarizability: 114.899   2.606 105.642  -0.843  -1.083  88.460
 Approx polarizability: 150.322   0.707 143.922  -1.747  -0.590 137.672

                      1                      2                      3
                      A                      A                      A
 Frequencies --     73.2387                85.2908               105.9968
 Red. masses --      4.0723                 2.1666                 3.0960
 Frc consts  --      0.0129                 0.0093                 0.0205
 IR Inten    --      5.0590                 1.9480                 0.9180

                      4                      5                      6
                      A                      A                      A
 Frequencies --    140.6874               187.8689               233.7919
 Red. masses --      3.8327                 2.7638                 2.7427
 Frc consts  --      0.0447                 0.0575                 0.0883
 IR Inten    --      0.0580                 2.4137                 2.3732

                      7                      8                      9
                      A                      A                      A
 Frequencies --    303.2927               330.5500               336.7694
 Red. masses --      2.8444                 2.9175                 2.9626
 Frc consts  --      0.1542                 0.1878                 0.1980
 IR Inten    --      0.4035                 3.3445                 1.4048

                     10                     11                     12
                      A                      A                      A
 Frequencies --    369.6902               433.3997               465.3903
 Red. masses --      2.5305                 3.2341                 3.3983
 Frc consts  --      0.2038                 0.3579                 0.4337
 IR Inten    --      0.2863                 4.4154                 1.7593

                     13                     14                     15
                      A                      A                      A
 Frequencies --    531.6060               580.2263               682.9604
 Red. masses --      3.3073                 2.2459                 3.1578
 Frc consts  --      0.5507                 0.4455                 0.8678
 IR Inten    --      0.4616                 3.4311                 6.1669

                     16                     17                     18
                      A                      A                      A
 Frequencies --    686.0224               794.8728               832.7299
 Red. masses --      3.8531                 2.2477                 1.5208
 Frc consts  --      1.0684                 0.8367                 0.6213
 IR Inten    --      5.0304                 4.9917                 1.7637

                     19                     20                     21
                      A                      A                      A
 Frequencies --    849.8948               865.6345               877.0185
 Red. masses --      3.1579                 3.3538                 1.8516
 Frc consts  --      1.3440                 1.4807                 0.8391
 IR Inten    --     10.2010                11.8981                 4.4594

                     22                     23                     24
                      A                      A                      A
 Frequencies --    884.5286               911.0554               944.4162
 Red. masses --      1.7529                 1.7307                 2.9065
 Frc consts  --      0.8081                 0.8464                 1.5274
 IR Inten    --     15.9606                 3.7316                 5.6070

                     25                     26                     27
                      A                      A                      A
 Frequencies --    947.1398               973.3787              1012.3038
 Red. masses --      2.7686                 2.4013                 3.2761
 Frc consts  --      1.4633                 1.3405                 1.9780
 IR Inten    --     12.4816                16.8465                26.9220

                     28                     29                     30
                      A                      A                      A
 Frequencies --   1028.2809              1047.0293              1082.0108
 Red. masses --      1.4456                 1.6141                 1.8610
 Frc consts  --      0.9005                 1.0425                 1.2837
 IR Inten    --      2.0451                 8.6046                 4.9751

                     31                     32                     33
                      A                      A                      A
 Frequencies --   1087.2379              1100.3345              1104.3278
 Red. masses --      1.7366                 2.1675                 1.4479
 Frc consts  --      1.2095                 1.5462                 1.0404
 IR Inten    --      2.7036                44.4535                23.4315

                     34                     35                     36
                      A                      A                      A
 Frequencies --   1120.3950              1149.8627              1155.7840
 Red. masses --      2.5221                 2.3528                 1.4671
 Frc consts  --      1.8654                 1.8329                 1.1547
 IR Inten    --     14.3309                22.4306                 5.0900

                     37                     38                     39
                      A                      A                      A
 Frequencies --   1178.1498              1186.6950              1210.4154
 Red. masses --      1.5022                 1.6908                 1.8915
 Frc consts  --      1.2285                 1.4028                 1.6328
 IR Inten    --      2.5937                 6.1733                 5.8071

                     40                     41                     42
                      A                      A                      A
 Frequencies --   1222.0135              1238.0690              1267.4212
 Red. masses --      1.3001                 1.3681                 1.4247
 Frc consts  --      1.1439                 1.2356                 1.3484
 IR Inten    --      2.6510                 1.8903                 1.1291

                     43                     44                     45
                      A                      A                      A
 Frequencies --   1279.8119              1302.4960              1303.8183
 Red. masses --      1.2797                 1.4072                 1.4186
 Frc consts  --      1.2349                 1.4066                 1.4208
 IR Inten    --      0.3453                 3.2969                 5.9023

                     46                     47                     48
                      A                      A                      A
 Frequencies --   1324.6623              1325.6041              1354.0658
 Red. masses --      1.4116                 1.3738                 1.4201
 Frc consts  --      1.4594                 1.4224                 1.5341
 IR Inten    --      2.7492                 0.4396                 9.0614

                     49                     50                     51
                      A                      A                      A
 Frequencies --   1363.9269              1383.4376              1390.4483
 Red. masses --      1.2963                 1.3641                 1.3076
 Frc consts  --      1.4208                 1.5382                 1.4895
 IR Inten    --      0.6642                 0.9425                 7.0157

                     52                     53                     54
                      A                      A                      A
 Frequencies --   1394.5200              1406.8885              1428.9940
 Red. masses --      1.3721                 1.3999                 1.4867
 Frc consts  --      1.5722                 1.6326                 1.7887
 IR Inten    --      6.5794                 7.4095                 1.5922

                     55                     56                     57
                      A                      A                      A
 Frequencies --   1437.6796              1482.1921              1515.1521
 Red. masses --      1.5769                 1.5926                 1.0925
 Frc consts  --      1.9203                 2.0614                 1.4776
 IR Inten    --      8.0617                 3.4872                 3.2197

                     58                     59                     60
                      A                      A                      A
 Frequencies --   1522.3577              1531.1003              1533.1252
 Red. masses --      1.0861                 1.0939                 1.1009
 Frc consts  --      1.4831                 1.5109                 1.5246
 IR Inten    --      4.7967                 4.2328                 3.3323

                     61                     62                     63
                      A                      A                      A
 Frequencies --   1556.1281              1557.5543              2942.4324
 Red. masses --      1.3593                 1.1003                 1.0805
 Frc consts  --      1.9394                 1.5727                 5.5115
 IR Inten    --      3.4287                 0.5257                49.9261

                     64                     65                     66
                      A                      A                      A
 Frequencies --   3012.1000              3032.9056              3036.9686
 Red. masses --      1.0832                 1.0711                 1.0665
 Frc consts  --      5.7904                 5.8052                 5.7953
 IR Inten    --     24.7927                14.0349                17.0328

                     67                     68                     69
                      A                      A                      A
 Frequencies --   3038.0108              3046.2970              3048.2264
 Red. masses --      1.0629                 1.0707                 1.0682
 Frc consts  --      5.7797                 5.8541                 5.8476
 IR Inten    --     84.2883                41.6153                31.3129

                     70                     71                     72
                      A                      A                      A
 Frequencies --   3078.3373              3079.6794              3086.1498
 Red. masses --      1.0988                 1.1048                 1.0978
 Frc consts  --      6.1345                 6.1738                 6.1605
 IR Inten    --     46.8208                29.8300                59.5456

                     73                     74                     75
                      A                      A                      A
 Frequencies --   3087.0479              3096.1394              3102.4419
 Red. masses --      1.0606                 1.1039                 1.0501
 Frc consts  --      5.9548                 6.2347                 5.9549
 IR Inten    --     20.6407                42.3153                31.3970

                     76                     77                     78
                      A                      A                      A
 Frequencies --   3130.9974              3132.7018              3185.8917
 Red. masses --      1.0984                 1.0965                 1.1208
 Frc consts  --      6.3443                 6.3400                 6.7026
 IR Inten    --      7.4200                49.5731                34.1655

 - Thermochemistry -
 -------------------
 Temperature   298.150 Kelvin.  Pressure   1.00000 Atm.
 Atom     1 has atomic number  6 and mass  12.00000

 Molecular mass:   168.11503 amu.
 Principal axes and moments of inertia in atomic units:
                           1         2         3
     Eigenvalues --  1368.885742182.764433149.99269
           X            0.99939   0.03484  -0.00142
           Y           -0.03484   0.99937  -0.00651
           Z            0.00120   0.00656   0.99998
 This molecule is an asymmetric top.
 Rotational symmetry number  1.
 Warning -- assumption of classical behavior for rotation
           may cause significant error
 Rotational temperatures (Kelvin)      0.06327     0.03968     0.02750
 Rotational constants (GHZ):           1.31840     0.82681     0.57294
 Zero-point vibrational energy     658831.8 (Joules/Mol)
                                  157.46457 (Kcal/Mol)
 Warning -- explicit consideration of  14 degrees of freedom as
           vibrations may cause significant error
 Vibrational temperatures:    105.37   122.71   152.51   202.42   270.30
          (Kelvin)            336.37   436.37   475.59   484.54   531.90
                              623.57   669.59   764.86   834.82   982.63
                              987.03  1143.64  1198.11  1222.81  1245.45
                             1261.83  1272.64  1310.81  1358.80  1362.72
                             1400.47  1456.48  1479.47  1506.44  1556.77
                             1564.29  1583.14  1588.88  1612.00  1654.40
                             1662.92  1695.09  1707.39  1741.52  1758.20
                             1781.31  1823.54  1841.36  1874.00  1875.90
                             1905.89  1907.25  1948.20  1962.39  1990.46
                             2000.54  2006.40  2024.20  2056.00  2068.50
                             2132.54  2179.97  2190.33  2202.91  2205.83
                             2238.92  2240.97  4233.50  4333.74  4363.67
                             4369.52  4371.02  4382.94  4385.72  4429.04
                             4430.97  4440.28  4441.57  4454.65  4463.72
                             4504.81  4507.26  4583.79

 Zero-point correction=                           0.250936 (Hartree/Particle)
 Thermal correction to Energy=                    0.261528
 Thermal correction to Enthalpy=                  0.262472
 Thermal correction to Gibbs Free Energy=         0.214494
 Sum of electronic and zero-point Energies=           -540.892540
 Sum of electronic and thermal Energies=              -540.881948
 Sum of electronic and thermal Enthalpies=            -540.881004
 Sum of electronic and thermal Free Energies=         -540.928982

                     E (Thermal)             CV                S
                      KCal/Mol        Cal/Mol-Kelvin    Cal/Mol-Kelvin
 Total                  164.111             41.868            100.979
 Electronic               0.000              0.000              0.000
 Translational            0.889              2.981             41.266
 Rotational               0.889              2.981             30.621
 Vibrational            162.334             35.906             29.092
 Vibration     1          0.599              1.967              4.064
 Vibration     2          0.601              1.959              3.765
 Vibration     3          0.605              1.944              3.341
 Vibration     4          0.615              1.913              2.795
 Vibration     5          0.633              1.857              2.249
 Vibration     6          0.654              1.789              1.850
 Vibration     7          0.695              1.667              1.399
 Vibration     8          0.713              1.614              1.257
 Vibration     9          0.717              1.602              1.227
 Vibration    10          0.742              1.534              1.081
 Vibration    11          0.794              1.397              0.848
 Vibration    12          0.823              1.327              0.751
 Vibration    13          0.887              1.180              0.584
 Vibration    14          0.937              1.074              0.485

 Optimization completed.
    -- Stationary point found.
 Normal termination of Gaussian 16 at Wed Dec  9 17:21:49 2020.

 ----------------------------------------------------------------------
 # B3LYP/6-311++G(d,p) empiricaldispersion=gd3bj scf=xqc pop=npa geom=c
 heck
 ----------------------------------------------------------------------

 ---------------------------------------
 CID_147491800_JID_2383_Energie_neutraal
 ---------------------------------------
 Structure from the checkpoint file:  "JID_2383.chk"
 Charge =  0 Multiplicity = 1

 SCF Done:  E(RB3LYP) =  -541.294005588     A.U. after   13 cycles
 Normal termination of Gaussian 16 at Wed Dec  9 17:24:25 2020.

 ----------------------------------------------------------------------
 # B3LYP/6-311++G(d,p) empiricaldispersion=gd3bj scf=xqc pop=npa geom=c
 heck
 ----------------------------------------------------------------------

 -------------------------------------
 CID_147491800_JID_2383_Energie_kation
 -------------------------------------
 Structure from the checkpoint file:  "JID_2383.chk"
 Charge =  1 Multiplicity = 2

 SCF Done:  E(UB3LYP) =  -540.966853895     A.U. after   24 cycles
 Normal termination of Gaussian 16 at Wed Dec  9 17:30:24 2020.
 Gaussian 16:  ES64L-G16RevA.03 25-Dec-2016

 ----------------------------------------------------------------------
 # B3LYP/6-311++G(d,p) empiricaldispersion=gd3bj scf=xqc pop=npa geom=c
 heck
 ----------------------------------------------------------------------

 ------------------------------------
 CID_147491800_JID_2383_Energie_anion
 ------------------------------------
 Structure from the checkpoint file:  "JID_2383.chk"
 Charge = -1 Multiplicity = 2

                         Standard orientation:
 ---------------------------------------------------------------------
 Center     Atomic      Atomic             Coordinates (Angstroms)
 Number     Number       Type             X           Y           Z
 ---------------------------------------------------------------------
      1          6           0       -0.049370    2.404357   -0.299797
      2          6           0        0.854775    1.767705    0.774848
      3          6           0        0.923312    0.220199    0.704655
      4          6           0       -0.517530   -0.306486    0.674477
      5          6           0       -0.822476   -1.795269    0.481338
      6          6           0       -2.294073   -1.750604   -0.006646
      7          8           0       -2.579972   -0.392893   -0.396829
      8          6           0       -1.341270    0.301345   -0.460553
      9          6           0       -1.470220    1.805742   -0.313976
     10          6           0        1.767294   -0.252253   -0.460171
     11          6           0        3.208416   -0.491724   -0.306263
     12          8           0        2.288607   -1.588834   -0.371861
     13          1           0       -0.100557    3.486616   -0.134043
     14          1           0        0.404642    2.269269   -1.291168
     15          1           0        1.865986    2.187637    0.706551
     16          1           0        0.467717    2.042489    1.765126
     17          1           0        1.419522   -0.148855    1.611814
     18          1           0       -1.000833    0.022945    1.606579
     19          1           0       -0.165774   -2.228873   -0.278213
     20          1           0       -0.702390   -2.383045    1.396042
     21          1           0       -2.459998   -2.422823   -0.858713
     22          1           0       -3.003612   -2.021103    0.783342
     23          1           0       -0.852128    0.084036   -1.428559
     24          1           0       -1.991699    2.029666    0.625948
     25          1           0       -2.064338    2.234647   -1.128834
     26          1           0        1.411629    0.004809   -1.458741
     27          1           0        3.875479   -0.388695   -1.162180
     28          1           0        3.674121   -0.332990    0.667093
 ---------------------------------------------------------------------

 SCF Done:  E(UB3LYP) =  -541.277296799     A.U. after   30 cycles

 The electronic state is 2-A.
 Alpha  occ. eigenvalues --  -19.03378 -19.02251 -10.12358 -10.12052 -10.11721
 Alpha  occ. eigenvalues --  -10.11450 -10.07794 -10.07306 -10.07181 -10.06423
 Alpha  occ. eigenvalues --  -10.06385 -10.06206  -0.97395  -0.94003  -0.73891
 Alpha  occ. eigenvalues --   -0.68308  -0.64953  -0.62847  -0.57133  -0.54421
 Alpha  occ. eigenvalues --   -0.51422  -0.49392  -0.48878  -0.45309  -0.41164
 Alpha  occ. eigenvalues --   -0.38810  -0.38027  -0.36773  -0.36110  -0.34793
 Alpha  occ. eigenvalues --   -0.33450  -0.31569  -0.30980  -0.29465  -0.28406
 Alpha  occ. eigenvalues --   -0.26696  -0.25927  -0.25543  -0.24070  -0.23222
 Alpha  occ. eigenvalues --   -0.22585  -0.22027  -0.19956  -0.19770  -0.17177
 Alpha  occ. eigenvalues --   -0.15688   0.04809
 Alpha virt. eigenvalues --    0.06862   0.07379   0.07581   0.09330   0.09407
 Alpha virt. eigenvalues --    0.09882   0.10002   0.10273   0.12156   0.12225
 Alpha virt. eigenvalues --    0.12744   0.12865   0.13464   0.13897   0.14678

  Beta  occ. eigenvalues --  -19.03369 -19.02248 -10.12350 -10.12045 -10.11680
  Beta  occ. eigenvalues --  -10.11445 -10.07785 -10.07299 -10.07174 -10.06410
  Beta  occ. eigenvalues --  -10.06360 -10.06173  -0.97374  -0.93995  -0.73863
  Beta  occ. eigenvalues --   -0.68286  -0.64924  -0.62813  -0.57088  -0.54358
  Beta  occ. eigenvalues --   -0.51381  -0.49338  -0.48848  -0.45262  -0.41128
  Beta  occ. eigenvalues --   -0.38779  -0.37996  -0.36734  -0.36087  -0.34742
  Beta  occ. eigenvalues --   -0.33422  -0.31534  -0.30949  -0.29442  -0.28368
  Beta  occ. eigenvalues --   -0.26662  -0.25896  -0.25517  -0.24039  -0.23197
  Beta  occ. eigenvalues --   -0.22544  -0.21995  -0.19921  -0.19739  -0.17159
  Beta  occ. eigenvalues --   -0.15678
  Beta virt. eigenvalues --    0.07015   0.07735   0.07971   0.08531   0.09831
  Beta virt. eigenvalues --    0.09916   0.10340   0.10599   0.10738   0.12556
  Beta virt. eigenvalues --    0.12829   0.13179   0.13327   0.13895   0.14070

 Mulliken charges and spin densities:
               1          2
     1  C    0.769792  -1.101255
     2  C    0.925393  -1.538527
     3  C    0.192992   0.694428
     4  C    0.586108  -0.709551
     5  C    0.333838  -0.743691
     6  C    0.196496  -0.491460
     7  O   -0.104698   0.011384
     8  C   -0.562769   0.042125
     9  C   -0.245058   0.056273
    10  C   -2.556213   1.816633
    11  C    2.450847  -2.673151
    12  O   -0.139858   0.018737
    13  H   -0.680220   0.877883
    14  H    0.030334   0.103845
    15  H   -0.656358   0.845882
    16  H   -0.178293   0.327921
    17  H   -0.317218   0.564592
    18  H   -0.210269   0.436896
    19  H    0.269313  -0.089203
    20  H   -0.037670   0.184896
    21  H    0.066800   0.067479
    22  H   -0.016680   0.164991
    23  H   -0.023262   0.199564
    24  H    0.093646   0.059481
    25  H   -0.147059   0.323777
    26  H   -0.218974   0.434053
    27  H   -0.517025   0.665800
    28  H   -0.303936   0.450199
 Sum of Mulliken charges =  -1.00000   1.00000

 Dipole moment (field-independent basis, Debye):
    X=             -5.0189    Y=             -5.1207    Z=             -1.2692  Tot=              7.2816
 Quadrupole moment (field-independent basis, Debye-Ang):
   XX=           -137.0568   YY=           -124.3642   ZZ=           -109.2966
   XY=             -3.8817   XZ=              0.3216   YZ=             -1.3483

 Summary of Natural Population Analysis:

                                       Natural Population
                Natural  -----------------------------------------------
    Atom  No    Charge         Core      Valence    Rydberg      Total
 -----------------------------------------------------------------------
      C    1   -0.19016      0.99963     2.18133    0.00921     3.19016
      C    2   -0.18588      0.99961     2.17611    0.01016     3.18588
      C    3   -0.12378      0.99956     2.10915    0.01507     3.12378
      C    4   -0.11446      0.99955     2.10275    0.01216     3.11446
      C    5   -0.20527      0.99962     2.19682    0.00884     3.20527
      C    6   -0.00878      0.99960     1.99908    0.01010     3.00878
      O    7   -0.30538      0.99988     3.29734    0.00816     4.30538
      C    8    0.07152      0.99949     1.91578    0.01322     2.92848
      C    9   -0.19470      0.99960     2.18488    0.01022     3.19470
      C   10    0.04397      0.99953     1.94114    0.01537     2.95603
      C   11   -0.02640      0.99956     2.01409    0.01275     3.02640
      O   12   -0.28683      0.99992     3.27988    0.00703     4.28683
      H   13    0.10495      0.00000     0.39322    0.00183     0.39505
      H   14    0.09359      0.00000     0.40476    0.00165     0.40641
      H   15    0.10697      0.00000     0.38974    0.00329     0.39303
      H   16    0.09955      0.00000     0.39840    0.00206     0.40045
      H   17    0.10675      0.00000     0.39103    0.00223     0.39325
      H   18    0.10091      0.00000     0.39726    0.00183     0.39909
      H   19    0.10440      0.00000     0.39404    0.00156     0.39560
      H   20    0.10341      0.00000     0.39569    0.00090     0.39659
      H   21    0.07915      0.00000     0.41947    0.00138     0.42085
      H   22    0.08365      0.00000     0.41488    0.00147     0.41635
      H   23    0.07515      0.00000     0.42286    0.00199     0.42485
      H   24    0.09768      0.00000     0.40058    0.00174     0.40232
      H   25    0.10050      0.00000     0.39835    0.00115     0.39950
      H   26    0.09094      0.00000     0.40724    0.00182     0.40906
      H   27    0.08886      0.00000     0.40931    0.00183     0.41114
      H   28    0.08970      0.00000     0.40851    0.00179     0.41030
 =======================================================================
   * Total *    0.00000     11.99554    33.84368    0.16078    46.00000

 Normal termination of Gaussian 16 at Wed Dec  9 17:38:28 2020.
