 Gaussian 16, Revision A.03,

 -----------------------------------------------------------
 # opt freq B3LYP/6-31G(d) empiricaldispersion=gd3bj scf=xqc
 -----------------------------------------------------------

 ------------------------------
 CID_79797654_JID_8066_neutraal
 ------------------------------
 Symbolic Z-matrix:
 Charge =  0 Multiplicity = 1

 SCF Done:  E(RB3LYP) =  -770.877637306     A.U. after   15 cycles
 SCF Done:  E(RB3LYP) =  -770.880041282     A.U. after   13 cycles
 SCF Done:  E(RB3LYP) =  -770.880086103     A.U. after   12 cycles
 SCF Done:  E(RB3LYP) =  -770.880961788     A.U. after   13 cycles
 SCF Done:  E(RB3LYP) =  -770.882903650     A.U. after   12 cycles
 SCF Done:  E(RB3LYP) =  -770.882717714     A.U. after   12 cycles
 SCF Done:  E(RB3LYP) =  -770.883295281     A.U. after   12 cycles
 SCF Done:  E(RB3LYP) =  -770.883413941     A.U. after   10 cycles
 SCF Done:  E(RB3LYP) =  -770.883352534     A.U. after   11 cycles
 SCF Done:  E(RB3LYP) =  -770.883415350     A.U. after   10 cycles
 SCF Done:  E(RB3LYP) =  -770.883455648     A.U. after    8 cycles
 SCF Done:  E(RB3LYP) =  -770.883455775     A.U. after    8 cycles
 SCF Done:  E(RB3LYP) =  -770.883455850     A.U. after    7 cycles
 SCF Done:  E(RB3LYP) =  -770.883455907     A.U. after    7 cycles
 Optimization completed.
    -- Stationary point found.
 Normal termination of Gaussian 16 at Fri Dec 11 18:57:11 2020.

 --------------------------------------------------------------------
 #N Geom=AllCheck Guess=TCheck SCRF=Check GenChk RB3LYP/6-31G(d) Freq
 --------------------------------------------------------------------

 Structure from the checkpoint file:  "JID_8066.chk"
 ------------------------------
 CID_79797654_JID_8066_neutraal
 ------------------------------
 Charge =  0 Multiplicity = 1

 SCF Done:  E(RB3LYP) =  -770.883455907     A.U. after    1 cycles

  Exact polarizability: 186.480  -5.423 181.149 -17.510  -3.164 141.240
 Approx polarizability: 250.365  -0.981 287.455 -36.193 -11.480 211.581

                      1                      2                      3
                      A                      A                      A
 Frequencies --     19.4305                29.7349                37.9910
 Red. masses --      1.0122                 4.4526                 4.2484
 Frc consts  --      0.0002                 0.0023                 0.0036
 IR Inten    --      0.3300                 0.2192                 0.1554

                      4                      5                      6
                      A                      A                      A
 Frequencies --     52.5736                64.3653               103.0242
 Red. masses --      4.4816                 3.7274                 2.2502
 Frc consts  --      0.0073                 0.0091                 0.0141
 IR Inten    --      0.3505                 1.2908                 0.6210

                      7                      8                      9
                      A                      A                      A
 Frequencies --    118.5769               130.1994               155.1605
 Red. masses --      2.2297                 2.2705                 1.4338
 Frc consts  --      0.0185                 0.0227                 0.0203
 IR Inten    --      0.0200                 0.6034                 0.2227

                     10                     11                     12
                      A                      A                      A
 Frequencies --    167.9811               177.3972               200.1862
 Red. masses --      2.9511                 2.7099                 2.1699
 Frc consts  --      0.0491                 0.0502                 0.0512
 IR Inten    --      0.5077                 0.7656                 0.7619

                     13                     14                     15
                      A                      A                      A
 Frequencies --    224.0123               238.0974               257.2032
 Red. masses --      1.3086                 1.2923                 1.1718
 Frc consts  --      0.0387                 0.0432                 0.0457
 IR Inten    --      0.9023                31.6643                 1.9497

                     16                     17                     18
                      A                      A                      A
 Frequencies --    266.5020               273.9394               279.2815
 Red. masses --      1.9190                 1.6571                 1.7285
 Frc consts  --      0.0803                 0.0733                 0.0794
 IR Inten    --      8.5213                 1.2210                 0.7657

                     19                     20                     21
                      A                      A                      A
 Frequencies --    303.0857               326.9358               332.2747
 Red. masses --      2.5270                 3.1323                 2.9520
 Frc consts  --      0.1368                 0.1973                 0.1920
 IR Inten    --      0.3332                 0.7608                 3.5147

                     22                     23                     24
                      A                      A                      A
 Frequencies --    356.7526               368.6432               392.9059
 Red. masses --      3.8006                 2.8973                 3.4922
 Frc consts  --      0.2850                 0.2320                 0.3176
 IR Inten    --      0.9528                 2.0122                12.6415

                     25                     26                     27
                      A                      A                      A
 Frequencies --    416.1324               444.4259               468.0701
 Red. masses --      3.3117                 2.5632                 3.9854
 Frc consts  --      0.3379                 0.2983                 0.5145
 IR Inten    --      8.2916                 1.4236                 0.8033

                     28                     29                     30
                      A                      A                      A
 Frequencies --    475.0294               483.9149               580.8571
 Red. masses --      3.1249                 3.2956                 2.6483
 Frc consts  --      0.4155                 0.4547                 0.5264
 IR Inten    --      5.5175                 1.4794                14.8649

                     31                     32                     33
                      A                      A                      A
 Frequencies --    591.8721               607.5787               631.4916
 Red. masses --      4.5933                 1.5833                 2.9831
 Frc consts  --      0.9480                 0.3444                 0.7009
 IR Inten    --      9.2911                50.5229                12.4370

                     34                     35                     36
                      A                      A                      A
 Frequencies --    641.4368               709.4782               730.0476
 Red. masses --      3.5366                 3.3135                 4.4888
 Frc consts  --      0.8573                 0.9827                 1.4096
 IR Inten    --     15.3132                 9.2465                 6.8541

                     37                     38                     39
                      A                      A                      A
 Frequencies --    746.0243               754.7178               783.8350
 Red. masses --      3.5861                 5.0580                 3.7623
 Frc consts  --      1.1759                 1.6974                 1.3619
 IR Inten    --      4.0733                18.9057                 0.6440

                     40                     41                     42
                      A                      A                      A
 Frequencies --    795.1734               829.4602               860.2989
 Red. masses --      1.2438                 1.2609                 2.1856
 Frc consts  --      0.4634                 0.5111                 0.9530
 IR Inten    --      3.7433                16.4523                16.1714

                     43                     44                     45
                      A                      A                      A
 Frequencies --    911.9535               920.9702               931.3411
 Red. masses --      1.3453                 2.7743                 2.0264
 Frc consts  --      0.6592                 1.3864                 1.0356
 IR Inten    --      6.2783                 1.5163                68.2049

                     46                     47                     48
                      A                      A                      A
 Frequencies --    954.8973               974.2985               993.6259
 Red. masses --      1.2957                 1.7158                 1.6255
 Frc consts  --      0.6961                 0.9596                 0.9455
 IR Inten    --      0.0524                 6.3280                75.6850

                     49                     50                     51
                      A                      A                      A
 Frequencies --   1016.0223              1024.1211              1041.8822
 Red. masses --      1.5666                 1.5048                 1.4059
 Frc consts  --      0.9528                 0.9299                 0.8992
 IR Inten    --      9.6226                18.6113                 3.7108

                     52                     53                     54
                      A                      A                      A
 Frequencies --   1058.6137              1062.8392              1071.1344
 Red. masses --      1.8865                 2.1594                 1.4960
 Frc consts  --      1.2456                 1.4372                 1.0113
 IR Inten    --     21.1515                 3.3358                 1.6275

                     55                     56                     57
                      A                      A                      A
 Frequencies --   1076.0323              1089.0697              1106.9281
 Red. masses --      1.5366                 1.5204                 2.2570
 Frc consts  --      1.0482                 1.0625                 1.6294
 IR Inten    --     10.7452                11.9659                 8.1987

                     58                     59                     60
                      A                      A                      A
 Frequencies --   1121.4879              1123.5245              1177.6938
 Red. masses --      1.9498                 2.1234                 2.1617
 Frc consts  --      1.4449                 1.5792                 1.7665
 IR Inten    --      3.8610                 6.0763                88.4979

                     61                     62                     63
                      A                      A                      A
 Frequencies --   1193.3864              1219.1196              1240.6235
 Red. masses --      1.4067                 3.4577                 1.7957
 Frc consts  --      1.1803                 3.0278                 1.6284
 IR Inten    --      1.5891                30.5159                 5.2650

                     64                     65                     66
                      A                      A                      A
 Frequencies --   1244.7919              1279.4642              1318.1687
 Red. masses --      2.3078                 3.4652                 1.4176
 Frc consts  --      2.1069                 3.3423                 1.4513
 IR Inten    --      5.6017                 9.2879                25.0157

                     67                     68                     69
                      A                      A                      A
 Frequencies --   1322.8217              1336.8190              1344.4598
 Red. masses --      1.7003                 1.4443                 2.6973
 Frc consts  --      1.7530                 1.5207                 2.8726
 IR Inten    --      8.1612                 9.3822                 1.9834

                     70                     71                     72
                      A                      A                      A
 Frequencies --   1368.0304              1384.2617              1390.8712
 Red. masses --      2.4330                 1.5439                 1.8472
 Frc consts  --      2.6828                 1.7430                 2.1054
 IR Inten    --    118.7374                 4.8983                29.2325

                     73                     74                     75
                      A                      A                      A
 Frequencies --   1397.6945              1431.1535              1433.0898
 Red. masses --      1.4944                 1.2743                 1.2434
 Frc consts  --      1.7201                 1.5378                 1.5045
 IR Inten    --     18.2271                 4.7251                 6.5585

                     76                     77                     78
                      A                      A                      A
 Frequencies --   1442.0308              1442.7978              1450.9733
 Red. masses --      1.2579                 1.2490                 1.2600
 Frc consts  --      1.5411                 1.5319                 1.5629
 IR Inten    --      7.1972                 0.2787                 2.2683

                     79                     80                     81
                      A                      A                      A
 Frequencies --   1462.4300              1492.9010              1512.1057
 Red. masses --      2.4629                 1.4523                 1.0746
 Frc consts  --      3.1034                 1.9071                 1.4476
 IR Inten    --      2.8930                29.2356                16.7833

                     82                     83                     84
                      A                      A                      A
 Frequencies --   1515.4939              1517.2153              1518.0516
 Red. masses --      1.0495                 1.0685                 1.0498
 Frc consts  --      1.4201                 1.4492                 1.4254
 IR Inten    --      2.8961                 6.1397                 4.9823

                     85                     86                     87
                      A                      A                      A
 Frequencies --   1519.1955              1521.8012              1527.5791
 Red. masses --      1.0756                 1.0480                 1.0589
 Frc consts  --      1.4626                 1.4300                 1.4558
 IR Inten    --      1.4148                 6.5774                10.2260

                     88                     89                     90
                      A                      A                      A
 Frequencies --   1530.7904              1531.6831              1539.4868
 Red. masses --      1.1304                 1.1217                 1.0509
 Frc consts  --      1.5607                 1.5505                 1.4674
 IR Inten    --     16.2168                 2.2451                10.6952

                     91                     92                     93
                      A                      A                      A
 Frequencies --   1547.4651              1551.5920              1633.8523
 Red. masses --      1.0716                 2.4507                 5.3775
 Frc consts  --      1.5119                 3.4761                 8.4578
 IR Inten    --      2.7801                15.0470                 1.8625

                     94                     95                     96
                      A                      A                      A
 Frequencies --   1678.3907              1719.2781              1751.2647
 Red. masses --      6.0019                 1.0925                 7.4161
 Frc consts  --      9.9614                 1.9027                13.4007
 IR Inten    --      6.0280                13.7245               329.0144

                     97                     98                     99
                      A                      A                      A
 Frequencies --   3038.4825              3042.7207              3045.4525
 Red. masses --      1.0413                 1.0403                 1.0625
 Frc consts  --      5.6643                 5.6748                 5.8060
 IR Inten    --     30.3058                28.2893                24.3369

                    100                    101                    102
                      A                      A                      A
 Frequencies --   3054.6452              3054.7589              3072.2494
 Red. masses --      1.0380                 1.0380                 1.0409
 Frc consts  --      5.7064                 5.7070                 5.7885
 IR Inten    --     32.0027                16.7426                10.6138

                    103                    104                    105
                      A                      A                      A
 Frequencies --   3081.9566              3088.5015              3099.8720
 Red. masses --      1.0981                 1.0970                 1.0958
 Frc consts  --      6.1452                 6.1651                 6.2039
 IR Inten    --     34.7628                23.6386                21.4617

                    106                    107                    108
                      A                      A                      A
 Frequencies --   3108.9196              3113.1096              3126.5264
 Red. masses --      1.0864                 1.1021                 1.1028
 Frc consts  --      6.1867                 6.2929                 6.3514
 IR Inten    --      2.8454                54.0940                15.5193

                    109                    110                    111
                      A                      A                      A
 Frequencies --   3127.2743              3129.8714              3136.0463
 Red. masses --      1.0990                 1.0983                 1.1010
 Frc consts  --      6.3324                 6.3390                 6.3795
 IR Inten    --     26.8153                28.6419                19.3263

                    112                    113                    114
                      A                      A                      A
 Frequencies --   3149.1821              3149.3796              3173.9991
 Red. masses --      1.1009                 1.1012                 1.0868
 Frc consts  --      6.4329                 6.4352                 6.4509
 IR Inten    --      7.5582                30.2245                12.9628

                    115                    116                    117
                      A                      A                      A
 Frequencies --   3179.3480              3188.6172              3192.4060
 Red. masses --      1.0964                 1.0892                 1.0941
 Frc consts  --      6.5297                 6.5247                 6.5694
 IR Inten    --     20.1348                18.3204                21.0060

                    118                    119                    120
                      A                      A                      A
 Frequencies --   3453.0348              3527.4290              3567.4837
 Red. masses --      1.0507                 1.0894                 1.0751
 Frc consts  --      7.3816                 7.9864                 8.0619
 IR Inten    --      2.5583                 3.7258                12.5929

 - Thermochemistry -
 -------------------
 Temperature   298.150 Kelvin.  Pressure   1.00000 Atm.
 Atom     1 has atomic number  6 and mass  12.00000

 Molecular mass:   248.18886 amu.
 Principal axes and moments of inertia in atomic units:
                           1         2         3
     Eigenvalues --  3085.972206482.985577172.58868
           X            0.99956  -0.02879   0.00739
           Y            0.02854   0.99907   0.03235
           Z           -0.00831  -0.03212   0.99945
 This molecule is an asymmetric top.
 Rotational symmetry number  1.
 Warning -- assumption of classical behavior for rotation
           may cause significant error
 Rotational temperatures (Kelvin)      0.02807     0.01336     0.01208
 Rotational constants (GHZ):           0.58482     0.27838     0.25162
 Zero-point vibrational energy     976720.6 (Joules/Mol)
                                  233.44183 (Kcal/Mol)
 Warning -- explicit consideration of  32 degrees of freedom as
           vibrations may cause significant error
 Vibrational temperatures:     27.96    42.78    54.66    75.64    92.61
          (Kelvin)            148.23   170.61   187.33   223.24   241.69
                              255.23   288.02   322.30   342.57   370.06
                              383.44   394.14   401.82   436.07   470.39
                              478.07   513.29   530.40   565.30   598.72
                              639.43   673.45   683.46   696.25   835.72
                              851.57   874.17   908.58   922.88  1020.78
                             1050.38  1073.36  1085.87  1127.76  1144.08
                             1193.41  1237.78  1312.10  1325.07  1339.99
                             1373.88  1401.80  1429.61  1461.83  1473.48
                             1499.04  1523.11  1529.19  1541.12  1548.17
                             1566.93  1592.62  1613.57  1616.50  1694.44
                             1717.02  1754.04  1784.98  1790.98  1840.86
                             1896.55  1903.25  1923.38  1934.38  1968.29
                             1991.64  2001.15  2010.97  2059.11  2061.90
                             2074.76  2075.86  2087.63  2104.11  2147.95
                             2175.58  2180.46  2182.93  2184.14  2185.78
                             2189.53  2197.85  2202.47  2203.75  2214.98
                             2226.46  2232.39  2350.75  2414.83  2473.66
                             2519.68  4371.70  4377.80  4381.73  4394.95
                             4395.12  4420.28  4434.25  4443.66  4460.02
                             4473.04  4479.07  4498.37  4499.45  4503.19
                             4512.07  4530.97  4531.25  4566.68  4574.37
                             4587.71  4593.16  4968.15  5075.18  5132.81

 Zero-point correction=                           0.372013 (Hartree/Particle)
 Thermal correction to Energy=                    0.392301
 Thermal correction to Enthalpy=                  0.393245
 Thermal correction to Gibbs Free Energy=         0.322442
 Sum of electronic and zero-point Energies=           -770.511443
 Sum of electronic and thermal Energies=              -770.491155
 Sum of electronic and thermal Enthalpies=            -770.490211
 Sum of electronic and thermal Free Energies=         -770.561014

                     E (Thermal)             CV                S
                      KCal/Mol        Cal/Mol-Kelvin    Cal/Mol-Kelvin
 Total                  246.172             76.178            149.016
 Electronic               0.000              0.000              0.000
 Translational            0.889              2.981             42.428
 Rotational               0.889              2.981             33.328
 Vibrational            244.395             70.217             73.261
 Vibration     1          0.593              1.986              6.692
 Vibration     2          0.594              1.984              5.847
 Vibration     3          0.594              1.982              5.361
 Vibration     4          0.596              1.977              4.718
 Vibration     5          0.597              1.971              4.319
 Vibration     6          0.605              1.947              3.396
 Vibration     7          0.609              1.934              3.123
 Vibration     8          0.612              1.923              2.943
 Vibration     9          0.620              1.897              2.608
 Vibration    10          0.625              1.882              2.458
 Vibration    11          0.628              1.870              2.356
 Vibration    12          0.638              1.840              2.131
 Vibration    13          0.649              1.804              1.926
 Vibration    14          0.656              1.782              1.817
 Vibration    15          0.667              1.751              1.681
 Vibration    16          0.672              1.735              1.619
 Vibration    17          0.676              1.721              1.571
 Vibration    18          0.680              1.712              1.538
 Vibration    19          0.695              1.668              1.400
 Vibration    20          0.711              1.622              1.275
 Vibration    21          0.714              1.611              1.249
 Vibration    22          0.732              1.561              1.136
 Vibration    23          0.741              1.537              1.085
 Vibration    24          0.760              1.485              0.989
 Vibration    25          0.779              1.435              0.905
 Vibration    26          0.804              1.373              0.813
 Vibration    27          0.825              1.321              0.743
 Vibration    28          0.832              1.305              0.724
 Vibration    29          0.840              1.286              0.700
 Vibration    30          0.938              1.073              0.484
 Vibration    31          0.949              1.049              0.464
 Vibration    32          0.966              1.016              0.437

                           ! Non-Optimized Parameters !
 Normal termination of Gaussian 16 at Fri Dec 11 19:21:36 2020.

 ----------------------------------------------------------------------
 # B3LYP/6-311++G(d,p) empiricaldispersion=gd3bj scf=xqc pop=npa geom=c
 heck
 ----------------------------------------------------------------------

 --------------------------------------
 CID_79797654_JID_8066_Energie_neutraal
 --------------------------------------
 Structure from the checkpoint file:  "JID_8066.chk"
 Charge =  0 Multiplicity = 1

 SCF Done:  E(RB3LYP) =  -771.103738602     A.U. after   16 cycles
 Normal termination of Gaussian 16 at Fri Dec 11 19:33:39 2020.

 ----------------------------------------------------------------------
 # B3LYP/6-311++G(d,p) empiricaldispersion=gd3bj scf=xqc pop=npa geom=c
 heck
 ----------------------------------------------------------------------

 ------------------------------------
 CID_79797654_JID_8066_Energie_kation
 ------------------------------------
 Structure from the checkpoint file:  "JID_8066.chk"
 Charge =  1 Multiplicity = 2

 SCF Done:  E(UB3LYP) =  -770.801584405     A.U. after   33 cycles
 SCF Done:  E(UB3LYP) =  -770.801584406     a.u. after    2 cycles
 Normal termination of Gaussian 16 at Fri Dec 11 20:38:58 2020.
 Gaussian 16:  ES64L-G16RevA.03 25-Dec-2016

 ----------------------------------------------------------------------
 # B3LYP/6-311++G(d,p) empiricaldispersion=gd3bj scf=xqc pop=npa geom=c
 heck
 ----------------------------------------------------------------------

 -----------------------------------
 CID_79797654_JID_8066_Energie_anion
 -----------------------------------
 Structure from the checkpoint file:  "JID_8066.chk"
 Charge = -1 Multiplicity = 2

                         Standard orientation:
 ---------------------------------------------------------------------
 Center     Atomic      Atomic             Coordinates (Angstroms)
 Number     Number       Type             X           Y           Z
 ---------------------------------------------------------------------
      1          6           0       -3.814213    1.549847   -1.129953
      2          6           0       -3.172176    0.716573   -0.020203
      3          6           0       -2.304167   -0.460781   -0.539362
      4          6           0       -1.237105   -0.009150   -1.549480
      5          6           0       -1.700200   -1.177478    0.705313
      6          8           0       -2.136137   -2.274837    1.048038
      7          7           0       -0.750455   -0.574971    1.490867
      8          6           0        0.067436    0.620632    1.314170
      9          6           0        0.469787    1.113941    2.713463
     10          6           0        1.302398    0.406180    0.442620
     11          6           0        1.890079    1.491298   -0.238068
     12          6           0        3.040458    1.250111   -0.995184
     13          6           0        3.604876   -0.020543   -1.084195
     14          6           0        3.024504   -1.102356   -0.417757
     15          6           0        1.873744   -0.862660    0.340675
     16          6           0        3.595728   -2.494289   -0.535580
     17          6           0        1.303669    2.883377   -0.191489
     18          7           0       -3.197355   -1.389514   -1.242759
     19          1           0       -3.063592    2.105773   -1.702939
     20          1           0       -4.513526    2.279480   -0.706887
     21          1           0       -4.359041    0.900169   -1.819538
     22          1           0       -2.574047    1.362183    0.633709
     23          1           0       -3.956171    0.284300    0.615345
     24          1           0       -0.704507    0.889788   -1.239396
     25          1           0       -0.490521   -0.793658   -1.712068
     26          1           0       -1.729473    0.200217   -2.503003
     27          1           0       -0.504094   -1.167448    2.276074
     28          1           0       -0.557124    1.389934    0.856365
     29          1           0        1.060411    0.346113    3.227195
     30          1           0        1.087985    2.012682    2.647945
     31          1           0       -0.418059    1.336699    3.313954
     32          1           0        3.501450    2.077811   -1.528878
     33          1           0        4.500494   -0.172148   -1.681689
     34          1           0        1.397919   -1.695318    0.851395
     35          1           0        3.442681   -3.069395    0.383653
     36          1           0        3.115673   -3.052260   -1.350303
     37          1           0        4.669790   -2.469036   -0.746422
     38          1           0        0.273069    2.907766   -0.569921
     39          1           0        1.277185    3.294902    0.824350
     40          1           0        1.892381    3.568938   -0.807554
     41          1           0       -2.623380   -2.069490   -1.742380
     42          1           0       -3.670639   -1.946120   -0.529876
 ---------------------------------------------------------------------

 SCF Done:  E(UB3LYP) =  -771.093349157     A.U. after   33 cycles
 SCF Done:  E(UB3LYP) =  -771.093349157     a.u. after    1 cycles

 The electronic state is 2-A.
 Alpha  occ. eigenvalues --  -19.00111 -14.24697 -14.20031 -10.18234 -10.13304
 Alpha  occ. eigenvalues --  -10.12852 -10.09062 -10.08924 -10.08802 -10.08132
 Alpha  occ. eigenvalues --  -10.08081 -10.07890 -10.07767 -10.07748 -10.07704
 Alpha  occ. eigenvalues --  -10.07347 -10.07326 -10.06589  -0.95334  -0.83889
 Alpha  occ. eigenvalues --   -0.80665  -0.77112  -0.70589  -0.68825  -0.67981
 Alpha  occ. eigenvalues --   -0.64282  -0.63305  -0.63125  -0.57367  -0.56987
 Alpha  occ. eigenvalues --   -0.55365  -0.52034  -0.50323  -0.48112  -0.46819
 Alpha  occ. eigenvalues --   -0.42102  -0.40597  -0.39891  -0.39040  -0.38022
 Alpha  occ. eigenvalues --   -0.37015  -0.36254  -0.34546  -0.34281  -0.34174
 Alpha  occ. eigenvalues --   -0.33127  -0.32717  -0.32129  -0.31511  -0.30878
 Alpha  occ. eigenvalues --   -0.30591  -0.30144  -0.29753  -0.29280  -0.28562
 Alpha  occ. eigenvalues --   -0.27977  -0.27638  -0.26909  -0.25459  -0.25042
 Alpha  occ. eigenvalues --   -0.24778  -0.24303  -0.23915  -0.17354  -0.17117
 Alpha  occ. eigenvalues --   -0.16267  -0.15768  -0.14557   0.03979
 Alpha virt. eigenvalues --    0.05889   0.06524   0.06683   0.07317   0.07781
 Alpha virt. eigenvalues --    0.08145   0.08233   0.08757   0.09005   0.09778
 Alpha virt. eigenvalues --    0.09893   0.10144   0.10595   0.11053   0.11239

  Beta  occ. eigenvalues --  -19.00104 -14.24692 -14.20024 -10.18229 -10.13299
  Beta  occ. eigenvalues --  -10.12851 -10.09061 -10.08914 -10.08786 -10.08113
  Beta  occ. eigenvalues --  -10.08068 -10.07880 -10.07735 -10.07717 -10.07673
  Beta  occ. eigenvalues --  -10.07314 -10.07304 -10.06572  -0.95322  -0.83874
  Beta  occ. eigenvalues --   -0.80654  -0.77079  -0.70552  -0.68798  -0.67945
  Beta  occ. eigenvalues --   -0.64238  -0.63276  -0.63078  -0.57337  -0.56920
  Beta  occ. eigenvalues --   -0.55297  -0.51998  -0.50287  -0.48065  -0.46794
  Beta  occ. eigenvalues --   -0.42076  -0.40553  -0.39874  -0.39016  -0.37981
  Beta  occ. eigenvalues --   -0.36991  -0.36225  -0.34513  -0.34250  -0.34132
  Beta  occ. eigenvalues --   -0.33097  -0.32688  -0.32097  -0.31477  -0.30835
  Beta  occ. eigenvalues --   -0.30549  -0.30118  -0.29712  -0.29251  -0.28521
  Beta  occ. eigenvalues --   -0.27941  -0.27614  -0.26883  -0.25412  -0.24994
  Beta  occ. eigenvalues --   -0.24750  -0.24278  -0.23888  -0.17333  -0.17100
  Beta  occ. eigenvalues --   -0.16250  -0.15694  -0.14468
  Beta virt. eigenvalues --    0.05934   0.06515   0.06964   0.07236   0.07474
  Beta virt. eigenvalues --    0.08059   0.08324   0.08561   0.09030   0.09321
  Beta virt. eigenvalues --    0.09951   0.10045   0.10459   0.10911   0.11151

 Mulliken charges and spin densities:
               1          2
     1  C    0.148747  -0.777380
     2  C   -0.309561   0.356684
     3  C   -0.013333  -0.056906
     4  C   -0.447476  -0.144677
     5  C   -0.002640  -0.202633
     6  O   -0.316985   0.006687
     7  N   -0.198004   0.117668
     8  C   -0.795954   0.754810
     9  C    1.080106  -1.741805
    10  C   -0.285202   0.905746
    11  C   -1.255634   1.553244
    12  C    0.520887  -0.753154
    13  C    0.711627  -1.055726
    14  C   -0.109795   0.305545
    15  C   -1.183307   0.590851
    16  C    0.554283  -1.216678
    17  C    1.625729  -2.232245
    18  N   -0.267935   0.026166
    19  H   -0.011274   0.147239
    20  H   -0.145264   0.296284
    21  H    0.154265   0.031475
    22  H   -0.451383   0.614325
    23  H    0.065359   0.109563
    24  H    0.281694  -0.208222
    25  H    0.187100   0.010113
    26  H    0.118342   0.074612
    27  H    0.184365   0.122281
    28  H    0.954649  -0.831976
    29  H   -0.143057   0.295544
    30  H   -0.138866   0.292072
    31  H   -0.316888   0.481034
    32  H   -0.399349   0.550469
    33  H   -0.270236   0.425984
    34  H    0.217900  -0.009556
    35  H   -0.044868   0.188745
    36  H    0.059465   0.111365
    37  H   -0.151292   0.292441
    38  H   -0.330533   0.479179
    39  H   -0.266506   0.436332
    40  H   -0.377538   0.537036
    41  H    0.163190   0.065383
    42  H    0.205172   0.052078
 Sum of Mulliken charges =  -1.00000   1.00000

 Dipole moment (field-independent basis, Debye):
    X=             -1.3199    Y=             -4.0030    Z=             -1.5203  Tot=              4.4808
 Quadrupole moment (field-independent basis, Debye-Ang):
   XX=           -187.7613   YY=           -172.6539   ZZ=           -154.9735
   XY=             -3.4165   XZ=              3.4764   YZ=             -0.9191

 Summary of Natural Population Analysis:

                                       Natural Population
                Natural  -----------------------------------------------
    Atom  No    Charge         Core      Valence    Rydberg      Total
 -----------------------------------------------------------------------
      C    1   -0.29020      0.99966     2.28467    0.00587     3.29020
      C    2   -0.18823      0.99959     2.17879    0.00985     3.18823
      C    3    0.02183      0.99956     1.96675    0.01187     2.97817
      C    4   -0.29381      0.99962     2.28675    0.00744     3.29381
      C    5    0.35014      0.99960     1.62640    0.02385     2.64986
      O    6   -0.33423      0.99988     3.32855    0.00580     4.33423
      N    7   -0.31895      0.99966     2.80814    0.01115     3.81895
      C    8   -0.02612      0.99955     2.01319    0.01338     3.02612
      C    9   -0.27903      0.99964     2.27363    0.00576     3.27903
      C   10   -0.01134      0.99945     1.99965    0.01224     3.01134
      C   11   -0.01841      0.99946     2.00842    0.01052     3.01841
      C   12   -0.09214      0.99951     2.08238    0.01025     3.09214
      C   13   -0.09765      0.99951     2.08853    0.00961     3.09765
      C   14   -0.01731      0.99951     2.00804    0.00975     3.01731
      C   15   -0.10096      0.99946     2.09250    0.00900     3.10096
      C   16   -0.29032      0.99964     2.28593    0.00475     3.29032
      C   17   -0.29507      0.99963     2.28947    0.00597     3.29507
      N   18   -0.42137      0.99976     2.91239    0.00921     3.92137
      H   19    0.09716      0.00000     0.40196    0.00088     0.40284
      H   20    0.09911      0.00000     0.40014    0.00075     0.40089
      H   21    0.10580      0.00000     0.39301    0.00119     0.39420
      H   22    0.09887      0.00000     0.39945    0.00168     0.40113
      H   23    0.09798      0.00000     0.40092    0.00110     0.40202
      H   24    0.10506      0.00000     0.39334    0.00160     0.39494
      H   25    0.10578      0.00000     0.39327    0.00095     0.39422
      H   26    0.10663      0.00000     0.39239    0.00097     0.39337
      H   27    0.19243      0.00000     0.30498    0.00259     0.30757
      H   28    0.10568      0.00000     0.39054    0.00378     0.39432
      H   29    0.09822      0.00000     0.40053    0.00126     0.40178
      H   30    0.10767      0.00000     0.39113    0.00120     0.39233
      H   31    0.10439      0.00000     0.39414    0.00147     0.39561
      H   32    0.09997      0.00000     0.39898    0.00105     0.40003
      H   33    0.09875      0.00000     0.40026    0.00099     0.40125
      H   34    0.10007      0.00000     0.39826    0.00167     0.39993
      H   35    0.10213      0.00000     0.39691    0.00097     0.39787
      H   36    0.10310      0.00000     0.39587    0.00103     0.39690
      H   37    0.10272      0.00000     0.39622    0.00106     0.39728
      H   38    0.10248      0.00000     0.39597    0.00155     0.39752
      H   39    0.10699      0.00000     0.39134    0.00167     0.39301
      H   40    0.10556      0.00000     0.39312    0.00132     0.39444
      H   41    0.17303      0.00000     0.32545    0.00153     0.32697
      H   42    0.18358      0.00000     0.31461    0.00182     0.31642
 =======================================================================
   * Total *    0.00000     17.99269    49.79696    0.21035    68.00000

 Normal termination of Gaussian 16 at Fri Dec 11 21:14:20 2020.
