 Gaussian 16, Revision A.03,

 -----------------------------------------------------------
 # opt freq B3LYP/6-31G(d) empiricaldispersion=gd3bj scf=xqc
 -----------------------------------------------------------

 --------------------------------
 CID_134789137_JID_10205_neutraal
 --------------------------------
 Symbolic Z-matrix:
 Charge =  0 Multiplicity = 1

 SCF Done:  E(RB3LYP) =  -807.488105455     A.U. after   14 cycles
 SCF Done:  E(RB3LYP) =  -807.497706389     A.U. after   12 cycles
 SCF Done:  E(RB3LYP) =  -807.499028707     A.U. after   11 cycles
 SCF Done:  E(RB3LYP) =  -807.500220842     A.U. after   12 cycles
 SCF Done:  E(RB3LYP) =  -807.501596686     A.U. after   13 cycles
 SCF Done:  E(RB3LYP) =  -807.502815460     A.U. after   12 cycles
 SCF Done:  E(RB3LYP) =  -807.503892359     A.U. after   12 cycles
 SCF Done:  E(RB3LYP) =  -807.503852423     A.U. after   11 cycles
 SCF Done:  E(RB3LYP) =  -807.503953609     A.U. after   11 cycles
 SCF Done:  E(RB3LYP) =  -807.503963956     A.U. after    9 cycles
 SCF Done:  E(RB3LYP) =  -807.503965807     A.U. after    9 cycles
 SCF Done:  E(RB3LYP) =  -807.503966388     A.U. after    7 cycles
 SCF Done:  E(RB3LYP) =  -807.503966535     A.U. after    7 cycles
 SCF Done:  E(RB3LYP) =  -807.503966571     A.U. after    6 cycles
 Optimization completed.
    -- Stationary point found.
 Normal termination of Gaussian 16 at Mon Dec 14 17:39:34 2020.

 --------------------------------------------------------------------
 #N Geom=AllCheck Guess=TCheck SCRF=Check GenChk RB3LYP/6-31G(d) Freq
 --------------------------------------------------------------------

 Structure from the checkpoint file:  "JID_10205.chk"
 --------------------------------
 CID_134789137_JID_10205_neutraal
 --------------------------------
 Charge =  0 Multiplicity = 1

 SCF Done:  E(RB3LYP) =  -807.503966571     A.U. after    1 cycles

  Exact polarizability: 253.033 -30.802 181.185   9.324   2.127 143.904
 Approx polarizability: 332.677 -53.474 296.511  19.877   3.684 247.946

                      1                      2                      3
                      A                      A                      A
 Frequencies --     26.1592                34.1890                51.4537
 Red. masses --      4.5433                 4.8356                 3.8729
 Frc consts  --      0.0018                 0.0033                 0.0060
 IR Inten    --      0.0384                 0.0165                 0.4525

                      4                      5                      6
                      A                      A                      A
 Frequencies --     75.0262                81.5901               109.7444
 Red. masses --      3.8192                 4.9138                 2.9950
 Frc consts  --      0.0127                 0.0193                 0.0213
 IR Inten    --      0.0627                 0.0535                 1.2330

                      7                      8                      9
                      A                      A                      A
 Frequencies --    158.8624               169.8703               196.1947
 Red. masses --      2.5826                 3.3436                 3.3777
 Frc consts  --      0.0384                 0.0568                 0.0766
 IR Inten    --      1.7410                 1.0520                 0.7175

                     10                     11                     12
                      A                      A                      A
 Frequencies --    217.6035               242.4196               293.5884
 Red. masses --      4.3453                 3.3881                 3.3346
 Frc consts  --      0.1212                 0.1173                 0.1693
 IR Inten    --      2.3080                 2.8250                 3.4697

                     13                     14                     15
                      A                      A                      A
 Frequencies --    341.6007               363.8939               391.1700
 Red. masses --      2.9943                 2.0635                 3.3229
 Frc consts  --      0.2059                 0.1610                 0.2996
 IR Inten    --      2.4602                 1.6400                25.2893

                     16                     17                     18
                      A                      A                      A
 Frequencies --    421.1269               426.0625               437.6790
 Red. masses --      3.0010                 3.1709                 3.0532
 Frc consts  --      0.3136                 0.3391                 0.3446
 IR Inten    --      0.3909                 2.3546                 0.5670

                     19                     20                     21
                      A                      A                      A
 Frequencies --    456.8891               495.6952               525.8519
 Red. masses --      2.9807                 3.9518                 4.7293
 Frc consts  --      0.3666                 0.5721                 0.7705
 IR Inten    --      5.8963                 3.4553                 1.2577

                     22                     23                     24
                      A                      A                      A
 Frequencies --    558.7468               590.1648               604.6485
 Red. masses --      3.4497                 4.7285                 4.4478
 Frc consts  --      0.6345                 0.9703                 0.9581
 IR Inten    --      2.9148                 6.6712                21.3461

                     25                     26                     27
                      A                      A                      A
 Frequencies --    636.9130               637.9046               689.5365
 Red. masses --      2.9179                 6.2368                 3.5555
 Frc consts  --      0.6974                 1.4953                 0.9960
 IR Inten    --      4.5400                 0.0248                 9.0020

                     28                     29                     30
                      A                      A                      A
 Frequencies --    720.5719               734.2274               748.0347
 Red. masses --      1.7129                 2.8354                 4.1687
 Frc consts  --      0.5240                 0.9006                 1.3743
 IR Inten    --     30.9769                 5.1716                14.1940

                     31                     32                     33
                      A                      A                      A
 Frequencies --    764.0571               779.3366               808.8836
 Red. masses --      1.3275                 2.6180                 2.5514
 Frc consts  --      0.4566                 0.9368                 0.9835
 IR Inten    --     42.6277                10.2972                 1.5491

                     34                     35                     36
                      A                      A                      A
 Frequencies --    834.8760               863.9275               878.4897
 Red. masses --      3.3797                 1.2592                 1.6396
 Frc consts  --      1.3879                 0.5537                 0.7455
 IR Inten    --      4.8737                 0.0241                 0.6955

                     37                     38                     39
                      A                      A                      A
 Frequencies --    883.3339               891.6576               911.4994
 Red. masses --      1.5544                 1.7652                 3.7020
 Frc consts  --      0.7146                 0.8269                 1.8122
 IR Inten    --      3.5278                12.5036                 2.8389

                     40                     41                     42
                      A                      A                      A
 Frequencies --    930.5960               932.1403               948.7547
 Red. masses --      1.3305                 1.4688                 2.3170
 Frc consts  --      0.6789                 0.7519                 1.2288
 IR Inten    --      3.1903                 3.4500                 7.1059

                     43                     44                     45
                      A                      A                      A
 Frequencies --    961.9214               969.7256               977.0336
 Red. masses --      2.6968                 1.3548                 1.2344
 Frc consts  --      1.4702                 0.7506                 0.6942
 IR Inten    --      1.5261                 0.1038                 2.3230

                     46                     47                     48
                      A                      A                      A
 Frequencies --    989.2991               996.2952              1020.6478
 Red. masses --      2.0711                 1.2460                 2.9606
 Frc consts  --      1.1943                 0.7287                 1.8171
 IR Inten    --      0.6905                 0.4631                 5.5369

                     49                     50                     51
                      A                      A                      A
 Frequencies --   1022.5375              1036.6300              1060.3388
 Red. masses --      5.4106                 2.6565                 2.2551
 Frc consts  --      3.3332                 1.6819                 1.4938
 IR Inten    --      1.5593                 8.1530                 1.7979

                     52                     53                     54
                      A                      A                      A
 Frequencies --   1063.1761              1082.9785              1088.9220
 Red. masses --      2.2110                 2.2663                 1.6526
 Frc consts  --      1.4725                 1.5660                 1.1545
 IR Inten    --     12.7291                19.9792                 4.7378

                     55                     56                     57
                      A                      A                      A
 Frequencies --   1111.2487              1130.3609              1140.1333
 Red. masses --      2.6457                 1.6081                 2.7362
 Frc consts  --      1.9249                 1.2106                 2.0956
 IR Inten    --      4.5911                 0.1026                 5.4493

                     58                     59                     60
                      A                      A                      A
 Frequencies --   1157.4688              1179.1514              1193.1599
 Red. masses --      1.0586                 1.5167                 1.5513
 Frc consts  --      0.8356                 1.2425                 1.3012
 IR Inten    --      0.2702                11.7324                12.7316

                     61                     62                     63
                      A                      A                      A
 Frequencies --   1193.9495              1201.9797              1208.8400
 Red. masses --      1.0975                 1.2991                 1.5947
 Frc consts  --      0.9218                 1.1059                 1.3730
 IR Inten    --      0.0430                 1.5987                 8.0917

                     64                     65                     66
                      A                      A                      A
 Frequencies --   1214.4922              1217.9557              1229.3542
 Red. masses --      1.3068                 1.5757                 2.6716
 Frc consts  --      1.1356                 1.3772                 2.3789
 IR Inten    --      2.2294                 1.9672                 4.1612

                     67                     68                     69
                      A                      A                      A
 Frequencies --   1239.8689              1240.7631              1246.6041
 Red. masses --      2.0611                 1.5310                 1.3968
 Frc consts  --      1.8668                 1.3887                 1.2789
 IR Inten    --     50.9633                 5.6458                 4.4867

                     70                     71                     72
                      A                      A                      A
 Frequencies --   1288.5186              1311.6981              1326.9143
 Red. masses --      1.3573                 1.7684                 1.8753
 Frc consts  --      1.3277                 1.7927                 1.9454
 IR Inten    --      2.8694                43.0763                91.3709

                     73                     74                     75
                      A                      A                      A
 Frequencies --   1336.3297              1346.6029              1359.4477
 Red. masses --      2.1040                 1.5367                 1.5215
 Frc consts  --      2.2137                 1.6418                 1.6568
 IR Inten    --      2.7248                13.8481                 6.0926

                     76                     77                     78
                      A                      A                      A
 Frequencies --   1367.8569              1379.5083              1383.7503
 Red. masses --      2.1164                 2.5081                 1.4880
 Frc consts  --      2.3331                 2.8121                 1.6787
 IR Inten    --      0.5737                 3.5696                 0.4169

                     79                     80                     81
                      A                      A                      A
 Frequencies --   1384.4771              1407.0163              1463.7062
 Red. masses --      1.2704                 2.1328                 1.5826
 Frc consts  --      1.4347                 2.4877                 1.9977
 IR Inten    --     39.6205                88.1335                 4.7042

                     82                     83                     84
                      A                      A                      A
 Frequencies --   1500.5349              1503.3559              1508.0629
 Red. masses --      1.1015                 2.1798                 1.3486
 Frc consts  --      1.4612                 2.9026                 1.8071
 IR Inten    --      6.3341                 5.5676                22.1728

                     85                     86                     87
                      A                      A                      A
 Frequencies --   1517.0650              1523.8194              1535.2051
 Red. masses --      1.8230                 1.0941                 1.8326
 Frc consts  --      2.4719                 1.4968                 2.5447
 IR Inten    --     10.3622                 1.0033                81.0513

                     88                     89                     90
                      A                      A                      A
 Frequencies --   1545.5202              1548.1188              1551.6255
 Red. masses --      1.8039                 1.2675                 1.2974
 Frc consts  --      2.5386                 1.7898                 1.8404
 IR Inten    --     13.7438                10.5721                31.2697

                     91                     92                     93
                      A                      A                      A
 Frequencies --   1645.3907              1647.9304              1665.6501
 Red. masses --      5.4647                 6.2656                 5.5807
 Frc consts  --      8.7168                10.0251                 9.1224
 IR Inten    --      0.9244                 4.2829                 2.2582

                     94                     95                     96
                      A                      A                      A
 Frequencies --   1670.3261              2968.0492              3024.1988
 Red. masses --      6.2749                 1.0737                 1.0575
 Frc consts  --     10.3147                 5.5728                 5.6982
 IR Inten    --     65.5182                68.7460                58.0864

                     97                     98                     99
                      A                      A                      A
 Frequencies --   3030.8297              3032.7395              3044.7322
 Red. masses --      1.0612                 1.0695                 1.0601
 Frc consts  --      5.7433                 5.7955                 5.7905
 IR Inten    --     26.5061                39.1710                31.8115

                    100                    101                    102
                      A                      A                      A
 Frequencies --   3082.3786              3083.7891              3087.5349
 Red. masses --      1.1048                 1.1033                 1.1066
 Frc consts  --      6.1847                 6.1819                 6.2156
 IR Inten    --     47.9739                31.9613                 9.3667

                    103                    104                    105
                      A                      A                      A
 Frequencies --   3093.4912              3105.7716              3111.9724
 Red. masses --      1.0898                 1.0959                 1.0881
 Frc consts  --      6.1448                 6.2279                 6.2084
 IR Inten    --     38.6531                27.2196                48.0887

                    106                    107                    108
                      A                      A                      A
 Frequencies --   3175.0488              3175.9028              3176.5095
 Red. masses --      1.0859                 1.0861                 1.0876
 Frc consts  --      6.4496                 6.4541                 6.4658
 IR Inten    --      9.9292                 3.2604                 4.1101

                    109                    110                    111
                      A                      A                      A
 Frequencies --   3183.3101              3189.0066              3197.9405
 Red. masses --      1.0898                 1.0897                 1.0937
 Frc consts  --      6.5065                 6.5292                 6.5903
 IR Inten    --     29.6870                 7.1584                37.8340

                    112                    113                    114
                      A                      A                      A
 Frequencies --   3204.6180              3210.0999              3214.1406
 Red. masses --      1.0947                 1.0979                 1.0941
 Frc consts  --      6.6238                 6.6657                 6.6596
 IR Inten    --     28.1282                25.4515                21.0727

 - Thermochemistry -
 -------------------
 Temperature   298.150 Kelvin.  Pressure   1.00000 Atm.
 Atom     1 has atomic number  6 and mass  12.00000

 Molecular mass:   264.16265 amu.
 Principal axes and moments of inertia in atomic units:
                           1         2         3
     Eigenvalues --  1926.48131********************
           X            1.00000   0.00093   0.00151
           Y           -0.00094   0.99998   0.00657
           Z           -0.00150  -0.00657   0.99998
 This molecule is an asymmetric top.
 Rotational symmetry number  1.
 Warning -- assumption of classical behavior for rotation
           may cause significant error
 Rotational temperatures (Kelvin)      0.04496     0.00761     0.00703
 Rotational constants (GHZ):           0.93681     0.15853     0.14639
 Zero-point vibrational energy     904079.6 (Joules/Mol)
                                  216.08021 (Kcal/Mol)
 Warning -- explicit consideration of  24 degrees of freedom as
           vibrations may cause significant error
 Vibrational temperatures:     37.64    49.19    74.03   107.95   117.39
          (Kelvin)            157.90   228.57   244.41   282.28   313.08
                              348.79   422.41   491.49   523.56   562.81
                              605.91   613.01   629.72   657.36   713.19
                              756.58   803.91   849.12   869.95   916.38
                              917.80   992.09  1036.74  1056.39  1076.26
                             1099.31  1121.29  1163.80  1201.20  1243.00
                             1263.95  1270.92  1282.90  1311.44  1338.92
                             1341.14  1365.05  1383.99  1395.22  1405.73
                             1423.38  1433.45  1468.48  1471.20  1491.48
                             1525.59  1529.67  1558.16  1566.72  1598.84
                             1626.34  1640.40  1665.34  1696.54  1716.69
                             1717.83  1729.38  1739.25  1747.38  1752.37
                             1768.77  1783.89  1785.18  1793.59  1853.89
                             1887.24  1909.13  1922.68  1937.46  1955.94
                             1968.04  1984.80  1990.91  1991.95  2024.38
                             2105.95  2158.94  2162.99  2169.77  2182.72
                             2192.44  2208.82  2223.66  2227.40  2232.44
                             2367.35  2371.00  2396.50  2403.23  4270.36
                             4351.15  4360.69  4363.44  4380.69  4434.86
                             4436.88  4442.27  4450.84  4468.51  4477.43
                             4568.19  4569.42  4570.29  4580.07  4588.27
                             4601.12  4610.73  4618.62  4624.43

 Zero-point correction=                           0.344346 (Hartree/Particle)
 Thermal correction to Energy=                    0.360649
 Thermal correction to Enthalpy=                  0.361593
 Thermal correction to Gibbs Free Energy=         0.298963
 Sum of electronic and zero-point Energies=           -807.159621
 Sum of electronic and thermal Energies=              -807.143318
 Sum of electronic and thermal Enthalpies=            -807.142374
 Sum of electronic and thermal Free Energies=         -807.205004

                     E (Thermal)             CV                S
                      KCal/Mol        Cal/Mol-Kelvin    Cal/Mol-Kelvin
 Total                  226.310             65.819            131.816
 Electronic               0.000              0.000              0.000
 Translational            0.889              2.981             42.614
 Rotational               0.889              2.981             33.958
 Vibrational            224.533             59.858             55.245
 Vibration     1          0.593              1.985              6.101
 Vibration     2          0.594              1.983              5.570
 Vibration     3          0.596              1.977              4.761
 Vibration     4          0.599              1.966              4.017
 Vibration     5          0.600              1.962              3.852
 Vibration     6          0.606              1.941              3.273
 Vibration     7          0.621              1.893              2.563
 Vibration     8          0.625              1.880              2.437
 Vibration     9          0.636              1.845              2.168
 Vibration    10          0.646              1.814              1.979
 Vibration    11          0.659              1.775              1.785
 Vibration    12          0.688              1.686              1.453
 Vibration    13          0.721              1.592              1.205
 Vibration    14          0.737              1.547              1.105
 Vibration    15          0.759              1.489              0.996
 Vibration    16          0.784              1.424              0.888
 Vibration    17          0.788              1.414              0.872
 Vibration    18          0.798              1.388              0.834
 Vibration    19          0.815              1.346              0.775
 Vibration    20          0.851              1.260              0.669
 Vibration    21          0.881              1.193              0.597
 Vibration    22          0.914              1.121              0.526
 Vibration    23          0.948              1.053              0.467
 Vibration    24          0.963              1.022              0.442

 Optimization completed.
    -- Stationary point found.
 Normal termination of Gaussian 16 at Mon Dec 14 18:02:15 2020.

 ----------------------------------------------------------------------
 # B3LYP/6-311++G(d,p) empiricaldispersion=gd3bj scf=xqc pop=npa geom=c
 heck
 ----------------------------------------------------------------------

 ----------------------------------------
 CID_134789137_JID_10205_Energie_neutraal
 ----------------------------------------
 Structure from the checkpoint file:  "JID_10205.chk"
 Charge =  0 Multiplicity = 1

 SCF Done:  E(RB3LYP) =  -807.707354338     A.U. after   14 cycles
 Normal termination of Gaussian 16 at Mon Dec 14 18:11:57 2020.

 ----------------------------------------------------------------------
 # B3LYP/6-311++G(d,p) empiricaldispersion=gd3bj scf=xqc pop=npa geom=c
 heck
 ----------------------------------------------------------------------

 --------------------------------------
 CID_134789137_JID_10205_Energie_kation
 --------------------------------------
 Structure from the checkpoint file:  "JID_10205.chk"
 Charge =  1 Multiplicity = 2

 SCF Done:  E(UB3LYP) =  -807.456774515     A.U. after   24 cycles
 Normal termination of Gaussian 16 at Mon Dec 14 18:35:31 2020.
 Gaussian 16:  ES64L-G16RevA.03 25-Dec-2016

 ----------------------------------------------------------------------
 # B3LYP/6-311++G(d,p) empiricaldispersion=gd3bj scf=xqc pop=npa geom=c
 heck
 ----------------------------------------------------------------------

 -------------------------------------
 CID_134789137_JID_10205_Energie_anion
 -------------------------------------
 Structure from the checkpoint file:  "JID_10205.chk"
 Charge = -1 Multiplicity = 2

                         Standard orientation:
 ---------------------------------------------------------------------
 Center     Atomic      Atomic             Coordinates (Angstroms)
 Number     Number       Type             X           Y           Z
 ---------------------------------------------------------------------
      1          6           0        3.730255    2.141782   -0.046348
      2          6           0        2.210510    2.341914    0.112654
      3          7           0        1.633388    1.083973   -0.391211
      4          6           0        2.581151    0.069395   -0.175781
      5          6           0        2.412410   -1.317492   -0.168717
      6          6           0        3.543070   -2.117373    0.038826
      7          6           0        4.807193   -1.562740    0.237509
      8          6           0        4.961791   -0.168773    0.235989
      9          6           0        3.852985    0.636210    0.037120
     10          6           0        0.209432    0.910789   -0.254382
     11          6           0       -0.486095   -0.111805   -1.191695
     12          7           0       -0.747848   -0.984736   -0.030174
     13          6           0       -0.371483    0.072746    0.929950
     14          6           0       -2.012554   -1.704145    0.100214
     15          6           0       -3.254781   -0.834776    0.094872
     16          6           0       -3.757398   -0.295828    1.286588
     17          6           0       -4.852849    0.567865    1.276749
     18          6           0       -5.466499    0.904485    0.069267
     19          6           0       -4.983767    0.366103   -1.124463
     20          6           0       -3.888037   -0.497139   -1.108569
     21          1           0        4.302923    2.677148    0.716898
     22          1           0        4.065236    2.503629   -1.028494
     23          1           0        1.820641    3.193906   -0.453127
     24          1           0        1.954637    2.489720    1.176419
     25          1           0        1.428980   -1.761072   -0.280208
     26          1           0        3.422669   -3.197658    0.054458
     27          1           0        5.667190   -2.205443    0.400836
     28          1           0        5.940463    0.276782    0.398621
     29          1           0       -0.231130    1.907460   -0.323241
     30          1           0       -1.386219    0.310342   -1.659482
     31          1           0        0.141865   -0.570576   -1.964300
     32          1           0        0.341335   -0.259317    1.693970
     33          1           0       -1.220654    0.575068    1.413214
     34          1           0       -2.060528   -2.427882   -0.722654
     35          1           0       -1.963856   -2.279885    1.032487
     36          1           0       -3.291864   -0.567577    2.231107
     37          1           0       -5.231390    0.972442    2.211482
     38          1           0       -6.321411    1.574694    0.059547
     39          1           0       -5.464577    0.612927   -2.067107
     40          1           0       -3.525101   -0.926680   -2.039427
 ---------------------------------------------------------------------

 SCF Done:  E(UB3LYP) =  -807.694545238     A.U. after   33 cycles
 SCF Done:  E(UB3LYP) =  -807.694578804     a.u. after    3 cycles

 The electronic state is 2-A.
 Alpha  occ. eigenvalues --  -14.23950 -14.21808 -10.12297 -10.11882 -10.11653
 Alpha  occ. eigenvalues --  -10.11329 -10.10499 -10.10365 -10.09302 -10.09169
 Alpha  occ. eigenvalues --  -10.08806 -10.08747 -10.08666 -10.08641 -10.08629
 Alpha  occ. eigenvalues --  -10.08587 -10.08574 -10.08454 -10.08113 -10.07639
 Alpha  occ. eigenvalues --   -0.88014  -0.84844  -0.77035  -0.75917  -0.71118
 Alpha  occ. eigenvalues --   -0.68689  -0.65929  -0.65914  -0.64074  -0.63002
 Alpha  occ. eigenvalues --   -0.59593  -0.56953  -0.53967  -0.51939  -0.51670
 Alpha  occ. eigenvalues --   -0.50466  -0.48970  -0.46258  -0.42860  -0.42061
 Alpha  occ. eigenvalues --   -0.42007  -0.40015  -0.39222  -0.38840  -0.38133
 Alpha  occ. eigenvalues --   -0.37142  -0.35214  -0.34719  -0.34063  -0.33463
 Alpha  occ. eigenvalues --   -0.33385  -0.32004  -0.31548  -0.30638  -0.30342
 Alpha  occ. eigenvalues --   -0.29348  -0.28373  -0.27770  -0.27147  -0.26949
 Alpha  occ. eigenvalues --   -0.26323  -0.25397  -0.25078  -0.24826  -0.24489
 Alpha  occ. eigenvalues --   -0.19941  -0.16763  -0.16414  -0.16313  -0.13159
 Alpha  occ. eigenvalues --   -0.10794   0.03944
 Alpha virt. eigenvalues --    0.05463   0.06131   0.06414   0.06767   0.06869
 Alpha virt. eigenvalues --    0.07215   0.07296   0.07723   0.08285   0.08371
 Alpha virt. eigenvalues --    0.08585   0.09097   0.09351   0.09710   0.10200

  Beta  occ. eigenvalues --  -14.23951 -14.21808 -10.12289 -10.11878 -10.11630
  Beta  occ. eigenvalues --  -10.11323 -10.10489 -10.10355 -10.09285 -10.09168
  Beta  occ. eigenvalues --  -10.08802 -10.08743 -10.08664 -10.08626 -10.08615
  Beta  occ. eigenvalues --  -10.08573 -10.08560 -10.08437 -10.08111 -10.07633
  Beta  occ. eigenvalues --   -0.88006  -0.84837  -0.77009  -0.75906  -0.71099
  Beta  occ. eigenvalues --   -0.68667  -0.65911  -0.65879  -0.64052  -0.62978
  Beta  occ. eigenvalues --   -0.59570  -0.56931  -0.53929  -0.51895  -0.51640
  Beta  occ. eigenvalues --   -0.50446  -0.48945  -0.46233  -0.42814  -0.42030
  Beta  occ. eigenvalues --   -0.41980  -0.39995  -0.39205  -0.38820  -0.38110
  Beta  occ. eigenvalues --   -0.37097  -0.35195  -0.34700  -0.34050  -0.33426
  Beta  occ. eigenvalues --   -0.33358  -0.31984  -0.31527  -0.30612  -0.30323
  Beta  occ. eigenvalues --   -0.29319  -0.28350  -0.27747  -0.27128  -0.26934
  Beta  occ. eigenvalues --   -0.26284  -0.25368  -0.25057  -0.24813  -0.24471
  Beta  occ. eigenvalues --   -0.19927  -0.16741  -0.16393  -0.16286  -0.13153
  Beta  occ. eigenvalues --   -0.10782
  Beta virt. eigenvalues --    0.05692   0.06226   0.06398   0.06788   0.07082
  Beta virt. eigenvalues --    0.07166   0.07404   0.07522   0.08031   0.08559
  Beta virt. eigenvalues --    0.08610   0.08902   0.09477   0.09726   0.09778

 Mulliken charges and spin densities:
               1          2
     1  C    0.724442  -1.329943
     2  C    0.638212  -0.817329
     3  N    0.492427  -0.028688
     4  C    0.387528  -0.341187
     5  C   -0.297856   0.078354
     6  C   -0.076187  -0.169516
     7  C   -0.348669  -0.020736
     8  C   -0.588640   0.095402
     9  C    0.115144   0.396949
    10  C   -1.407379   0.949837
    11  C   -0.445960   0.136342
    12  N    0.168563  -0.052884
    13  C    0.351543  -0.880371
    14  C    1.485996  -2.086664
    15  C   -0.058239   0.899649
    16  C   -1.047601   0.856893
    17  C    0.424016  -0.707198
    18  C    1.564964  -1.932066
    19  C    0.360229  -0.626993
    20  C   -1.205952   0.974969
    21  H   -0.077532   0.245420
    22  H   -0.015340   0.180730
    23  H   -0.297636   0.455653
    24  H   -0.061116   0.212173
    25  H    0.453720  -0.222155
    26  H    0.082780   0.073332
    27  H    0.074268   0.053040
    28  H   -0.057605   0.205098
    29  H   -0.321289   0.551804
    30  H    0.054387   0.080491
    31  H   -0.108719   0.294773
    32  H   -0.002004   0.193068
    33  H   -0.005675   0.114944
    34  H    0.030476   0.148997
    35  H    0.036313   0.140651
    36  H   -0.149712   0.309357
    37  H   -0.673541   0.862040
    38  H   -0.384595   0.546600
    39  H   -0.662700   0.851720
    40  H   -0.151061   0.307442
 Sum of Mulliken charges =  -1.00000   1.00000

 Dipole moment (field-independent basis, Debye):
    X=              6.7840    Y=             -4.2999    Z=              0.0332  Tot=              8.0320
 Quadrupole moment (field-independent basis, Debye-Ang):
   XX=           -244.2172   YY=           -163.3204   ZZ=           -161.2318
   XY=              6.8495   XZ=              0.8499   YZ=             -0.2847

 Summary of Natural Population Analysis:

                                       Natural Population
                Natural  -----------------------------------------------
    Atom  No    Charge         Core      Valence    Rydberg      Total
 -----------------------------------------------------------------------
      C    1   -0.19951      0.99961     2.19147    0.00843     3.19951
      C    2   -0.07192      0.99963     2.06184    0.01045     3.07192
      N    3   -0.25457      0.99964     2.74289    0.01204     3.75457
      C    4    0.09706      0.99944     1.89238    0.01112     2.90294
      C    5   -0.13280      0.99952     2.12521    0.00807     3.13280
      C    6   -0.09633      0.99958     2.08747    0.00929     3.09633
      C    7   -0.12471      0.99957     2.11475    0.01039     3.12471
      C    8   -0.09796      0.99951     2.08971    0.00874     3.09796
      C    9   -0.03149      0.99948     2.02133    0.01068     3.03149
      C   10   -0.00761      0.99957     1.99423    0.01381     3.00761
      C   11   -0.08280      0.99963     2.07309    0.01009     3.08280
      N   12   -0.28430      0.99974     2.77289    0.01167     3.78430
      C   13   -0.08887      0.99963     2.07985    0.00939     3.08887
      C   14   -0.08770      0.99958     2.07692    0.01120     3.08770
      C   15   -0.03043      0.99949     2.02066    0.01028     3.03043
      C   16   -0.10201      0.99951     2.09176    0.01075     3.10201
      C   17   -0.09751      0.99956     2.08706    0.01089     3.09751
      C   18   -0.09964      0.99956     2.09010    0.00998     3.09964
      C   19   -0.09773      0.99956     2.08729    0.01088     3.09773
      C   20   -0.10216      0.99951     2.09195    0.01070     3.10216
      H   21    0.10565      0.00000     0.39333    0.00102     0.39435
      H   22    0.10278      0.00000     0.39595    0.00127     0.39722
      H   23    0.09893      0.00000     0.39925    0.00182     0.40107
      H   24    0.08510      0.00000     0.41332    0.00158     0.41490
      H   25    0.11646      0.00000     0.38125    0.00230     0.38354
      H   26    0.09748      0.00000     0.40169    0.00082     0.40252
      H   27    0.09730      0.00000     0.40196    0.00074     0.40270
      H   28    0.09899      0.00000     0.40016    0.00086     0.40101
      H   29    0.10228      0.00000     0.39603    0.00169     0.39772
      H   30    0.09577      0.00000     0.40276    0.00147     0.40423
      H   31    0.09407      0.00000     0.40454    0.00138     0.40593
      H   32    0.09496      0.00000     0.40378    0.00126     0.40504
      H   33    0.09565      0.00000     0.40290    0.00145     0.40435
      H   34    0.09793      0.00000     0.40097    0.00111     0.40207
      H   35    0.09819      0.00000     0.40068    0.00113     0.40181
      H   36    0.10104      0.00000     0.39774    0.00122     0.39896
      H   37    0.10313      0.00000     0.39521    0.00166     0.39687
      H   38    0.10346      0.00000     0.39478    0.00176     0.39654
      H   39    0.10301      0.00000     0.39536    0.00163     0.39699
      H   40    0.10080      0.00000     0.39799    0.00121     0.39920
 =======================================================================
   * Total *    0.00000     19.99131    50.77249    0.23621    71.00000

 Normal termination of Gaussian 16 at Mon Dec 14 20:06:48 2020.
