 Gaussian 16, Revision A.03,

 -----------------------------------------------------------
 # opt freq B3LYP/6-31G(d) empiricaldispersion=gd3bj scf=xqc
 -----------------------------------------------------------

 ------------------------------
 CID_90280856_JID_4981_neutraal
 ------------------------------
 Symbolic Z-matrix:
 Charge =  0 Multiplicity = 1

 SCF Done:  E(RB3LYP) =  -582.675360957     A.U. after   13 cycles
 SCF Done:  E(RB3LYP) =  -582.277757095     A.U. after   15 cycles
 SCF Done:  E(RB3LYP) =  -582.662933820     A.U. after   13 cycles
 SCF Done:  E(RB3LYP) =  -582.676379425     A.U. after   11 cycles
 SCF Done:  E(RB3LYP) =  -582.677392556     A.U. after   12 cycles
 SCF Done:  E(RB3LYP) =  -582.678415084     A.U. after   12 cycles
 SCF Done:  E(RB3LYP) =  -582.677823378     A.U. after   14 cycles
 SCF Done:  E(RB3LYP) =  -582.679304433     A.U. after   11 cycles
 SCF Done:  E(RB3LYP) =  -582.679664294     A.U. after   11 cycles
 SCF Done:  E(RB3LYP) =  -582.679848693     A.U. after   11 cycles
 SCF Done:  E(RB3LYP) =  -582.683703683     A.U. after    7 cycles
 SCF Done:  E(RB3LYP) =  -582.683703775     A.U. after    7 cycles
 SCF Done:  E(RB3LYP) =  -582.683703815     A.U. after    7 cycles
 SCF Done:  E(RB3LYP) =  -582.683703831     A.U. after    6 cycles
 SCF Done:  E(RB3LYP) =  -582.683703837     A.U. after    6 cycles
 Optimization completed.
    -- Stationary point found.
 Normal termination of Gaussian 16 at Thu Dec 10 11:55:11 2020.

 --------------------------------------------------------------------
 #N Geom=AllCheck Guess=TCheck SCRF=Check GenChk RB3LYP/6-31G(d) Freq
 --------------------------------------------------------------------

 Structure from the checkpoint file:  "JID_4981.chk"
 ------------------------------
 CID_90280856_JID_4981_neutraal
 ------------------------------
 Charge =  0 Multiplicity = 1

 SCF Done:  E(RB3LYP) =  -582.683703837     A.U. after    1 cycles

  Exact polarizability: 141.836  25.259 131.885   0.033  -3.459 129.024
 Approx polarizability: 183.100  43.267 197.366  -4.839  -7.520 220.783

                      1                      2                      3
                      A                      A                      A
 Frequencies --     18.2874                29.6393                39.1186
 Red. masses --      3.6443                 3.6442                 3.2850
 Frc consts  --      0.0007                 0.0019                 0.0030
 IR Inten    --      0.1556                 0.1316                 0.6131

                      4                      5                      6
                      A                      A                      A
 Frequencies --     49.1873                52.8871                67.6884
 Red. masses --      3.8172                 2.5957                 3.3016
 Frc consts  --      0.0054                 0.0043                 0.0089
 IR Inten    --      0.0876                 0.0917                 0.1939

                      7                      8                      9
                      A                      A                      A
 Frequencies --     84.6004               104.6153               134.7870
 Red. masses --      3.9911                 2.9594                 3.1326
 Frc consts  --      0.0168                 0.0191                 0.0335
 IR Inten    --      0.1389                 0.1390                 0.2667

                     10                     11                     12
                      A                      A                      A
 Frequencies --    164.9430               212.5947               259.6660
 Red. masses --      1.9076                 2.2058                 1.4045
 Frc consts  --      0.0306                 0.0587                 0.0558
 IR Inten    --      1.4871                 0.4045                 5.1502

                     13                     14                     15
                      A                      A                      A
 Frequencies --    267.7502               297.5464               307.4489
 Red. masses --      1.3325                 1.5635                 3.1819
 Frc consts  --      0.0563                 0.0816                 0.1772
 IR Inten    --      4.3126                 6.4772                 0.4361

                     16                     17                     18
                      A                      A                      A
 Frequencies --    365.9385               384.6271               393.6881
 Red. masses --      2.6114                 2.0146                 1.3535
 Frc consts  --      0.2060                 0.1756                 0.1236
 IR Inten    --     11.5530                 5.7788                71.7926

                     19                     20                     21
                      A                      A                      A
 Frequencies --    419.4614               452.1717               484.5209
 Red. masses --      2.6492                 1.6831                 3.4983
 Frc consts  --      0.2746                 0.2028                 0.4839
 IR Inten    --      6.7351                 0.2679                 5.7088

                     22                     23                     24
                      A                      A                      A
 Frequencies --    549.0282               620.7600               636.2250
 Red. masses --      3.1665                 4.0105                 6.3420
 Frc consts  --      0.5624                 0.9105                 1.5125
 IR Inten    --     13.5397                 8.5169                 0.3744

                     25                     26                     27
                      A                      A                      A
 Frequencies --    665.4366               718.8319               766.2881
 Red. masses --      1.5782                 1.9031                 1.2731
 Frc consts  --      0.4117                 0.5794                 0.4404
 IR Inten    --      4.4170                29.9802                 8.0821

                     28                     29                     30
                      A                      A                      A
 Frequencies --    774.9283               781.0018               861.0055
 Red. masses --      1.9276                 2.9846                 2.1238
 Frc consts  --      0.6820                 1.0726                 0.9276
 IR Inten    --     23.1738                 3.4168                 0.7444

                     31                     32                     33
                      A                      A                      A
 Frequencies --    867.9182               898.6574               926.7325
 Red. masses --      1.2508                 1.3348                 1.6737
 Frc consts  --      0.5551                 0.6351                 0.8469
 IR Inten    --      0.5104                 5.5021                 2.4168

                     34                     35                     36
                      A                      A                      A
 Frequencies --    933.9355               936.3193               941.9372
 Red. masses --      1.6938                 1.3593                 1.7895
 Frc consts  --      0.8704                 0.7021                 0.9355
 IR Inten    --      6.0696                33.4458                 0.7859

                     37                     38                     39
                      A                      A                      A
 Frequencies --    975.4256               996.7430              1020.6846
 Red. masses --      1.3399                 1.2405                 3.9579
 Frc consts  --      0.7511                 0.7261                 2.4294
 IR Inten    --      0.1016                 1.0632                13.0260

                     40                     41                     42
                      A                      A                      A
 Frequencies --   1025.4350              1032.3175              1047.1524
 Red. masses --      2.5756                 1.1925                 1.1497
 Frc consts  --      1.5957                 0.7487                 0.7428
 IR Inten    --     25.1482                 3.9432                 5.2072

                     43                     44                     45
                      A                      A                      A
 Frequencies --   1058.5231              1071.9982              1081.2977
 Red. masses --      2.1772                 2.3740                 1.6789
 Frc consts  --      1.4373                 1.6074                 1.1565
 IR Inten    --      5.0870                 1.8111                13.3288

                     46                     47                     48
                      A                      A                      A
 Frequencies --   1108.1571              1126.1183              1148.3558
 Red. masses --      1.6761                 1.6344                 2.2244
 Frc consts  --      1.2127                 1.2212                 1.7283
 IR Inten    --     18.2071                 1.2926                19.6537

                     49                     50                     51
                      A                      A                      A
 Frequencies --   1189.2106              1193.1270              1207.9612
 Red. masses --      2.0191                 1.1017                 1.1457
 Frc consts  --      1.6824                 0.9240                 0.9850
 IR Inten    --      3.7951                 0.1945                 0.8249

                     52                     53                     54
                      A                      A                      A
 Frequencies --   1229.9193              1284.0852              1297.4546
 Red. masses --      2.2876                 1.2863                 1.2609
 Frc consts  --      2.0389                 1.2496                 1.2506
 IR Inten    --      2.6018                 1.3787                37.5922

                     55                     56                     57
                      A                      A                      A
 Frequencies --   1313.4753              1333.9670              1337.7853
 Red. masses --      1.2490                 1.9107                 1.2082
 Frc consts  --      1.2695                 2.0033                 1.2740
 IR Inten    --      0.2177                19.7908                 1.3888

                     58                     59                     60
                      A                      A                      A
 Frequencies --   1366.0793              1381.8529              1389.6300
 Red. masses --      2.3988                 1.3215                 1.3722
 Frc consts  --      2.6375                 1.4868                 1.5613
 IR Inten    --      0.3769                 1.3710                 7.2257

                     61                     62                     63
                      A                      A                      A
 Frequencies --   1399.8817              1411.9819              1435.8804
 Red. masses --      1.5056                 1.2911                 1.2954
 Frc consts  --      1.7384                 1.5165                 1.5735
 IR Inten    --     30.3769                 6.6837                 7.6678

                     64                     65                     66
                      A                      A                      A
 Frequencies --   1440.2565              1477.0913              1501.2884
 Red. masses --      1.3352                 1.1836                 2.0522
 Frc consts  --      1.6319                 1.5214                 2.7252
 IR Inten    --     14.7323                 2.6636                10.9768

                     67                     68                     69
                      A                      A                      A
 Frequencies --   1511.3897              1514.1136              1520.5062
 Red. masses --      1.1295                 1.0563                 1.0820
 Frc consts  --      1.5201                 1.4268                 1.4739
 IR Inten    --      4.2541                 5.0102                 4.3203

                     70                     71                     72
                      A                      A                      A
 Frequencies --   1525.6129              1540.6848              1545.2458
 Red. masses --      1.0703                 1.0495                 2.1419
 Frc consts  --      1.4677                 1.4677                 3.0133
 IR Inten    --      2.4446                 9.0996                 5.7688

                     73                     74                     75
                      A                      A                      A
 Frequencies --   1546.4346              1646.8799              1666.3790
 Red. masses --      1.0571                 5.5870                 5.5659
 Frc consts  --      1.4894                 8.9280                 9.1062
 IR Inten    --      4.0168                 0.4966                 1.7922

                     76                     77                     78
                      A                      A                      A
 Frequencies --   1733.9866              2977.6805              3035.3788
 Red. masses --      4.4793                 1.0836                 1.0382
 Frc consts  --      7.9350                 5.6609                 5.6358
 IR Inten    --      7.9583                47.9407                27.4978

                     79                     80                     81
                      A                      A                      A
 Frequencies --   3042.8595              3047.5024              3060.6988
 Red. masses --      1.0603                 1.0610                 1.0339
 Frc consts  --      5.7844                 5.8058                 5.7068
 IR Inten    --     18.2731                10.5594                20.2160

                     82                     83                     84
                      A                      A                      A
 Frequencies --   3077.3989              3089.1385              3097.6255
 Red. masses --      1.1005                 1.1030                 1.1013
 Frc consts  --      6.1406                 6.2016                 6.2263
 IR Inten    --     26.9572                11.8146                41.3011

                     85                     86                     87
                      A                      A                      A
 Frequencies --   3116.3725              3137.2539              3139.5028
 Red. masses --      1.0994                 1.1035                 1.1034
 Frc consts  --      6.2908                 6.3992                 6.4078
 IR Inten    --     59.0584                24.1126                22.8879

                     88                     89                     90
                      A                      A                      A
 Frequencies --   3145.2895              3155.1547              3171.2656
 Red. masses --      1.0736                 1.0756                 1.0872
 Frc consts  --      6.2579                 6.3085                 6.4421
 IR Inten    --     25.7079                 6.9989                 9.1340

                     91                     92                     93
                      A                      A                      A
 Frequencies --   3184.8499              3194.9616              3207.1668
 Red. masses --      1.0864                 1.0911                 1.0936
 Frc consts  --      6.4923                 6.5620                 6.6277
 IR Inten    --      0.1939                21.8925                21.7928

                     94                     95                     96
                      A                      A                      A
 Frequencies --   3213.7583              3231.9485              3757.3381
 Red. masses --      1.0960                 1.1154                 1.0654
 Frc consts  --      6.6691                 6.8647                 8.8618
 IR Inten    --     10.7976                23.9479                65.5997

 - Thermochemistry -
 -------------------
 Temperature   298.150 Kelvin.  Pressure   1.00000 Atm.
 Atom     1 has atomic number  6 and mass  12.00000

 Molecular mass:   192.15142 amu.
 Principal axes and moments of inertia in atomic units:
                           1         2         3
     Eigenvalues --  2068.271174343.020165461.76901
           X            0.99999   0.00087   0.00478
           Y           -0.00085   0.99999  -0.00531
           Z           -0.00479   0.00531   0.99997
 This molecule is an asymmetric top.
 Rotational symmetry number  1.
 Warning -- assumption of classical behavior for rotation
           may cause significant error
 Rotational temperatures (Kelvin)      0.04188     0.01994     0.01586
 Rotational constants (GHZ):           0.87258     0.41555     0.33043
 Zero-point vibrational energy     790658.0 (Joules/Mol)
                                  188.97179 (Kcal/Mol)
 Warning -- explicit consideration of  23 degrees of freedom as
           vibrations may cause significant error
 Vibrational temperatures:     26.31    42.64    56.28    70.77    76.09
          (Kelvin)             97.39   121.72   150.52   193.93   237.32
                              305.88   373.60   385.23   428.10   442.35
                              526.50   553.39   566.43   603.51   650.57
                              697.12   789.93   893.14   915.39   957.41
                             1034.24  1102.52  1114.95  1123.69  1238.79
                             1248.74  1292.97  1333.36  1343.72  1347.15
                             1355.24  1403.42  1434.09  1468.54  1475.37
                             1485.27  1506.62  1522.98  1542.37  1555.75
                             1594.39  1620.23  1652.23  1711.01  1716.64
                             1737.99  1769.58  1847.51  1866.75  1889.80
                             1919.28  1924.77  1965.48  1988.18  1999.37
                             2014.12  2031.53  2065.91  2072.21  2125.20
                             2160.02  2174.55  2178.47  2187.67  2195.02
                             2216.70  2223.26  2224.97  2369.49  2397.55
                             2494.82  4284.22  4367.23  4378.00  4384.68
                             4403.66  4427.69  4444.58  4456.79  4483.76
                             4513.81  4517.04  4525.37  4539.56  4562.74
                             4582.29  4596.84  4614.40  4623.88  4650.05
                             5405.97

 Zero-point correction=                           0.301146 (Hartree/Particle)
 Thermal correction to Energy=                    0.317860
 Thermal correction to Enthalpy=                  0.318804
 Thermal correction to Gibbs Free Energy=         0.253789
 Sum of electronic and zero-point Energies=           -582.382558
 Sum of electronic and thermal Energies=              -582.365844
 Sum of electronic and thermal Enthalpies=            -582.364900
 Sum of electronic and thermal Free Energies=         -582.429915

                     E (Thermal)             CV                S
                      KCal/Mol        Cal/Mol-Kelvin    Cal/Mol-Kelvin
 Total                  199.460             59.917            136.836
 Electronic               0.000              0.000              0.000
 Translational            0.889              2.981             41.665
 Rotational               0.889              2.981             32.262
 Vibrational            197.682             53.955             62.909
 Vibration     1          0.593              1.986              6.812
 Vibration     2          0.593              1.984              5.853
 Vibration     3          0.594              1.981              5.303
 Vibration     4          0.595              1.978              4.850
 Vibration     5          0.596              1.976              4.706
 Vibration     6          0.598              1.970              4.219
 Vibration     7          0.601              1.960              3.781
 Vibration     8          0.605              1.946              3.366
 Vibration     9          0.613              1.919              2.877
 Vibration    10          0.623              1.886              2.492
 Vibration    11          0.644              1.822              2.021
 Vibration    12          0.668              1.746              1.664
 Vibration    13          0.673              1.732              1.611
 Vibration    14          0.691              1.678              1.431
 Vibration    15          0.697              1.660              1.376
 Vibration    16          0.739              1.542              1.097
 Vibration    17          0.754              1.503              1.021
 Vibration    18          0.761              1.484              0.986
 Vibration    19          0.782              1.428              0.894
 Vibration    20          0.811              1.356              0.789
 Vibration    21          0.841              1.284              0.698
 Vibration    22          0.904              1.142              0.546
 Vibration    23          0.981              0.988              0.415

 Optimization completed.
    -- Stationary point found.
 Normal termination of Gaussian 16 at Thu Dec 10 12:05:00 2020.

 ----------------------------------------------------------------------
 # B3LYP/6-311++G(d,p) empiricaldispersion=gd3bj scf=xqc pop=npa geom=c
 heck
 ----------------------------------------------------------------------

 --------------------------------------
 CID_90280856_JID_4981_Energie_neutraal
 --------------------------------------
 Structure from the checkpoint file:  "JID_4981.chk"
 Charge =  0 Multiplicity = 1

 SCF Done:  E(RB3LYP) =  -582.856123884     A.U. after   14 cycles
 Normal termination of Gaussian 16 at Thu Dec 10 12:08:56 2020.

 ----------------------------------------------------------------------
 # B3LYP/6-311++G(d,p) empiricaldispersion=gd3bj scf=xqc pop=npa geom=c
 heck
 ----------------------------------------------------------------------

 ------------------------------------
 CID_90280856_JID_4981_Energie_kation
 ------------------------------------
 Structure from the checkpoint file:  "JID_4981.chk"
 Charge =  1 Multiplicity = 2

 SCF Done:  E(UB3LYP) =  -582.542216490     A.U. after   31 cycles
 Normal termination of Gaussian 16 at Thu Dec 10 12:20:50 2020.
 Gaussian 16:  ES64L-G16RevA.03 25-Dec-2016

 ----------------------------------------------------------------------
 # B3LYP/6-311++G(d,p) empiricaldispersion=gd3bj scf=xqc pop=npa geom=c
 heck
 ----------------------------------------------------------------------

 -----------------------------------
 CID_90280856_JID_4981_Energie_anion
 -----------------------------------
 Structure from the checkpoint file:  "JID_4981.chk"
 Charge = -1 Multiplicity = 2

                         Standard orientation:
 ---------------------------------------------------------------------
 Center     Atomic      Atomic             Coordinates (Angstroms)
 Number     Number       Type             X           Y           Z
 ---------------------------------------------------------------------
      1          6           0        1.319846   -2.207501    0.718996
      2          6           0        1.605825   -1.479694   -0.597767
      3          6           0        2.254105   -0.094356   -0.408666
      4          6           0        3.609836   -0.146829    0.238468
      5          6           0        4.753640    0.188331   -0.359210
      6          6           0       -3.832352   -0.723074   -0.556551
      7          6           0       -2.327598   -0.974482   -0.480103
      8          6           0       -1.569777    0.298536   -0.139784
      9          6           0       -1.340851    0.655710    1.193269
     10          6           0       -0.684177    1.847154    1.504070
     11          6           0       -0.253304    2.698259    0.484836
     12          6           0       -0.477432    2.347617   -0.847840
     13          6           0       -1.128079    1.153055   -1.155342
     14          8           0       -2.143310   -1.995629    0.496811
     15          1           0        2.241955   -2.445259    1.259678
     16          1           0        0.798720   -3.157658    0.545296
     17          1           0        0.705761   -1.586049    1.383618
     18          1           0        2.255423   -2.101029   -1.227252
     19          1           0        0.667904   -1.342474   -1.150319
     20          1           0        2.336147    0.398905   -1.384782
     21          1           0        1.578178    0.522506    0.197794
     22          1           0        3.640579   -0.493209    1.272180
     23          1           0        5.710681    0.125824    0.151921
     24          1           0        4.774192    0.544097   -1.387749
     25          1           0       -4.196705   -0.358016    0.409095
     26          1           0       -4.355629   -1.652961   -0.800333
     27          1           0       -4.059074    0.026907   -1.320569
     28          1           0       -1.981196   -1.328846   -1.465309
     29          1           0       -1.680219   -0.011782    1.979276
     30          1           0       -0.509325    2.111572    2.543460
     31          1           0        0.260810    3.624093    0.726499
     32          1           0       -0.136043    2.999239   -1.647382
     33          1           0       -1.292701    0.877568   -2.194965
     34          1           0       -1.191059   -2.164752    0.569094
 ---------------------------------------------------------------------

 SCF Done:  E(UB3LYP) =  -582.841612894     A.U. after   33 cycles
 SCF Done:  E(UB3LYP) =  -582.841612894     a.u. after    1 cycles

 The electronic state is 2-A.
 Alpha  occ. eigenvalues --  -19.03043 -10.13368 -10.08495 -10.08087 -10.08065
 Alpha  occ. eigenvalues --  -10.07881 -10.07796 -10.07769 -10.07755 -10.07322
 Alpha  occ. eigenvalues --  -10.07083 -10.06975 -10.06915 -10.06860  -0.93459
 Alpha  occ. eigenvalues --   -0.76382  -0.71337  -0.68523  -0.66197  -0.65192
 Alpha  occ. eigenvalues --   -0.63336  -0.58739  -0.53781  -0.51320  -0.50805
 Alpha  occ. eigenvalues --   -0.48565  -0.45391  -0.43679  -0.41310  -0.38412
 Alpha  occ. eigenvalues --   -0.37613  -0.36337  -0.35135  -0.34370  -0.33691
 Alpha  occ. eigenvalues --   -0.32659  -0.32337  -0.32227  -0.29800  -0.29441
 Alpha  occ. eigenvalues --   -0.28894  -0.28044  -0.26821  -0.26546  -0.25326
 Alpha  occ. eigenvalues --   -0.24993  -0.24072  -0.23563  -0.22932  -0.19241
 Alpha  occ. eigenvalues --   -0.16773  -0.16164  -0.15348   0.04362
 Alpha virt. eigenvalues --    0.06480   0.06782   0.07059   0.07593   0.07832
 Alpha virt. eigenvalues --    0.07979   0.08736   0.08892   0.09130   0.09193
 Alpha virt. eigenvalues --    0.10144   0.10513   0.11202   0.11675   0.12124

  Beta  occ. eigenvalues --  -19.03035 -10.13353 -10.08488 -10.08078 -10.08051
  Beta  occ. eigenvalues --  -10.07866 -10.07787 -10.07747 -10.07733 -10.07307
  Beta  occ. eigenvalues --  -10.07060 -10.06957 -10.06897 -10.06851  -0.93442
  Beta  occ. eigenvalues --   -0.76347  -0.71312  -0.68483  -0.66168  -0.65151
  Beta  occ. eigenvalues --   -0.63296  -0.58700  -0.53737  -0.51269  -0.50751
  Beta  occ. eigenvalues --   -0.48523  -0.45343  -0.43642  -0.41256  -0.38387
  Beta  occ. eigenvalues --   -0.37562  -0.36308  -0.35098  -0.34326  -0.33656
  Beta  occ. eigenvalues --   -0.32618  -0.32309  -0.32200  -0.29775  -0.29415
  Beta  occ. eigenvalues --   -0.28865  -0.28009  -0.26779  -0.26513  -0.25295
  Beta  occ. eigenvalues --   -0.24955  -0.24045  -0.23535  -0.22910  -0.19214
  Beta  occ. eigenvalues --   -0.16731  -0.16127  -0.15295
  Beta virt. eigenvalues --    0.06406   0.07116   0.07465   0.07595   0.07766
  Beta virt. eigenvalues --    0.07879   0.08198   0.08913   0.09373   0.09650
  Beta virt. eigenvalues --    0.09785   0.10278   0.10789   0.11467   0.11973

 Mulliken charges and spin densities:
               1          2
     1  C   -0.257528  -0.469585
     2  C    0.098769  -0.240961
     3  C    0.471529  -0.684414
     4  C   -0.663786   1.025167
     5  C    0.107315  -0.760390
     6  C    0.409942  -1.085235
     7  C    1.706655  -1.828608
     8  C   -0.505849   1.182134
     9  C   -1.118301   0.888623
    10  C   -0.418475   0.067494
    11  C    1.608811  -1.944663
    12  C    0.766031  -1.053557
    13  C   -0.883381   0.499922
    14  O   -0.215767   0.011613
    15  H   -0.041704   0.192941
    16  H   -0.084942   0.209286
    17  H   -0.053880   0.200180
    18  H   -0.088335   0.266256
    19  H    0.086621   0.072438
    20  H   -0.070932   0.208553
    21  H    0.719291  -0.582447
    22  H   -0.243174   0.406608
    23  H    0.019048   0.104343
    24  H   -0.178160   0.292719
    25  H    0.086124   0.067873
    26  H   -0.002993   0.150314
    27  H   -0.025620   0.179983
    28  H   -0.392740   0.576282
    29  H    0.018898   0.162062
    30  H   -0.502229   0.683838
    31  H   -0.285258   0.445197
    32  H   -0.738916   0.935889
    33  H   -0.671519   0.856934
    34  H    0.344455  -0.036792
 Sum of Mulliken charges =  -1.00000   1.00000

 Dipole moment (field-independent basis, Debye):
    X=             -0.5357    Y=             -2.2298    Z=              2.5239  Tot=              3.4102
 Quadrupole moment (field-independent basis, Debye-Ang):
   XX=           -146.9854   YY=           -143.1254   ZZ=           -133.4747
   XY=             -4.6094   XZ=             -2.9019   YZ=              1.3011

 Summary of Natural Population Analysis:

                                       Natural Population
                Natural  -----------------------------------------------
    Atom  No    Charge         Core      Valence    Rydberg      Total
 -----------------------------------------------------------------------
      C    1   -0.29549      0.99966     2.29096    0.00488     3.29549
      C    2   -0.18640      0.99963     2.17886    0.00791     3.18640
      C    3   -0.21197      0.99960     2.20242    0.00995     3.21197
      C    4   -0.07643      0.99956     2.06762    0.00924     3.07643
      C    5   -0.19599      0.99956     2.18978    0.00664     3.19599
      C    6   -0.28342      0.99964     2.27890    0.00489     3.28342
      C    7    0.05629      0.99953     1.92987    0.01431     2.94371
      C    8   -0.03242      0.99948     2.02007    0.01287     3.03242
      C    9   -0.10749      0.99950     2.09765    0.01034     3.10749
      C   10   -0.10014      0.99956     2.08982    0.01076     3.10014
      C   11   -0.10289      0.99956     2.09294    0.01039     3.10289
      C   12   -0.09644      0.99956     2.08564    0.01124     3.09644
      C   13   -0.09959      0.99950     2.08851    0.01157     3.09959
      O   14   -0.37378      0.99989     3.36761    0.00627     4.37378
      H   15    0.09985      0.00000     0.39901    0.00114     0.40015
      H   16    0.09758      0.00000     0.40133    0.00110     0.40242
      H   17    0.09767      0.00000     0.40078    0.00155     0.40233
      H   18    0.09346      0.00000     0.40530    0.00124     0.40654
      H   19    0.09794      0.00000     0.39985    0.00221     0.40206
      H   20    0.10041      0.00000     0.39750    0.00209     0.39959
      H   21    0.10799      0.00000     0.38868    0.00332     0.39201
      H   22    0.09017      0.00000     0.40857    0.00126     0.40983
      H   23    0.09039      0.00000     0.40855    0.00106     0.40961
      H   24    0.09000      0.00000     0.40865    0.00135     0.41000
      H   25    0.10000      0.00000     0.39900    0.00099     0.40000
      H   26    0.10154      0.00000     0.39749    0.00097     0.39846
      H   27    0.10215      0.00000     0.39687    0.00098     0.39785
      H   28    0.08193      0.00000     0.41531    0.00277     0.41807
      H   29    0.10767      0.00000     0.39113    0.00120     0.39233
      H   30    0.10148      0.00000     0.39743    0.00109     0.39852
      H   31    0.10318      0.00000     0.39551    0.00132     0.39682
      H   32    0.10468      0.00000     0.39328    0.00204     0.39532
      H   33    0.10446      0.00000     0.39324    0.00230     0.39554
      H   34    0.23361      0.00000     0.26292    0.00346     0.26639
 =======================================================================
   * Total *    0.00000     13.99424    38.84107    0.16469    53.00000

 Normal termination of Gaussian 16 at Thu Dec 10 12:33:15 2020.
