 Gaussian 16, Revision A.03,

 -----------------------------------------------------------
 # opt freq B3LYP/6-31G(d) empiricaldispersion=gd3bj scf=xqc
 -----------------------------------------------------------

 ------------------------------
 CID_79192591_JID_9020_neutraal
 ------------------------------
 Symbolic Z-matrix:
 Charge =  0 Multiplicity = 1

 SCF Done:  E(RB3LYP) =  -880.792592880     A.U. after   15 cycles
 SCF Done:  E(RB3LYP) =  -880.794229632     A.U. after   14 cycles
 SCF Done:  E(RB3LYP) =  -880.789402416     A.U. after   15 cycles
 SCF Done:  E(RB3LYP) =  -880.788295116     A.U. after   13 cycles
 SCF Done:  E(RB3LYP) =  -880.791951251     A.U. after   12 cycles
 SCF Done:  E(RB3LYP) =  -880.795763634     A.U. after   11 cycles
 SCF Done:  E(RB3LYP) =  -880.800240126     A.U. after   13 cycles
 SCF Done:  E(RB3LYP) =  -880.530108205     A.U. after   16 cycles
 SCF Done:  E(RB3LYP) =  -880.796372274     A.U. after   14 cycles
 SCF Done:  E(RB3LYP) =  -880.801407018     A.U. after   11 cycles
 SCF Done:  E(RB3LYP) =  -880.804622872     A.U. after   10 cycles
 SCF Done:  E(RB3LYP) =  -880.804626114     A.U. after    9 cycles
 SCF Done:  E(RB3LYP) =  -880.804628582     A.U. after    9 cycles
 SCF Done:  E(RB3LYP) =  -880.804629416     A.U. after    8 cycles
 SCF Done:  E(RB3LYP) =  -880.804629591     A.U. after    7 cycles
 Optimization completed.
    -- Stationary point found.
 Normal termination of Gaussian 16 at Sat Dec 12 09:39:23 2020.

 --------------------------------------------------------------------
 #N Geom=AllCheck Guess=TCheck SCRF=Check GenChk RB3LYP/6-31G(d) Freq
 --------------------------------------------------------------------

 Structure from the checkpoint file:  "JID_9020.chk"
 ------------------------------
 CID_79192591_JID_9020_neutraal
 ------------------------------
 Charge =  0 Multiplicity = 1

 SCF Done:  E(RB3LYP) =  -880.804629591     A.U. after    1 cycles

  Exact polarizability: 188.190   3.116 197.197  11.044  -5.191 112.367
 Approx polarizability: 281.185  11.758 293.819  30.998  -9.028 176.084

                      1                      2                      3
                      A                      A                      A
 Frequencies --     27.9790                56.0459                65.6835
 Red. masses --      4.4541                 3.9432                 3.9738
 Frc consts  --      0.0021                 0.0073                 0.0101
 IR Inten    --      0.3031                 0.6296                 0.2244

                      4                      5                      6
                      A                      A                      A
 Frequencies --     71.2919                81.8408                88.9797
 Red. masses --      4.7164                 3.9596                 5.9764
 Frc consts  --      0.0141                 0.0156                 0.0279
 IR Inten    --      1.0409                 0.6269                 3.2369

                      7                      8                      9
                      A                      A                      A
 Frequencies --     93.3000               118.2084               125.6133
 Red. masses --      3.5607                 4.9960                 4.4188
 Frc consts  --      0.0183                 0.0411                 0.0411
 IR Inten    --      2.8538                 3.1809                 1.4583

                     10                     11                     12
                      A                      A                      A
 Frequencies --    159.2079               181.6717               196.9227
 Red. masses --      3.1679                 2.5178                 4.8668
 Frc consts  --      0.0473                 0.0490                 0.1112
 IR Inten    --      2.0184                 5.1504                 1.3688

                     13                     14                     15
                      A                      A                      A
 Frequencies --    218.1991               228.7199               235.2255
 Red. masses --      1.2148                 2.9472                 2.3047
 Frc consts  --      0.0341                 0.0908                 0.0751
 IR Inten    --      0.6951                 2.1399                 0.6753

                     16                     17                     18
                      A                      A                      A
 Frequencies --    270.3363               301.9154               330.7492
 Red. masses --      3.3139                 3.9661                 3.9947
 Frc consts  --      0.1427                 0.2130                 0.2575
 IR Inten    --      0.8569                 3.1606                 2.4027

                     19                     20                     21
                      A                      A                      A
 Frequencies --    352.6926               389.7596               400.4384
 Red. masses --      3.3372                 7.3377                 5.6354
 Frc consts  --      0.2446                 0.6568                 0.5324
 IR Inten    --      2.3633                 4.4429                 8.4257

                     22                     23                     24
                      A                      A                      A
 Frequencies --    445.6257               458.9066               502.9640
 Red. masses --      3.3676                 3.3610                 3.3449
 Frc consts  --      0.3940                 0.4170                 0.4985
 IR Inten    --      0.7484                 1.0851                 3.4528

                     25                     26                     27
                      A                      A                      A
 Frequencies --    505.8851               537.1649               575.9201
 Red. masses --      3.6605                 2.2502                 1.7385
 Frc consts  --      0.5519                 0.3825                 0.3397
 IR Inten    --      4.6369                14.1014                32.8507

                     28                     29                     30
                      A                      A                      A
 Frequencies --    588.4694               605.8434               619.5874
 Red. masses --      2.3958                 1.4301                 1.1320
 Frc consts  --      0.4888                 0.3093                 0.2560
 IR Inten    --     44.6107                88.0018               101.9703

                     31                     32                     33
                      A                      A                      A
 Frequencies --    650.0565               691.3171               706.2426
 Red. masses --      5.5383                 4.1974                 3.5027
 Frc consts  --      1.3789                 1.1819                 1.0294
 IR Inten    --      1.5865                18.9856                19.2731

                     34                     35                     36
                      A                      A                      A
 Frequencies --    722.4434               746.6062               758.9553
 Red. masses --      2.7484                 2.0995                 2.1924
 Frc consts  --      0.8452                 0.6895                 0.7440
 IR Inten    --     11.6379                15.3061                41.1507

                     37                     38                     39
                      A                      A                      A
 Frequencies --    781.0358               810.6450               821.4755
 Red. masses --      2.0008                 1.6677                 1.4967
 Frc consts  --      0.7191                 0.6457                 0.5951
 IR Inten    --     37.7609                 7.7823                 1.8053

                     40                     41                     42
                      A                      A                      A
 Frequencies --    829.6840               869.7690               908.4772
 Red. masses --      1.2870                 2.6791                 1.6245
 Frc consts  --      0.5220                 1.1941                 0.7900
 IR Inten    --      0.8572                 3.8523                 1.1418

                     43                     44                     45
                      A                      A                      A
 Frequencies --    910.0825               913.5446               930.0304
 Red. masses --      1.7906                 2.2549                 2.4712
 Frc consts  --      0.8738                 1.1087                 1.2594
 IR Inten    --      3.9444                 1.7802                11.1063

                     46                     47                     48
                      A                      A                      A
 Frequencies --    951.5180               978.5235              1005.3023
 Red. masses --      1.5594                 1.2832                 2.4674
 Frc consts  --      0.8319                 0.7239                 1.4692
 IR Inten    --      5.4276                 0.3898                 1.8904

                     49                     50                     51
                      A                      A                      A
 Frequencies --   1024.4730              1038.8483              1066.2731
 Red. masses --      5.3724                 2.5751                 3.1344
 Frc consts  --      3.3222                 1.6374                 2.0996
 IR Inten    --      1.6596                10.0794                14.8933

                     52                     53                     54
                      A                      A                      A
 Frequencies --   1082.9484              1094.8844              1101.6070
 Red. masses --      2.6432                 1.8788                 3.7022
 Frc consts  --      1.8264                 1.3270                 2.6471
 IR Inten    --     20.9067                13.6630                63.8504

                     55                     56                     57
                      A                      A                      A
 Frequencies --   1110.0018              1114.9502              1117.9384
 Red. masses --      1.7247                 1.5659                 1.7148
 Frc consts  --      1.2520                 1.1469                 1.2627
 IR Inten    --      4.9686                35.1516                11.4001

                     58                     59                     60
                      A                      A                      A
 Frequencies --   1175.8885              1198.9877              1220.3287
 Red. masses --      1.2913                 1.1195                 1.8106
 Frc consts  --      1.0520                 0.9482                 1.5886
 IR Inten    --     40.8628                 5.8513                28.5542

                     61                     62                     63
                      A                      A                      A
 Frequencies --   1248.0793              1266.8998              1279.3891
 Red. masses --      1.5159                 1.3198                 1.4820
 Frc consts  --      1.3913                 1.2480                 1.4293
 IR Inten    --     66.8297                 9.0487                48.7674

                     64                     65                     66
                      A                      A                      A
 Frequencies --   1289.1815              1316.1115              1331.4793
 Red. masses --      1.8418                 1.4243                 1.3494
 Frc consts  --      1.8035                 1.4536                 1.4095
 IR Inten    --      7.5327                50.0055                13.8810

                     67                     68                     69
                      A                      A                      A
 Frequencies --   1335.4631              1359.9683              1360.8520
 Red. masses --      1.4131                 1.3551                 2.5683
 Frc consts  --      1.4849                 1.4767                 2.8024
 IR Inten    --     13.2692                17.9258                31.8694

                     70                     71                     72
                      A                      A                      A
 Frequencies --   1372.9499              1374.1646              1387.6704
 Red. masses --      1.1937                 2.2722                 2.3357
 Frc consts  --      1.3257                 2.5280                 2.6500
 IR Inten    --      4.2960               125.7406               125.4843

                     73                     74                     75
                      A                      A                      A
 Frequencies --   1406.1860              1426.4848              1437.1767
 Red. masses --      1.4487                 1.5848                 1.2898
 Frc consts  --      1.6878                 1.9001                 1.5696
 IR Inten    --     46.6738                 9.6533                30.3874

                     76                     77                     78
                      A                      A                      A
 Frequencies --   1444.0375              1462.6651              1464.8823
 Red. masses --      1.3589                 2.4066                 1.2537
 Frc consts  --      1.6695                 3.0336                 1.5850
 IR Inten    --      5.9455                39.2564                49.2763

                     79                     80                     81
                      A                      A                      A
 Frequencies --   1505.6855              1515.8072              1520.2371
 Red. masses --      2.3120                 1.0776                 1.0806
 Frc consts  --      3.0882                 1.4588                 1.4715
 IR Inten    --      2.4470                 1.2728                13.6571

                     82                     83                     84
                      A                      A                      A
 Frequencies --   1528.7028              1531.6143              1531.9620
 Red. masses --      1.0449                 1.0909                 1.0931
 Frc consts  --      1.4387                 1.5078                 1.5114
 IR Inten    --      3.7021                 9.3473                 7.6902

                     85                     86                     87
                      A                      A                      A
 Frequencies --   1536.3105              1551.3883              1553.2145
 Red. masses --      1.0788                 1.2470                 2.0302
 Frc consts  --      1.5002                 1.7684                 2.8857
 IR Inten    --     15.1489                16.9657                58.7646

                     88                     89                     90
                      A                      A                      A
 Frequencies --   1648.0498              1663.8068              1763.9414
 Red. masses --      6.0645                 5.9574                 7.8599
 Frc consts  --      9.7048                 9.7166                14.4090
 IR Inten    --     74.3349                96.1471               353.5954

                     91                     92                     93
                      A                      A                      A
 Frequencies --   1795.0470              2982.5510              3046.8985
 Red. masses --      8.3011                 1.0714                 1.0652
 Frc consts  --     15.7594                 5.6156                 5.8265
 IR Inten    --    406.1131                62.1635                11.8167

                     94                     95                     96
                      A                      A                      A
 Frequencies --   3054.7160              3063.5087              3071.0400
 Red. masses --      1.0646                 1.0344                 1.0877
 Frc consts  --      5.8532                 5.7195                 6.0443
 IR Inten    --     19.8360                23.5367                29.6611

                     97                     98                     99
                      A                      A                      A
 Frequencies --   3086.5281              3087.9683              3096.6341
 Red. masses --      1.0932                 1.0643                 1.0740
 Frc consts  --      6.1363                 5.9792                 6.0679
 IR Inten    --     14.8942                11.8121                35.9274

                    100                    101                    102
                      A                      A                      A
 Frequencies --   3103.1876              3130.9175              3135.5877
 Red. masses --      1.0915                 1.1022                 1.1031
 Frc consts  --      6.1928                 6.3659                 6.3899
 IR Inten    --     58.4696                 4.9692                19.7588

                    103                    104                    105
                      A                      A                      A
 Frequencies --   3145.2712              3152.2020              3192.9620
 Red. masses --      1.1014                 1.1038                 1.0878
 Frc consts  --      6.4197                 6.4622                 6.5343
 IR Inten    --     25.2839                25.1409                 5.1091

                    106                    107                    108
                      A                      A                      A
 Frequencies --   3208.4375              3224.9955              3266.5092
 Red. masses --      1.0921                 1.0952                 1.0902
 Frc consts  --      6.6236                 6.7110                 6.8534
 IR Inten    --     13.6355                 6.1325                 0.6383

                    109                    110                    111
                      A                      A                      A
 Frequencies --   3546.1030              3578.3177              3618.5977
 Red. masses --      1.0747                 1.0756                 1.0676
 Frc consts  --      7.9624                 8.1142                 8.2361
 IR Inten    --     28.3408                29.1546               203.0087

 - Thermochemistry -
 -------------------
 Temperature   298.150 Kelvin.  Pressure   1.00000 Atm.
 Atom     1 has atomic number  6 and mass  12.00000

 Molecular mass:   264.14739 amu.
 Principal axes and moments of inertia in atomic units:
                           1         2         3
     Eigenvalues --  4487.444695201.947058568.80617
           X            0.99992   0.00350  -0.01253
           Y           -0.00367   0.99990  -0.01358
           Z            0.01248   0.01362   0.99983
 This molecule is an asymmetric top.
 Rotational symmetry number  1.
 Warning -- assumption of classical behavior for rotation
           may cause significant error
 Rotational temperatures (Kelvin)      0.01930     0.01665     0.01011
 Rotational constants (GHZ):           0.40218     0.34694     0.21062
 Zero-point vibrational energy     874292.7 (Joules/Mol)
                                  208.96097 (Kcal/Mol)
 Warning -- explicit consideration of  30 degrees of freedom as
           vibrations may cause significant error
 Vibrational temperatures:     40.26    80.64    94.50   102.57   117.75
          (Kelvin)            128.02   134.24   170.08   180.73   229.06
                              261.39   283.33   313.94   329.08   338.44
                              388.95   434.39   475.87   507.45   560.78
                              576.14   641.16   660.26   723.65   727.86
                              772.86   828.62   846.68   871.67   891.45
                              935.29   994.65  1016.13  1039.43  1074.20
                             1091.97  1123.74  1166.34  1181.92  1193.73
                             1251.40  1307.10  1309.41  1314.39  1338.11
                             1369.02  1407.88  1446.41  1473.99  1494.67
                             1534.13  1558.12  1575.29  1584.97  1597.05
                             1604.16  1608.46  1691.84  1725.08  1755.78
                             1795.71  1822.79  1840.76  1854.84  1893.59
                             1915.70  1921.43  1956.69  1957.96  1975.37
                             1977.12  1996.55  2023.19  2052.39  2067.78
                             2077.65  2104.45  2107.64  2166.35  2180.91
                             2187.28  2199.46  2203.65  2204.15  2210.41
                             2232.10  2234.73  2371.18  2393.85  2537.92
                             2582.67  4291.23  4383.81  4395.05  4407.71
                             4418.54  4440.83  4442.90  4455.37  4464.79
                             4504.69  4511.41  4525.34  4535.32  4593.96
                             4616.23  4640.05  4699.78  5102.05  5148.40
                             5206.36

 Zero-point correction=                           0.333001 (Hartree/Particle)
 Thermal correction to Energy=                    0.352025
 Thermal correction to Enthalpy=                  0.352970
 Thermal correction to Gibbs Free Energy=         0.285195
 Sum of electronic and zero-point Energies=           -880.471629
 Sum of electronic and thermal Energies=              -880.452604
 Sum of electronic and thermal Enthalpies=            -880.451660
 Sum of electronic and thermal Free Energies=         -880.519434

                     E (Thermal)             CV                S
                      KCal/Mol        Cal/Mol-Kelvin    Cal/Mol-Kelvin
 Total                  220.899             71.910            142.643
 Electronic               0.000              0.000              0.000
 Translational            0.889              2.981             42.613
 Rotational               0.889              2.981             33.658
 Vibrational            219.122             65.949             66.371
 Vibration     1          0.593              1.984              5.968
 Vibration     2          0.596              1.975              4.592
 Vibration     3          0.597              1.971              4.279
 Vibration     4          0.598              1.968              4.117
 Vibration     5          0.600              1.962              3.846
 Vibration     6          0.602              1.957              3.682
 Vibration     7          0.602              1.954              3.590
 Vibration     8          0.608              1.934              3.129
 Vibration     9          0.611              1.927              3.012
 Vibration    10          0.621              1.892              2.559
 Vibration    11          0.630              1.865              2.311
 Vibration    12          0.636              1.844              2.162
 Vibration    13          0.646              1.813              1.974
 Vibration    14          0.651              1.797              1.889
 Vibration    15          0.655              1.787              1.839
 Vibration    16          0.674              1.728              1.594
 Vibration    17          0.694              1.670              1.406
 Vibration    18          0.713              1.614              1.256
 Vibration    19          0.729              1.570              1.154
 Vibration    20          0.758              1.492              1.001
 Vibration    21          0.766              1.469              0.961
 Vibration    22          0.805              1.371              0.809
 Vibration    23          0.817              1.341              0.769
 Vibration    24          0.858              1.243              0.651
 Vibration    25          0.861              1.237              0.644
 Vibration    26          0.892              1.168              0.571
 Vibration    27          0.932              1.083              0.493
 Vibration    28          0.946              1.056              0.470
 Vibration    29          0.964              1.019              0.440
 Vibration    30          0.980              0.991              0.417

                           ! Non-Optimized Parameters !
 Normal termination of Gaussian 16 at Sat Dec 12 10:00:23 2020.

 ----------------------------------------------------------------------
 # B3LYP/6-311++G(d,p) empiricaldispersion=gd3bj scf=xqc pop=npa geom=c
 heck
 ----------------------------------------------------------------------

 --------------------------------------
 CID_79192591_JID_9020_Energie_neutraal
 --------------------------------------
 Structure from the checkpoint file:  "JID_9020.chk"
 Charge =  0 Multiplicity = 1

 SCF Done:  E(RB3LYP) =  -881.067328576     A.U. after   16 cycles
 Normal termination of Gaussian 16 at Sat Dec 12 10:09:14 2020.

 ----------------------------------------------------------------------
 # B3LYP/6-311++G(d,p) empiricaldispersion=gd3bj scf=xqc pop=npa geom=c
 heck
 ----------------------------------------------------------------------

 ------------------------------------
 CID_79192591_JID_9020_Energie_kation
 ------------------------------------
 Structure from the checkpoint file:  "JID_9020.chk"
 Charge =  1 Multiplicity = 2

 SCF Done:  E(UB3LYP) =  -880.753895462     A.U. after   28 cycles
 Normal termination of Gaussian 16 at Sat Dec 12 10:29:39 2020.
 Gaussian 16:  ES64L-G16RevA.03 25-Dec-2016

 ----------------------------------------------------------------------
 # B3LYP/6-311++G(d,p) empiricaldispersion=gd3bj scf=xqc pop=npa geom=c
 heck
 ----------------------------------------------------------------------

 -----------------------------------
 CID_79192591_JID_9020_Energie_anion
 -----------------------------------
 Structure from the checkpoint file:  "JID_9020.chk"
 Charge = -1 Multiplicity = 2

                         Standard orientation:
 ---------------------------------------------------------------------
 Center     Atomic      Atomic             Coordinates (Angstroms)
 Number     Number       Type             X           Y           Z
 ---------------------------------------------------------------------
      1          6           0       -2.810972   -1.919230    1.658734
      2          6           0       -2.145636   -0.676327    1.044292
      3          6           0       -2.288117   -0.676964   -0.468183
      4          8           0       -3.135605    0.000944   -1.045547
      5          7           0       -1.477145   -1.543401   -1.176328
      6          6           0       -0.151195   -1.872033   -0.734434
      7          6           0        0.809088   -0.859208   -0.728049
      8          6           0        2.071150   -1.076564   -0.169605
      9          6           0        2.399160   -2.369197    0.269489
     10          6           0        1.462443   -3.396380    0.185121
     11          6           0        0.171147   -3.153121   -0.292239
     12          7           0        3.003915   -0.031437   -0.049678
     13          6           0        2.828955    1.301345    0.321961
     14          8           0        3.806673    2.029879    0.385200
     15          6           0        1.430085    1.800345    0.634717
     16          6           0        0.869555    2.677340   -0.521631
     17          6           0       -0.651241    2.582134   -0.726589
     18          6           0       -1.503724    2.796545    0.525964
     19          8           0       -2.891486    2.664452    0.273628
     20          1           0       -3.860072   -1.986314    1.353761
     21          1           0       -2.775942   -1.864345    2.751193
     22          1           0       -2.301863   -2.835649    1.345895
     23          1           0       -2.633884    0.232655    1.402198
     24          1           0       -1.092134   -0.640669    1.336944
     25          1           0       -1.628644   -1.479245   -2.178856
     26          1           0        0.555336    0.103156   -1.148615
     27          1           0        3.380859   -2.556929    0.695314
     28          1           0        1.730899   -4.390931    0.528100
     29          1           0       -0.579201   -3.935886   -0.316946
     30          1           0        3.986177   -0.277355   -0.102875
     31          1           0        0.756584    0.973930    0.866132
     32          1           0        1.522252    2.403265    1.542270
     33          1           0        1.164247    3.715838   -0.338070
     34          1           0        1.357504    2.397661   -1.463739
     35          1           0       -0.959361    3.310902   -1.485880
     36          1           0       -0.905494    1.597953   -1.141017
     37          1           0       -1.179545    2.104415    1.321205
     38          1           0       -1.357300    3.811575    0.913951
     39          1           0       -3.048642    1.825527   -0.202453
 ---------------------------------------------------------------------

 SCF Done:  E(UB3LYP) =  -881.067930746     A.U. after   33 cycles
 SCF Done:  E(UB3LYP) =  -881.068016445     a.u. after    4 cycles

 The electronic state is 2-A.
 Alpha  occ. eigenvalues --  -19.01362 -18.99916 -18.98214 -14.23893 -14.23884
 Alpha  occ. eigenvalues --  -10.17470 -10.16556 -10.11928 -10.10254 -10.09974
 Alpha  occ. eigenvalues --  -10.08633 -10.08014 -10.08007 -10.07700 -10.07108
 Alpha  occ. eigenvalues --  -10.06993 -10.06823 -10.06270 -10.05613  -0.94839
 Alpha  occ. eigenvalues --   -0.93648  -0.91616  -0.83493  -0.82534  -0.73431
 Alpha  occ. eigenvalues --   -0.71093  -0.68204  -0.64318  -0.64123  -0.63071
 Alpha  occ. eigenvalues --   -0.56762  -0.55810  -0.52780  -0.51892  -0.49893
 Alpha  occ. eigenvalues --   -0.47575  -0.46491  -0.44431  -0.41029  -0.39824
 Alpha  occ. eigenvalues --   -0.39012  -0.38414  -0.37987  -0.37223  -0.36055
 Alpha  occ. eigenvalues --   -0.34522  -0.33998  -0.33777  -0.33457  -0.32775
 Alpha  occ. eigenvalues --   -0.31984  -0.31045  -0.30135  -0.29194  -0.28346
 Alpha  occ. eigenvalues --   -0.28092  -0.27338  -0.26639  -0.26272  -0.25879
 Alpha  occ. eigenvalues --   -0.25710  -0.24425  -0.24155  -0.22276  -0.19725
 Alpha  occ. eigenvalues --   -0.18000  -0.17485  -0.16377  -0.15553  -0.15198
 Alpha  occ. eigenvalues --   -0.12392   0.04169
 Alpha virt. eigenvalues --    0.06959   0.07140   0.07526   0.07869   0.08489
 Alpha virt. eigenvalues --    0.08825   0.09146   0.09545   0.10225   0.10435
 Alpha virt. eigenvalues --    0.11173   0.11612   0.11733   0.12202   0.12519

  Beta  occ. eigenvalues --  -19.01360 -18.99849 -18.98111 -14.23943 -14.23884
  Beta  occ. eigenvalues --  -10.17371 -10.16438 -10.11926 -10.10156 -10.09704
  Beta  occ. eigenvalues --  -10.08624 -10.08019 -10.08016 -10.07698 -10.07127
  Beta  occ. eigenvalues --  -10.06943 -10.06859 -10.06167 -10.05412  -0.94702
  Beta  occ. eigenvalues --   -0.93455  -0.91612  -0.83346  -0.82391  -0.73231
  Beta  occ. eigenvalues --   -0.71075  -0.68130  -0.64199  -0.63897  -0.62829
  Beta  occ. eigenvalues --   -0.56714  -0.55696  -0.52641  -0.51542  -0.49840
  Beta  occ. eigenvalues --   -0.47455  -0.46363  -0.44342  -0.40996  -0.39711
  Beta  occ. eigenvalues --   -0.38898  -0.38320  -0.37878  -0.37090  -0.35867
  Beta  occ. eigenvalues --   -0.34437  -0.33951  -0.33612  -0.33379  -0.32678
  Beta  occ. eigenvalues --   -0.31903  -0.30893  -0.29940  -0.29082  -0.28252
  Beta  occ. eigenvalues --   -0.28036  -0.26922  -0.26500  -0.26033  -0.25821
  Beta  occ. eigenvalues --   -0.25615  -0.24376  -0.23969  -0.22252  -0.19088
  Beta  occ. eigenvalues --   -0.17825  -0.17472  -0.16248  -0.15463  -0.14743
  Beta  occ. eigenvalues --   -0.11595
  Beta virt. eigenvalues --    0.06814   0.07566   0.07683   0.07889   0.08355
  Beta virt. eigenvalues --    0.08893   0.09171   0.09494   0.09757   0.10295
  Beta virt. eigenvalues --    0.10874   0.11306   0.11676   0.11775   0.12437

 Mulliken charges and spin densities:
               1          2
     1  C    0.200606  -0.848886
     2  C   -0.364774   0.461378
     3  C   -0.031388  -0.080267
     4  O   -0.296739   0.023041
     5  N   -0.079837   0.000316
     6  C   -0.269017   0.199049
     7  C    0.776885  -0.482494
     8  C   -0.206745  -0.330331
     9  C   -0.749344   0.744540
    10  C    0.277839  -0.625079
    11  C   -0.130003   0.192491
    12  N   -0.158819   0.000686
    13  C   -0.464178   0.212808
    14  O   -0.353913   0.051499
    15  C    0.435679  -0.389145
    16  C   -0.463753  -0.084322
    17  C    0.135940  -0.023190
    18  C   -0.533434  -0.053004
    19  O   -0.236041   0.000256
    20  H    0.090521   0.067378
    21  H   -0.264059   0.405907
    22  H   -0.082023   0.220748
    23  H    0.183205  -0.028204
    24  H    0.223175  -0.059670
    25  H    0.312590  -0.005279
    26  H    0.269159  -0.075981
    27  H   -0.291644   0.434158
    28  H   -0.269205   0.429725
    29  H    0.171750  -0.035004
    30  H    0.003880   0.312188
    31  H   -0.037194   0.109306
    32  H    0.127048   0.105496
    33  H    0.170157  -0.008186
    34  H    0.130724   0.048685
    35  H    0.180761  -0.000509
    36  H    0.100732   0.025905
    37  H    0.102995   0.059575
    38  H    0.123335   0.027037
    39  H    0.265127  -0.002621
 Sum of Mulliken charges =  -1.00000   1.00000

 Dipole moment (field-independent basis, Debye):
    X=             -2.0290    Y=              1.3247    Z=             -2.0731  Tot=              3.1889
 Quadrupole moment (field-independent basis, Debye-Ang):
   XX=           -193.5924   YY=           -163.0847   ZZ=           -134.6820
   XY=              4.1247   XZ=              0.4085   YZ=              3.5794

 Summary of Natural Population Analysis:

                                       Natural Population
                Natural  -----------------------------------------------
    Atom  No    Charge         Core      Valence    Rydberg      Total
 -----------------------------------------------------------------------
      C    1   -0.27925      0.99966     2.27450    0.00510     3.27925
      C    2   -0.24250      0.99958     2.23405    0.00887     3.24250
      C    3    0.36173      0.99966     1.61245    0.02616     2.63827
      O    4   -0.33494      0.99987     3.32903    0.00604     4.33494
      N    5   -0.32413      0.99964     2.81450    0.00999     3.82413
      C    6    0.07887      0.99944     1.91052    0.01116     2.92113
      C    7   -0.13420      0.99947     2.12644    0.00829     3.13420
      C    8    0.11751      0.99946     1.87221    0.01082     2.88249
      C    9   -0.09408      0.99953     2.08518    0.00936     3.09408
      C   10   -0.09699      0.99957     2.08741    0.01001     3.09699
      C   11   -0.08091      0.99950     2.07155    0.00986     3.08091
      N   12   -0.31818      0.99965     2.80895    0.00958     3.81818
      C   13    0.36335      0.99968     1.61523    0.02175     2.63665
      O   14   -0.31628      0.99987     3.31058    0.00583     4.31628
      C   15   -0.24208      0.99958     2.23314    0.00936     3.24208
      C   16   -0.18771      0.99962     2.18023    0.00786     3.18771
      C   17   -0.20501      0.99962     2.19764    0.00775     3.20501
      C   18   -0.00987      0.99960     1.99858    0.01169     3.00987
      O   19   -0.38135      0.99990     3.37494    0.00651     4.38135
      H   20    0.09666      0.00000     0.40243    0.00091     0.40334
      H   21    0.10020      0.00000     0.39873    0.00107     0.39980
      H   22    0.10397      0.00000     0.39493    0.00110     0.39603
      H   23    0.10856      0.00000     0.38996    0.00148     0.39144
      H   24    0.11148      0.00000     0.38704    0.00148     0.38852
      H   25    0.19368      0.00000     0.30480    0.00152     0.30632
      H   26    0.10226      0.00000     0.39557    0.00217     0.39774
      H   27    0.10004      0.00000     0.39868    0.00127     0.39996
      H   28    0.09875      0.00000     0.40034    0.00091     0.40125
      H   29    0.10028      0.00000     0.39877    0.00094     0.39972
      H   30    0.19879      0.00000     0.29763    0.00358     0.30121
      H   31    0.10833      0.00000     0.39020    0.00148     0.39167
      H   32    0.11024      0.00000     0.38864    0.00112     0.38976
      H   33    0.09961      0.00000     0.39936    0.00103     0.40039
      H   34    0.10006      0.00000     0.39894    0.00101     0.39994
      H   35    0.09837      0.00000     0.40060    0.00103     0.40163
      H   36    0.09695      0.00000     0.40124    0.00181     0.40305
      H   37    0.07459      0.00000     0.42399    0.00142     0.42541
      H   38    0.07969      0.00000     0.41891    0.00140     0.42031
      H   39    0.24353      0.00000     0.25356    0.00291     0.25647
 =======================================================================
   * Total *    0.00000     18.99292    51.78147    0.22561    71.00000

 Normal termination of Gaussian 16 at Sat Dec 12 12:08:17 2020.
