 Gaussian 16, Revision A.03,

 -----------------------------------------------------------
 # opt freq B3LYP/6-31G(d) empiricaldispersion=gd3bj scf=xqc
 -----------------------------------------------------------

 -------------------------------
 CID_131339818_JID_5906_neutraal
 -------------------------------
 Symbolic Z-matrix:
 Charge =  0 Multiplicity = 1

 SCF Done:  E(RB3LYP) =  -1373.26511357     A.U. after   15 cycles
 SCF Done:  E(RB3LYP) =  -1373.27265829     A.U. after   13 cycles
 SCF Done:  E(RB3LYP) =  -1373.27358114     A.U. after   12 cycles
 SCF Done:  E(RB3LYP) =  -1373.27336430     A.U. after   12 cycles
 SCF Done:  E(RB3LYP) =  -1373.27425182     A.U. after   11 cycles
 SCF Done:  E(RB3LYP) =  -1373.27445888     A.U. after   11 cycles
 SCF Done:  E(RB3LYP) =  -1373.27451762     A.U. after   11 cycles
 SCF Done:  E(RB3LYP) =  -1373.27453691     A.U. after   10 cycles
 SCF Done:  E(RB3LYP) =  -1373.27455030     A.U. after   11 cycles
 SCF Done:  E(RB3LYP) =  -1373.27455599     A.U. after   10 cycles
 SCF Done:  E(RB3LYP) =  -1373.27572642     A.U. after   10 cycles
 SCF Done:  E(RB3LYP) =  -1373.27573706     A.U. after    9 cycles
 SCF Done:  E(RB3LYP) =  -1373.27573904     A.U. after    9 cycles
 SCF Done:  E(RB3LYP) =  -1373.27573916     A.U. after    7 cycles
 SCF Done:  E(RB3LYP) =  -1373.27573918     A.U. after    6 cycles
 Optimization completed.
    -- Stationary point found.
 Normal termination of Gaussian 16 at Thu Dec 10 17:48:08 2020.

 --------------------------------------------------------------------
 #N Geom=AllCheck Guess=TCheck SCRF=Check GenChk RB3LYP/6-31G(d) Freq
 --------------------------------------------------------------------

 Structure from the checkpoint file:  "JID_5906.chk"
 -------------------------------
 CID_131339818_JID_5906_neutraal
 -------------------------------
 Charge =  0 Multiplicity = 1

 SCF Done:  E(RB3LYP) =  -1373.27573918     A.U. after    1 cycles

  Exact polarizability: 223.003   8.902 169.130   3.814  -9.391  86.739
 Approx polarizability: 346.587   4.079 280.081   7.314 -28.191 136.016

                      1                      2                      3
                      A                      A                      A
 Frequencies --     42.7181                63.9012                82.9485
 Red. masses --      4.0451                 3.6538                 3.8463
 Frc consts  --      0.0043                 0.0088                 0.0156
 IR Inten    --      0.7228                 1.3955                 0.4852

                      4                      5                      6
                      A                      A                      A
 Frequencies --     88.5295               140.0661               164.9412
 Red. masses --      3.7522                 6.4150                 1.2471
 Frc consts  --      0.0173                 0.0742                 0.0200
 IR Inten    --      1.1279                 0.0409                 0.6073

                      7                      8                      9
                      A                      A                      A
 Frequencies --    172.0034               186.4050               194.8863
 Red. masses --      2.2499                 4.6152                 1.6412
 Frc consts  --      0.0392                 0.0945                 0.0367
 IR Inten    --      0.5940                 0.5854                 0.8913

                     10                     11                     12
                      A                      A                      A
 Frequencies --    219.0790               243.1585               288.8475
 Red. masses --      6.7249                 2.0233                 4.5367
 Frc consts  --      0.1902                 0.0705                 0.2230
 IR Inten    --      0.2783                 1.8276                 7.5498

                     13                     14                     15
                      A                      A                      A
 Frequencies --    319.1487               345.6352               347.9656
 Red. masses --      5.3550                 5.9869                 5.5242
 Frc consts  --      0.3214                 0.4214                 0.3941
 IR Inten    --      0.7969                 1.7120                 2.5509

                     16                     17                     18
                      A                      A                      A
 Frequencies --    400.8218               421.8521               476.7579
 Red. masses --      6.7739                 5.7629                 4.5161
 Frc consts  --      0.6412                 0.6042                 0.6048
 IR Inten    --      0.9391                 2.3415                 0.2548

                     19                     20                     21
                      A                      A                      A
 Frequencies --    485.3834               557.3617               607.8061
 Red. masses --      3.9243                 6.6265                 1.0882
 Frc consts  --      0.5447                 1.2129                 0.2369
 IR Inten    --      2.8283                 4.4386                65.0547

                     22                     23                     24
                      A                      A                      A
 Frequencies --    624.2951               632.3918               650.7326
 Red. masses --      5.1505                 5.9129                 4.7813
 Frc consts  --      1.1827                 1.3932                 1.1929
 IR Inten    --      6.7705                 8.3253                 9.2748

                     25                     26                     27
                      A                      A                      A
 Frequencies --    663.8104               695.3675               722.8075
 Red. masses --      3.1156                 5.6581                 3.4596
 Frc consts  --      0.8089                 1.6120                 1.0649
 IR Inten    --     13.3393                 1.0757                 6.2140

                     28                     29                     30
                      A                      A                      A
 Frequencies --    728.7381               760.9769               763.9163
 Red. masses --      3.6806                 5.2368                 2.4575
 Frc consts  --      1.1516                 1.7867                 0.8450
 IR Inten    --      6.5278                 7.6064                11.7656

                     31                     32                     33
                      A                      A                      A
 Frequencies --    820.0623               825.4773               848.7767
 Red. masses --      1.5615                 1.3219                 3.2754
 Frc consts  --      0.6187                 0.5307                 1.3903
 IR Inten    --     39.8653                 7.6403                17.7718

                     34                     35                     36
                      A                      A                      A
 Frequencies --    896.8398               898.3196               992.0904
 Red. masses --      1.3117                 2.6807                 1.1844
 Frc consts  --      0.6216                 1.2746                 0.6868
 IR Inten    --      2.1776                 2.1713                 5.0839

                     37                     38                     39
                      A                      A                      A
 Frequencies --   1009.2608              1022.3848              1074.8605
 Red. masses --      1.3217                 3.5814                 2.6948
 Frc consts  --      0.7932                 2.2056                 1.8343
 IR Inten    --     24.5761                 2.2544                13.8521

                     40                     41                     42
                      A                      A                      A
 Frequencies --   1108.4350              1131.9044              1135.2024
 Red. masses --      3.1495                 1.8660                 1.9160
 Frc consts  --      2.2799                 1.4086                 1.4547
 IR Inten    --     38.9270                19.0230                33.6863

                     43                     44                     45
                      A                      A                      A
 Frequencies --   1166.1826              1203.4180              1222.3949
 Red. masses --      5.6768                 1.5468                 1.8163
 Frc consts  --      4.5487                 1.3198                 1.5991
 IR Inten    --     72.9332                30.2941               180.3204

                     46                     47                     48
                      A                      A                      A
 Frequencies --   1296.9873              1315.2940              1335.6720
 Red. masses --      1.7412                 1.6552                 1.2258
 Frc consts  --      1.7258                 1.6871                 1.2884
 IR Inten    --     71.8646               114.4914                66.0777

                     49                     50                     51
                      A                      A                      A
 Frequencies --   1374.9469              1385.6130              1399.4529
 Red. masses --      1.2302                 3.4774                 1.9267
 Frc consts  --      1.3702                 3.9336                 2.2232
 IR Inten    --      2.9787                15.9481                36.2318

                     52                     53                     54
                      A                      A                      A
 Frequencies --   1428.3381              1443.3210              1465.8115
 Red. masses --      2.0948                 1.4391                 4.4248
 Frc consts  --      2.5180                 1.7663                 5.6014
 IR Inten    --      6.3312                51.5559                91.0527

                     55                     56                     57
                      A                      A                      A
 Frequencies --   1491.6755              1497.3902              1515.7439
 Red. masses --      1.4523                 1.7453                 1.0448
 Frc consts  --      1.9039                 2.3056                 1.4143
 IR Inten    --     10.4327                16.5263                 7.1014

                     58                     59                     60
                      A                      A                      A
 Frequencies --   1519.2700              1533.1686              1548.8815
 Red. masses --      1.0559                 1.0549                 1.1392
 Frc consts  --      1.4359                 1.4610                 1.6102
 IR Inten    --      8.7902                 2.2492                 1.3658

                     61                     62                     63
                      A                      A                      A
 Frequencies --   1558.2146              1610.0568              1656.9486
 Red. masses --      4.5223                 8.0234                 6.2649
 Frc consts  --      6.4694                12.2544                10.1340
 IR Inten    --     67.2150               107.0504               125.9285

                     64                     65                     66
                      A                      A                      A
 Frequencies --   3049.3203              3063.2698              3074.1399
 Red. masses --      1.0677                 1.0365                 1.0290
 Frc consts  --      5.8492                 5.7307                 5.7294
 IR Inten    --     40.3911                16.4463                29.4776

                     67                     68                     69
                      A                      A                      A
 Frequencies --   3115.3392              3132.8492              3149.5043
 Red. masses --      1.0981                 1.1009                 1.1034
 Frc consts  --      6.2792                 6.3662                 6.4487
 IR Inten    --     15.5680                28.4238                32.8212

                     70                     71                     72
                      A                      A                      A
 Frequencies --   3162.7333              3177.3317              3220.8273
 Red. masses --      1.1061                 1.1075                 1.0905
 Frc consts  --      6.5190                 6.5878                 6.6653
 IR Inten    --      8.4615                 3.7275                 6.5066

                     73                     74                     75
                      A                      A                      A
 Frequencies --   3232.8590              3264.4068              3540.4692
 Red. masses --      1.0895                 1.0972                 1.0640
 Frc consts  --      6.7089                 6.8891                 7.8579
 IR Inten    --     10.1275                 1.5940               132.9498

 - Thermochemistry -
 -------------------
 Temperature   298.150 Kelvin.  Pressure   1.00000 Atm.
 Atom     1 has atomic number  6 and mass  12.00000

 Molecular mass:   240.02787 amu.
 Principal axes and moments of inertia in atomic units:
                           1         2         3
     Eigenvalues --  2659.432124772.436146972.61883
           X            0.99992  -0.01225   0.00298
           Y            0.01219   0.99974   0.01907
           Z           -0.00322  -0.01903   0.99981
 This molecule is an asymmetric top.
 Rotational symmetry number  1.
 Warning -- assumption of classical behavior for rotation
           may cause significant error
 Rotational temperatures (Kelvin)      0.03257     0.01815     0.01242
 Rotational constants (GHZ):           0.67862     0.37816     0.25883
 Zero-point vibrational energy     550334.2 (Joules/Mol)
                                  131.53304 (Kcal/Mol)
 Warning -- explicit consideration of  21 degrees of freedom as
           vibrations may cause significant error
 Vibrational temperatures:     61.46    91.94   119.34   127.37   201.52
          (Kelvin)            237.31   247.47   268.20   280.40   315.21
                              349.85   415.59   459.18   497.29   500.64
                              576.69   606.95   685.95   698.36   801.92
                              874.50   898.22   909.87   936.26   955.08
                             1000.48  1039.96  1048.49  1094.88  1099.11
                             1179.89  1187.68  1221.20  1290.35  1292.48
                             1427.40  1452.10  1470.98  1546.48  1594.79
                             1628.56  1633.30  1677.88  1731.45  1758.75
                             1866.08  1892.41  1921.73  1978.24  1993.59
                             2013.50  2055.06  2076.62  2108.98  2146.19
                             2154.41  2180.82  2185.89  2205.89  2228.49
                             2241.92  2316.51  2383.98  4387.29  4407.36
                             4423.00  4482.28  4507.47  4531.43  4550.47
                             4571.47  4634.05  4651.36  4696.75  5093.95

 Zero-point correction=                           0.209611 (Hartree/Particle)
 Thermal correction to Energy=                    0.224399
 Thermal correction to Enthalpy=                  0.225343
 Thermal correction to Gibbs Free Energy=         0.167357
 Sum of electronic and zero-point Energies=          -1373.066128
 Sum of electronic and thermal Energies=             -1373.051341
 Sum of electronic and thermal Enthalpies=           -1373.050396
 Sum of electronic and thermal Free Energies=        -1373.108382

                     E (Thermal)             CV                S
                      KCal/Mol        Cal/Mol-Kelvin    Cal/Mol-Kelvin
 Total                  140.812             55.729            122.041
 Electronic               0.000              0.000              0.000
 Translational            0.889              2.981             42.328
 Rotational               0.889              2.981             32.848
 Vibrational            139.035             49.767             46.865
 Vibration     1          0.595              1.980              5.129
 Vibration     2          0.597              1.972              4.333
 Vibration     3          0.600              1.961              3.820
 Vibration     4          0.601              1.957              3.692
 Vibration     5          0.615              1.913              2.803
 Vibration     6          0.623              1.886              2.492
 Vibration     7          0.626              1.877              2.413
 Vibration     8          0.632              1.858              2.263
 Vibration     9          0.636              1.847              2.181
 Vibration    10          0.647              1.812              1.967
 Vibration    11          0.659              1.774              1.780
 Vibration    12          0.685              1.694              1.481
 Vibration    13          0.705              1.637              1.314
 Vibration    14          0.724              1.584              1.186
 Vibration    15          0.726              1.579              1.175
 Vibration    16          0.767              1.468              0.960
 Vibration    17          0.784              1.423              0.886
 Vibration    18          0.833              1.302              0.719
 Vibration    19          0.841              1.282              0.696
 Vibration    20          0.913              1.124              0.529
 Vibration    21          0.967              1.015              0.436

 Optimization completed.
    -- Stationary point found.
 Normal termination of Gaussian 16 at Thu Dec 10 17:56:20 2020.

 ----------------------------------------------------------------------
 # B3LYP/6-311++G(d,p) empiricaldispersion=gd3bj scf=xqc pop=npa geom=c
 heck
 ----------------------------------------------------------------------

 ---------------------------------------
 CID_131339818_JID_5906_Energie_neutraal
 ---------------------------------------
 Structure from the checkpoint file:  "JID_5906.chk"
 Charge =  0 Multiplicity = 1

 SCF Done:  E(RB3LYP) =  -1373.48939606     A.U. after   16 cycles
 Normal termination of Gaussian 16 at Thu Dec 10 18:00:05 2020.

 ----------------------------------------------------------------------
 # B3LYP/6-311++G(d,p) empiricaldispersion=gd3bj scf=xqc pop=npa geom=c
 heck
 ----------------------------------------------------------------------

 -------------------------------------
 CID_131339818_JID_5906_Energie_kation
 -------------------------------------
 Structure from the checkpoint file:  "JID_5906.chk"
 Charge =  1 Multiplicity = 2

 SCF Done:  E(UB3LYP) =  -1373.21767242     A.U. after   26 cycles
 Normal termination of Gaussian 16 at Thu Dec 10 18:07:21 2020.
 Gaussian 16:  ES64L-G16RevA.03 25-Dec-2016

 ----------------------------------------------------------------------
 # B3LYP/6-311++G(d,p) empiricaldispersion=gd3bj scf=xqc pop=npa geom=c
 heck
 ----------------------------------------------------------------------

 ------------------------------------
 CID_131339818_JID_5906_Energie_anion
 ------------------------------------
 Structure from the checkpoint file:  "JID_5906.chk"
 Charge = -1 Multiplicity = 2

                         Standard orientation:
 ---------------------------------------------------------------------
 Center     Atomic      Atomic             Coordinates (Angstroms)
 Number     Number       Type             X           Y           Z
 ---------------------------------------------------------------------
      1          6           0       -2.688409    2.925343    0.993811
      2          6           0       -2.770989    2.182375   -0.333321
      3          8           0       -2.320319    0.829779   -0.227807
      4          6           0       -0.985163    0.571866   -0.125661
      5          6           0       -0.663803   -0.782886    0.166441
      6          6           0        0.676375   -1.186722    0.242697
      7          6           0        1.682363   -0.232986    0.050395
      8          6           0        1.363255    1.111195   -0.228881
      9          6           0        0.016320    1.514694   -0.321700
     10          6           0        2.554091    1.904116   -0.391027
     11          6           0        3.696092    1.180820   -0.240312
     12         16           0        3.411898   -0.508146    0.110476
     13          8           0        1.043612   -2.462521    0.496811
     14         16           0       -1.925518   -1.999116    0.479398
     15          6           0       -2.622897   -2.222460   -1.202567
     16          1           0       -3.267155    2.395471    1.756417
     17          1           0       -3.097628    3.936012    0.884608
     18          1           0       -1.655611    3.007196    1.343668
     19          1           0       -3.810854    2.090303   -0.657444
     20          1           0       -2.221924    2.703039   -1.128174
     21          1           0       -0.214271    2.548207   -0.546437
     22          1           0        2.539626    2.965823   -0.611567
     23          1           0        4.714474    1.539209   -0.314104
     24          1           0        0.215091   -2.980230    0.589268
     25          1           0       -3.057633   -1.279665   -1.538184
     26          1           0       -1.851874   -2.555820   -1.900361
     27          1           0       -3.404076   -2.983574   -1.126942
 ---------------------------------------------------------------------

 SCF Done:  E(UB3LYP) =  -1373.48262141     A.U. after   33 cycles
 SCF Done:  E(UB3LYP) =  -1373.48262141     a.u. after    1 cycles

 The electronic state is 2-A.
 Alpha  occ. eigenvalues --  -88.75093 -88.73441 -19.04199 -19.04041 -10.12690
 Alpha  occ. eigenvalues --  -10.12352 -10.12136 -10.07508 -10.07444 -10.07378
 Alpha  occ. eigenvalues --  -10.07245 -10.06897 -10.06327 -10.05774 -10.04991
 Alpha  occ. eigenvalues --   -7.83702  -7.81962  -5.80022  -5.79660  -5.79249
 Alpha  occ. eigenvalues --   -5.78348  -5.77982  -5.77381  -0.95953  -0.95530
 Alpha  occ. eigenvalues --   -0.76973  -0.72051  -0.67246  -0.66667  -0.64285
 Alpha  occ. eigenvalues --   -0.60514  -0.59221  -0.54587  -0.53658  -0.49146
 Alpha  occ. eigenvalues --   -0.46314  -0.45082  -0.42115  -0.40913  -0.39448
 Alpha  occ. eigenvalues --   -0.35732  -0.34897  -0.34690  -0.32787  -0.31741
 Alpha  occ. eigenvalues --   -0.30908  -0.30337  -0.30300  -0.28996  -0.28285
 Alpha  occ. eigenvalues --   -0.26905  -0.26365  -0.26022  -0.25704  -0.24448
 Alpha  occ. eigenvalues --   -0.22820  -0.22435  -0.20783  -0.17921  -0.15130
 Alpha  occ. eigenvalues --   -0.13072  -0.10612  -0.09288   0.04515
 Alpha virt. eigenvalues --    0.06293   0.07472   0.07927   0.08872   0.09132
 Alpha virt. eigenvalues --    0.10097   0.10272   0.10919   0.11667   0.11932
 Alpha virt. eigenvalues --    0.12744   0.13100   0.13368   0.13516   0.13788

  Beta  occ. eigenvalues --  -88.75071 -88.73437 -19.04195 -19.04031 -10.12675
  Beta  occ. eigenvalues --  -10.12355 -10.12019 -10.07434 -10.07249 -10.07226
  Beta  occ. eigenvalues --  -10.07139 -10.06878 -10.06200 -10.05792 -10.04951
  Beta  occ. eigenvalues --   -7.83681  -7.81957  -5.80014  -5.79653  -5.79168
  Beta  occ. eigenvalues --   -5.78328  -5.77984  -5.77377  -0.95936  -0.95475
  Beta  occ. eigenvalues --   -0.76775  -0.71867  -0.67042  -0.66603  -0.64070
  Beta  occ. eigenvalues --   -0.60282  -0.59068  -0.54501  -0.53403  -0.49055
  Beta  occ. eigenvalues --   -0.46228  -0.44828  -0.42032  -0.40839  -0.39373
  Beta  occ. eigenvalues --   -0.35660  -0.34792  -0.34630  -0.32656  -0.31462
  Beta  occ. eigenvalues --   -0.30772  -0.30240  -0.30157  -0.28922  -0.28180
  Beta  occ. eigenvalues --   -0.26798  -0.26205  -0.25625  -0.25624  -0.24203
  Beta  occ. eigenvalues --   -0.22708  -0.22326  -0.20653  -0.17423  -0.14651
  Beta  occ. eigenvalues --   -0.12853  -0.09922  -0.08767
  Beta virt. eigenvalues --    0.06798   0.07635   0.07900   0.08813   0.09022
  Beta virt. eigenvalues --    0.09352   0.10323   0.10522   0.11249   0.11700
  Beta virt. eigenvalues --    0.12055   0.12842   0.13142   0.13543   0.13746

 Mulliken charges and spin densities:
               1          2
     1  C    0.274546  -0.702812
     2  C   -0.114455  -0.027566
     3  O   -0.079981   0.016317
     4  C   -0.899659   0.484100
     5  C    1.004663   0.333032
     6  C   -1.060733  -0.080986
     7  C   -0.229501   0.061638
     8  C    0.846919  -0.143148
     9  C    0.248826  -0.469960
    10  C    0.372062  -0.114595
    11  C   -0.138630   0.193731
    12  S   -0.642807   0.029989
    13  O   -0.191115   0.013217
    14  S   -0.510117   0.283540
    15  C    0.496806  -1.133015
    16  H    0.118503   0.033418
    17  H   -0.209021   0.332405
    18  H    0.040493   0.092695
    19  H   -0.490568   0.663826
    20  H    0.054693   0.061312
    21  H    0.132212  -0.020184
    22  H    0.077665   0.028293
    23  H    0.193269  -0.007691
    24  H    0.248374   0.014596
    25  H   -0.056121   0.247905
    26  H   -0.077909   0.239087
    27  H   -0.408414   0.570854
 Sum of Mulliken charges =  -1.00000   1.00000

 Dipole moment (field-independent basis, Debye):
    X=              4.1628    Y=              2.0864    Z=              1.0554  Tot=              4.7745
 Quadrupole moment (field-independent basis, Debye-Ang):
   XX=           -167.3018   YY=           -139.4632   ZZ=           -124.4460
   XY=              0.8871   XZ=             -6.3702   YZ=             -4.8536

 Summary of Natural Population Analysis:

                                       Natural Population
                Natural  -----------------------------------------------
    Atom  No    Charge         Core      Valence    Rydberg      Total
 -----------------------------------------------------------------------
      C    1   -0.30199      0.99966     2.29718    0.00515     3.30199
      C    2   -0.01036      0.99958     1.99853    0.01226     3.01036
      O    3   -0.27914      0.99986     3.26828    0.01101     4.27914
      C    4    0.16614      0.99934     1.82037    0.01416     2.83386
      C    5   -0.13524      0.99936     2.12376    0.01212     3.13524
      C    6    0.17500      0.99926     1.80963    0.01611     2.82500
      C    7   -0.12242      0.99936     2.11229    0.01078     3.12242
      C    8   -0.00728      0.99949     1.99919    0.00861     3.00728
      C    9   -0.15018      0.99948     2.14430    0.00640     3.15018
      C   10   -0.13722      0.99950     2.12843    0.00928     3.13722
      C   11   -0.12922      0.99954     2.11916    0.01052     3.12922
      S   12    0.18951      4.99948     2.78889    0.02212     7.81049
      O   13   -0.34398      0.99987     3.33789    0.00622     4.34398
      S   14    0.10018      4.99956     2.87828    0.02198     7.89982
      C   15   -0.33686      0.99962     2.33047    0.00678     3.33686
      H   16    0.10185      0.00000     0.39716    0.00100     0.39815
      H   17    0.09930      0.00000     0.39953    0.00117     0.40070
      H   18    0.10366      0.00000     0.39533    0.00101     0.39634
      H   19    0.09251      0.00000     0.40603    0.00146     0.40749
      H   20    0.08074      0.00000     0.41787    0.00139     0.41926
      H   21    0.09899      0.00000     0.39954    0.00147     0.40101
      H   22    0.09973      0.00000     0.39904    0.00123     0.40027
      H   23    0.09795      0.00000     0.40119    0.00085     0.40205
      H   24    0.23816      0.00000     0.25806    0.00378     0.26184
      H   25    0.10737      0.00000     0.39079    0.00185     0.39263
      H   26    0.09948      0.00000     0.39885    0.00167     0.40052
      H   27    0.10334      0.00000     0.39430    0.00236     0.39666
 =======================================================================
   * Total *    0.00000     22.99294    39.81432    0.19273    63.00000

 Normal termination of Gaussian 16 at Thu Dec 10 18:16:06 2020.
