 Gaussian 16, Revision A.03,

 -----------------------------------------------------------
 # opt freq B3LYP/6-31G(d) empiricaldispersion=gd3bj scf=xqc
 -----------------------------------------------------------

 ------------------------------
 CID_61638393_JID_7833_neutraal
 ------------------------------
 Symbolic Z-matrix:
 Charge =  0 Multiplicity = 1

 SCF Done:  E(RB3LYP) =  -768.597096145     A.U. after   14 cycles
 SCF Done:  E(RB3LYP) =  -768.600701403     A.U. after   12 cycles
 SCF Done:  E(RB3LYP) =  -768.600140174     A.U. after   11 cycles
 SCF Done:  E(RB3LYP) =  -768.601405063     A.U. after   11 cycles
 SCF Done:  E(RB3LYP) =  -768.602175132     A.U. after   12 cycles
 SCF Done:  E(RB3LYP) =  -768.602533989     A.U. after   11 cycles
 SCF Done:  E(RB3LYP) =  -768.602656223     A.U. after   11 cycles
 SCF Done:  E(RB3LYP) =  -768.602682522     A.U. after   10 cycles
 SCF Done:  E(RB3LYP) =  -768.602693228     A.U. after    9 cycles
 SCF Done:  E(RB3LYP) =  -768.602698288     A.U. after    9 cycles
 SCF Done:  E(RB3LYP) =  -768.602699324     A.U. after    8 cycles
 SCF Done:  E(RB3LYP) =  -768.602699684     A.U. after    7 cycles
 Optimization completed.
    -- Stationary point found.
 Normal termination of Gaussian 16 at Fri Dec 11 13:17:36 2020.

 --------------------------------------------------------------------
 #N Geom=AllCheck Guess=TCheck SCRF=Check GenChk RB3LYP/6-31G(d) Freq
 --------------------------------------------------------------------

 Structure from the checkpoint file:  "JID_7833.chk"
 ------------------------------
 CID_61638393_JID_7833_neutraal
 ------------------------------
 Charge =  0 Multiplicity = 1

 SCF Done:  E(RB3LYP) =  -768.602699684     A.U. after    1 cycles

  Exact polarizability: 149.629  -7.507 158.141   5.001   1.093 137.955
 Approx polarizability: 189.631 -10.899 232.340  12.203   5.012 223.494

                      1                      2                      3
                      A                      A                      A
 Frequencies --     37.9226                40.5436                43.7571
 Red. masses --      4.1965                 4.5185                 3.3798
 Frc consts  --      0.0036                 0.0044                 0.0038
 IR Inten    --      0.1631                 0.1200                 0.1866

                      4                      5                      6
                      A                      A                      A
 Frequencies --     68.2165                91.4919               112.7184
 Red. masses --      4.1035                 1.9146                 3.7053
 Frc consts  --      0.0113                 0.0094                 0.0277
 IR Inten    --      1.6543                 0.1284                 0.8350

                      7                      8                      9
                      A                      A                      A
 Frequencies --    137.1009               167.2560               211.5591
 Red. masses --      3.0511                 3.8353                 2.4629
 Frc consts  --      0.0338                 0.0632                 0.0649
 IR Inten    --      0.4474                 0.2278                 3.2038

                     10                     11                     12
                      A                      A                      A
 Frequencies --    226.4225               239.6084               246.7829
 Red. masses --      1.9206                 1.8817                 2.9664
 Frc consts  --      0.0580                 0.0637                 0.1064
 IR Inten    --      1.7632                 3.9710                 6.0349

                     13                     14                     15
                      A                      A                      A
 Frequencies --    271.9361               277.9230               282.3231
 Red. masses --      1.0578                 1.3097                 4.3311
 Frc consts  --      0.0461                 0.0596                 0.2034
 IR Inten    --     77.2991                23.6406                 2.0661

                     16                     17                     18
                      A                      A                      A
 Frequencies --    302.8905               323.1382               382.7948
 Red. masses --      3.1875                 3.4928                 2.3012
 Frc consts  --      0.1723                 0.2149                 0.1987
 IR Inten    --     13.5707                 4.2906                 4.5869

                     19                     20                     21
                      A                      A                      A
 Frequencies --    405.2830               413.7096               427.2255
 Red. masses --      2.1905                 2.4325                 2.3761
 Frc consts  --      0.2120                 0.2453                 0.2555
 IR Inten    --      1.8395                 4.0106                 3.4909

                     22                     23                     24
                      A                      A                      A
 Frequencies --    479.3030               510.1190               559.6190
 Red. masses --      3.4694                 3.6609                 3.1162
 Frc consts  --      0.4696                 0.5613                 0.5750
 IR Inten    --      9.0313                 6.8709                 6.8227

                     25                     26                     27
                      A                      A                      A
 Frequencies --    599.6447               615.4520               694.7134
 Red. masses --      4.3353                 3.5626                 2.7675
 Frc consts  --      0.9184                 0.7951                 0.7870
 IR Inten    --      2.2195                 7.8897                 2.2568

                     28                     29                     30
                      A                      A                      A
 Frequencies --    727.0856               746.4729               787.8187
 Red. masses --      1.9518                 1.6656                 2.7387
 Frc consts  --      0.6079                 0.5468                 1.0015
 IR Inten    --     14.0339                23.6153                 6.0995

                     31                     32                     33
                      A                      A                      A
 Frequencies --    798.1830               805.6806               814.1030
 Red. masses --      1.9712                 1.8744                 1.5088
 Frc consts  --      0.7399                 0.7169                 0.5892
 IR Inten    --     39.3415                 4.6041                18.3524

                     34                     35                     36
                      A                      A                      A
 Frequencies --    820.4527               840.0605               860.7128
 Red. masses --      1.6378                 2.5193                 1.2867
 Frc consts  --      0.6496                 1.0475                 0.5616
 IR Inten    --      1.0083                19.7797                 8.5684

                     37                     38                     39
                      A                      A                      A
 Frequencies --    878.1838               892.7925               910.3063
 Red. masses --      2.1549                 1.7102                 5.7711
 Frc consts  --      0.9791                 0.8031                 2.8176
 IR Inten    --     12.0300               150.1763                 5.8984

                     40                     41                     42
                      A                      A                      A
 Frequencies --    931.9492               948.4889               984.7789
 Red. masses --      2.2670                 2.5949                 2.3276
 Frc consts  --      1.1601                 1.3754                 1.3299
 IR Inten    --     49.1037                26.9527                25.7988

                     43                     44                     45
                      A                      A                      A
 Frequencies --    988.9943              1022.0049              1029.3094
 Red. masses --      2.7094                 2.3718                 1.4682
 Frc consts  --      1.5614                 1.4596                 0.9165
 IR Inten    --      6.7754                 4.2565                 0.9078

                     46                     47                     48
                      A                      A                      A
 Frequencies --   1045.1822              1058.7602              1063.3055
 Red. masses --      1.3817                 2.0626                 2.0273
 Frc consts  --      0.8893                 1.3622                 1.3505
 IR Inten    --     33.0310                13.1332                 1.9017

                     49                     50                     51
                      A                      A                      A
 Frequencies --   1068.4259              1089.3623              1114.4994
 Red. masses --      1.7581                 1.7663                 1.5073
 Frc consts  --      1.1824                 1.2350                 1.1031
 IR Inten    --      7.4230                10.6361                15.8104

                     52                     53                     54
                      A                      A                      A
 Frequencies --   1123.3083              1125.5644              1139.8475
 Red. masses --      2.9340                 2.6492                 1.9250
 Frc consts  --      2.1813                 1.9774                 1.4736
 IR Inten    --      6.3107                37.9128                97.2707

                     55                     56                     57
                      A                      A                      A
 Frequencies --   1145.4624              1153.0467              1183.9816
 Red. masses --      2.8501                 2.2825                 1.9399
 Frc consts  --      2.2033                 1.7880                 1.6022
 IR Inten    --     12.8737                 3.7125                14.5697

                     58                     59                     60
                      A                      A                      A
 Frequencies --   1203.5009              1223.6334              1249.7938
 Red. masses --      2.7003                 1.1389                 1.7704
 Frc consts  --      2.3044                 1.0047                 1.6293
 IR Inten    --     13.2290                 5.1346                 4.9879

                     61                     62                     63
                      A                      A                      A
 Frequencies --   1257.0112              1258.9887              1266.7503
 Red. masses --      1.3668                 1.5213                 1.7214
 Frc consts  --      1.2724                 1.4207                 1.6274
 IR Inten    --      6.9475                 7.0515                10.7441

                     64                     65                     66
                      A                      A                      A
 Frequencies --   1299.7014              1320.1428              1339.8390
 Red. masses --      1.2892                 1.4551                 1.2893
 Frc consts  --      1.2831                 1.4941                 1.3636
 IR Inten    --     14.9246                 4.7481                17.2394

                     67                     68                     69
                      A                      A                      A
 Frequencies --   1342.9249              1362.4341              1366.2999
 Red. masses --      1.4087                 1.4253                 1.3988
 Frc consts  --      1.4968                 1.5588                 1.5385
 IR Inten    --      1.7419                 7.5404                 0.0625

                     70                     71                     72
                      A                      A                      A
 Frequencies --   1382.6035              1385.4058              1396.5428
 Red. masses --      1.4574                 1.3999                 1.4477
 Frc consts  --      1.6414                 1.5831                 1.6635
 IR Inten    --      3.0810                 3.2855                 8.8959

                     73                     74                     75
                      A                      A                      A
 Frequencies --   1410.3916              1421.8535              1432.4157
 Red. masses --      1.4371                 1.5029                 1.4949
 Frc consts  --      1.6843                 1.7902                 1.8072
 IR Inten    --      1.1745                 2.8713                22.7396

                     76                     77                     78
                      A                      A                      A
 Frequencies --   1441.7314              1447.1203              1450.7444
 Red. masses --      1.3214                 1.2384                 1.5491
 Frc consts  --      1.6182                 1.5280                 1.9209
 IR Inten    --     34.1964                 2.9075                12.4354

                     79                     80                     81
                      A                      A                      A
 Frequencies --   1456.6525              1493.8532              1507.7472
 Red. masses --      1.4732                 1.1037                 1.0995
 Frc consts  --      1.8417                 1.4512                 1.4727
 IR Inten    --      2.4619                 3.4023                 9.5843

                     82                     83                     84
                      A                      A                      A
 Frequencies --   1521.4575              1532.1781              1535.7681
 Red. masses --      1.0614                 1.0770                 1.0804
 Frc consts  --      1.4476                 1.4896                 1.5014
 IR Inten    --      0.6992                 4.0989                 2.2836

                     85                     86                     87
                      A                      A                      A
 Frequencies --   1536.5451              1539.3823              1545.8142
 Red. masses --      1.1947                 3.1182                 1.0981
 Frc consts  --      1.6618                 4.3535                 1.5459
 IR Inten    --      3.7799                14.6628                10.6210

                     88                     89                     90
                      A                      A                      A
 Frequencies --   1629.2058              1704.6158              2910.9416
 Red. masses --      5.4077                 1.0901                 1.0736
 Frc consts  --      8.4569                 1.8662                 5.3601
 IR Inten    --      0.6592                17.3995                21.2505

                     91                     92                     93
                      A                      A                      A
 Frequencies --   2919.4228              3026.1984              3047.5909
 Red. masses --      1.0722                 1.0695                 1.0377
 Frc consts  --      5.3843                 5.7708                 5.6783
 IR Inten    --     90.8227                14.5738                15.8697

                     94                     95                     96
                      A                      A                      A
 Frequencies --   3054.5904              3057.1022              3057.3695
 Red. masses --      1.0612                 1.0757                 1.0686
 Frc consts  --      5.8337                 5.9235                 5.8852
 IR Inten    --     15.6453                 6.7658                47.4361

                     97                     98                     99
                      A                      A                      A
 Frequencies --   3076.6404              3085.3304              3088.9897
 Red. masses --      1.0834                 1.0854                 1.0857
 Frc consts  --      6.0422                 6.0875                 6.1038
 IR Inten    --      7.3173                60.0130                52.6659

                    100                    101                    102
                      A                      A                      A
 Frequencies --   3090.6452              3104.1028              3106.6637
 Red. masses --      1.0947                 1.1037                 1.1046
 Frc consts  --      6.1610                 6.2658                 6.2810
 IR Inten    --      1.5803                22.6772                33.9901

                    103                    104                    105
                      A                      A                      A
 Frequencies --   3115.4749              3116.3149              3117.6001
 Red. masses --      1.0984                 1.0901                 1.1000
 Frc consts  --      6.2813                 6.2374                 6.2991
 IR Inten    --     17.3339                54.8899                62.6313

                    106                    107                    108
                      A                      A                      A
 Frequencies --   3267.0806              3282.5768              3303.0168
 Red. masses --      1.0907                 1.0970                 1.1051
 Frc consts  --      6.8590                 6.9645                 7.1038
 IR Inten    --      5.9696                 2.7451                 1.1878

                    109                    110                    111
                      A                      A                      A
 Frequencies --   3478.7392              3569.6630              3739.9264
 Red. masses --      1.0499                 1.0906                 1.0655
 Frc consts  --      7.4859                 8.1879                 8.7805
 IR Inten    --      1.1835                 1.4821                 8.4216

 - Thermochemistry -
 -------------------
 Temperature   298.150 Kelvin.  Pressure   1.00000 Atm.
 Atom     1 has atomic number  6 and mass  12.00000

 Molecular mass:   238.16813 amu.
 Principal axes and moments of inertia in atomic units:
                           1         2         3
     Eigenvalues --  3077.822685151.640356439.86551
           X            0.99981   0.01941   0.00281
           Y           -0.01946   0.99960   0.02057
           Z           -0.00241  -0.02062   0.99978
 This molecule is an asymmetric top.
 Rotational symmetry number  1.
 Warning -- assumption of classical behavior for rotation
           may cause significant error
 Rotational temperatures (Kelvin)      0.02814     0.01681     0.01345
 Rotational constants (GHZ):           0.58637     0.35032     0.28025
 Zero-point vibrational energy     910038.8 (Joules/Mol)
                                  217.50450 (Kcal/Mol)
 Warning -- explicit consideration of  26 degrees of freedom as
           vibrations may cause significant error
 Vibrational temperatures:     54.56    58.33    62.96    98.15   131.64
          (Kelvin)            162.18   197.26   240.64   304.39   325.77
                              344.74   355.07   391.26   399.87   406.20
                              435.79   464.92   550.76   583.11   595.24
                              614.68   689.61   733.95   805.17   862.75
                              885.50   999.54  1046.11  1074.01  1133.50
                             1148.41  1159.19  1171.31  1180.45  1208.66
                             1238.37  1263.51  1284.53  1309.73  1340.87
                             1364.66  1416.88  1422.94  1470.44  1480.95
                             1503.78  1523.32  1529.86  1537.23  1567.35
                             1603.52  1616.19  1619.44  1639.99  1648.06
                             1658.98  1703.49  1731.57  1760.54  1798.17
                             1808.56  1811.40  1822.57  1869.98  1899.39
                             1927.73  1932.17  1960.24  1965.80  1989.26
                             1993.29  2009.31  2029.24  2045.73  2060.93
                             2074.33  2082.08  2087.30  2095.80  2149.32
                             2169.31  2189.04  2204.46  2209.63  2210.75
                             2214.83  2224.08  2344.06  2452.56  4188.20
                             4200.40  4354.02  4384.80  4394.87  4398.49
                             4398.87  4426.60  4439.10  4444.37  4446.75
                             4466.11  4469.80  4482.47  4483.68  4485.53
                             4700.60  4722.90  4752.30  5005.13  5135.95
                             5380.92

 Zero-point correction=                           0.346615 (Hartree/Particle)
 Thermal correction to Energy=                    0.363698
 Thermal correction to Enthalpy=                  0.364642
 Thermal correction to Gibbs Free Energy=         0.301332
 Sum of electronic and zero-point Energies=           -768.256084
 Sum of electronic and thermal Energies=              -768.239001
 Sum of electronic and thermal Enthalpies=            -768.238057
 Sum of electronic and thermal Free Energies=         -768.301368

                     E (Thermal)             CV                S
                      KCal/Mol        Cal/Mol-Kelvin    Cal/Mol-Kelvin
 Total                  228.224             66.054            133.249
 Electronic               0.000              0.000              0.000
 Translational            0.889              2.981             42.305
 Rotational               0.889              2.981             32.990
 Vibrational            226.447             60.092             57.954
 Vibration     1          0.594              1.982              5.365
 Vibration     2          0.594              1.981              5.232
 Vibration     3          0.595              1.980              5.081
 Vibration     4          0.598              1.969              4.204
 Vibration     5          0.602              1.955              3.628
 Vibration     6          0.607              1.939              3.222
 Vibration     7          0.614              1.916              2.844
 Vibration     8          0.624              1.883              2.466
 Vibration     9          0.643              1.823              2.030
 Vibration    10          0.650              1.801              1.907
 Vibration    11          0.657              1.780              1.806
 Vibration    12          0.661              1.768              1.753
 Vibration    13          0.675              1.725              1.584
 Vibration    14          0.679              1.714              1.546
 Vibration    15          0.681              1.706              1.520
 Vibration    16          0.694              1.668              1.401
 Vibration    17          0.708              1.629              1.294
 Vibration    18          0.752              1.507              1.028
 Vibration    19          0.770              1.459              0.943
 Vibration    20          0.777              1.440              0.914
 Vibration    21          0.789              1.411              0.868
 Vibration    22          0.836              1.296              0.712
 Vibration    23          0.865              1.228              0.633
 Vibration    24          0.915              1.119              0.525
 Vibration    25          0.958              1.033              0.450
 Vibration    26          0.975              0.999              0.424

                           ! Non-Optimized Parameters !
 Normal termination of Gaussian 16 at Fri Dec 11 13:34:01 2020.

 ----------------------------------------------------------------------
 # B3LYP/6-311++G(d,p) empiricaldispersion=gd3bj scf=xqc pop=npa geom=c
 heck
 ----------------------------------------------------------------------

 --------------------------------------
 CID_61638393_JID_7833_Energie_neutraal
 --------------------------------------
 Structure from the checkpoint file:  "JID_7833.chk"
 Charge =  0 Multiplicity = 1

 SCF Done:  E(RB3LYP) =  -768.831597972     A.U. after   15 cycles
 Normal termination of Gaussian 16 at Fri Dec 11 13:42:27 2020.

 ----------------------------------------------------------------------
 # B3LYP/6-311++G(d,p) empiricaldispersion=gd3bj scf=xqc pop=npa geom=c
 heck
 ----------------------------------------------------------------------

 ------------------------------------
 CID_61638393_JID_7833_Energie_kation
 ------------------------------------
 Structure from the checkpoint file:  "JID_7833.chk"
 Charge =  1 Multiplicity = 2

 SCF Done:  E(UB3LYP) =  -768.541249920     A.U. after   26 cycles
 Normal termination of Gaussian 16 at Fri Dec 11 14:03:04 2020.
 Gaussian 16:  ES64L-G16RevA.03 25-Dec-2016

 ----------------------------------------------------------------------
 # B3LYP/6-311++G(d,p) empiricaldispersion=gd3bj scf=xqc pop=npa geom=c
 heck
 ----------------------------------------------------------------------

 -----------------------------------
 CID_61638393_JID_7833_Energie_anion
 -----------------------------------
 Structure from the checkpoint file:  "JID_7833.chk"
 Charge = -1 Multiplicity = 2

                         Standard orientation:
 ---------------------------------------------------------------------
 Center     Atomic      Atomic             Coordinates (Angstroms)
 Number     Number       Type             X           Y           Z
 ---------------------------------------------------------------------
      1          6           0       -2.976486   -2.467909   -1.324509
      2          6           0       -3.000430   -1.639589   -0.038026
      3          6           0       -1.622902   -1.414457    0.610821
      4          6           0       -0.772201   -0.437237   -0.265469
      5          6           0       -1.077693    1.013730   -0.006228
      6          6           0       -0.964082    1.869126    1.057753
      7          6           0       -1.347154    3.172615    0.595419
      8          6           0       -1.668028    3.025932   -0.718074
      9          8           0       -1.507599    1.727136   -1.101764
     10          7           0        0.668323   -0.765089   -0.260329
     11          6           0        1.334590   -0.689441    1.038475
     12          6           0        2.771927   -1.211956    0.948873
     13          6           0        3.580863   -0.457413   -0.111951
     14          6           0        2.823408   -0.499762   -1.444158
     15          6           0        1.390058    0.006425   -1.276139
     16          8           0        3.869811    0.882246    0.295042
     17          7           0       -1.854724   -1.044880    2.011130
     18          1           0       -2.398429   -1.987719   -2.122212
     19          1           0       -3.992047   -2.618893   -1.706104
     20          1           0       -2.535584   -3.455632   -1.145256
     21          1           0       -3.465264   -0.661293   -0.231333
     22          1           0       -3.625215   -2.140487    0.708927
     23          1           0       -1.077932   -2.366785    0.610069
     24          1           0       -1.077318   -0.604183   -1.303276
     25          1           0       -0.642694    1.609383    2.055112
     26          1           0       -1.379253    4.087408    1.170264
     27          1           0       -2.014702    3.702456   -1.483894
     28          1           0        0.788919   -1.308917    1.753757
     29          1           0        1.339875    0.344243    1.440128
     30          1           0        2.741860   -2.276897    0.688185
     31          1           0        3.261583   -1.112715    1.923803
     32          1           0        4.564832   -0.923140   -0.227075
     33          1           0        3.349348    0.110433   -2.186699
     34          1           0        2.794190   -1.533334   -1.809701
     35          1           0        0.847275   -0.082674   -2.223182
     36          1           0        1.400938    1.088385   -1.032833
     37          1           0        3.028330    1.359252    0.366709
     38          1           0       -0.979399   -0.897598    2.506718
     39          1           0       -2.353425   -0.156953    2.045335
 ---------------------------------------------------------------------

 SCF Done:  E(UB3LYP) =  -768.818662887     A.U. after   33 cycles
 SCF Done:  E(UB3LYP) =  -768.818662887     a.u. after    1 cycles

 The electronic state is 2-A.
 Alpha  occ. eigenvalues --  -19.09702 -19.02949 -14.21893 -14.20013 -10.13256
 Alpha  occ. eigenvalues --  -10.12992 -10.12831 -10.11786 -10.11191 -10.10483
 Alpha  occ. eigenvalues --  -10.10272 -10.08031 -10.07989 -10.07819 -10.07632
 Alpha  occ. eigenvalues --  -10.07620 -10.07583  -1.01927  -0.93269  -0.84542
 Alpha  occ. eigenvalues --   -0.79758  -0.71113  -0.70781  -0.68390  -0.66979
 Alpha  occ. eigenvalues --   -0.66587  -0.61260  -0.56581  -0.54499  -0.53425
 Alpha  occ. eigenvalues --   -0.51004  -0.49555  -0.47111  -0.46373  -0.43938
 Alpha  occ. eigenvalues --   -0.41660  -0.40434  -0.39210  -0.38330  -0.37043
 Alpha  occ. eigenvalues --   -0.36750  -0.35850  -0.35408  -0.35059  -0.34554
 Alpha  occ. eigenvalues --   -0.33052  -0.31808  -0.31341  -0.30199  -0.29409
 Alpha  occ. eigenvalues --   -0.29221  -0.28594  -0.27998  -0.26969  -0.26705
 Alpha  occ. eigenvalues --   -0.26157  -0.25194  -0.24460  -0.24352  -0.22409
 Alpha  occ. eigenvalues --   -0.19268  -0.18269  -0.15580  -0.14269  -0.12993
 Alpha  occ. eigenvalues --    0.04128
 Alpha virt. eigenvalues --    0.06009   0.06282   0.06849   0.07889   0.08156
 Alpha virt. eigenvalues --    0.08484   0.08586   0.09023   0.09276   0.10192
 Alpha virt. eigenvalues --    0.10472   0.10950   0.11206   0.11802   0.11905

  Beta  occ. eigenvalues --  -19.09701 -19.02934 -14.21887 -14.19993 -10.13256
  Beta  occ. eigenvalues --  -10.12987 -10.12814 -10.11781 -10.11186 -10.10462
  Beta  occ. eigenvalues --  -10.10257 -10.08014 -10.07972 -10.07812 -10.07619
  Beta  occ. eigenvalues --  -10.07604 -10.07568  -1.01921  -0.93234  -0.84523
  Beta  occ. eigenvalues --   -0.79729  -0.71089  -0.70754  -0.68367  -0.66949
  Beta  occ. eigenvalues --   -0.66563  -0.61231  -0.56547  -0.54457  -0.53394
  Beta  occ. eigenvalues --   -0.50969  -0.49522  -0.47069  -0.46330  -0.43895
  Beta  occ. eigenvalues --   -0.41623  -0.40408  -0.39171  -0.38303  -0.37009
  Beta  occ. eigenvalues --   -0.36727  -0.35835  -0.35391  -0.35034  -0.34532
  Beta  occ. eigenvalues --   -0.33017  -0.31783  -0.31310  -0.30168  -0.29387
  Beta  occ. eigenvalues --   -0.29198  -0.28570  -0.27976  -0.26939  -0.26671
  Beta  occ. eigenvalues --   -0.26129  -0.25173  -0.24441  -0.24334  -0.22383
  Beta  occ. eigenvalues --   -0.19253  -0.18249  -0.15560  -0.14252  -0.12963
  Beta virt. eigenvalues --    0.06058   0.06745   0.06893   0.07497   0.08446
  Beta virt. eigenvalues --    0.08552   0.08669   0.08983   0.09149   0.09457
  Beta virt. eigenvalues --    0.10493   0.10797   0.11225   0.11340   0.11899

 Mulliken charges and spin densities:
               1          2
     1  C   -0.077015  -0.542378
     2  C   -0.444560   0.145253
     3  C    0.133456  -0.328171
     4  C    0.651568  -1.133359
     5  C    1.277122  -2.257487
     6  C   -3.251366   3.772860
     7  C    2.620168  -3.253242
     8  C   -0.903861   1.036648
     9  O    0.107015   0.036760
    10  N    0.366987   0.053025
    11  C   -0.293378   0.179045
    12  C    0.575170  -1.253392
    13  C   -0.525998   0.419857
    14  C    0.452746  -1.063474
    15  C   -0.169888   0.061866
    16  O   -0.167523  -0.007771
    17  N   -0.220074  -0.053871
    18  H   -0.275023   0.394035
    19  H   -0.014490   0.157910
    20  H    0.056484   0.069574
    21  H    0.119437   0.036381
    22  H    0.071253   0.108701
    23  H    0.180744   0.056693
    24  H    0.756427  -0.372548
    25  H   -0.828909   1.056308
    26  H   -0.672525   0.851827
    27  H   -0.961574   1.153544
    28  H   -0.097438   0.223182
    29  H    0.264740  -0.165211
    30  H   -0.013568   0.150953
    31  H   -0.150921   0.352094
    32  H   -0.017147   0.230672
    33  H   -0.002496   0.205725
    34  H   -0.043653   0.192943
    35  H   -0.226887   0.360885
    36  H    0.263751  -0.132152
    37  H    0.165127   0.075278
    38  H    0.084443   0.157872
    39  H    0.211657   0.023166
 Sum of Mulliken charges =  -1.00000   1.00000

 Dipole moment (field-independent basis, Debye):
    X=              0.0535    Y=             -4.3300    Z=             -1.2227  Tot=              4.4996
 Quadrupole moment (field-independent basis, Debye-Ang):
   XX=           -167.5299   YY=           -168.6580   ZZ=           -154.6167
   XY=              5.1957   XZ=             -1.6635   YZ=              0.0997

 Summary of Natural Population Analysis:

                                       Natural Population
                Natural  -----------------------------------------------
    Atom  No    Charge         Core      Valence    Rydberg      Total
 -----------------------------------------------------------------------
      C    1   -0.28436      0.99966     2.28051    0.00419     3.28436
      C    2   -0.19204      0.99961     2.18499    0.00744     3.19204
      C    3   -0.01217      0.99957     1.99948    0.01312     3.01217
      C    4   -0.03465      0.99950     2.01983    0.01532     3.03465
      C    5    0.14032      0.99944     1.84243    0.01782     2.85968
      C    6   -0.15370      0.99948     2.14397    0.01026     3.15370
      C    7   -0.14711      0.99956     2.13775    0.00980     3.14711
      C    8    0.06049      0.99950     1.92571    0.01431     2.93951
      O    9   -0.23790      0.99986     3.22914    0.00890     4.23790
      N   10   -0.27561      0.99971     2.76364    0.01226     3.77561
      C   11   -0.09253      0.99959     2.07996    0.01298     3.09253
      C   12   -0.20328      0.99960     2.19461    0.00907     3.20328
      C   13    0.06493      0.99955     1.92150    0.01402     2.93507
      C   14   -0.20498      0.99960     2.19632    0.00907     3.20498
      C   15   -0.09092      0.99961     2.07921    0.01210     3.09092
      O   16   -0.37303      0.99990     3.36656    0.00657     4.37303
      N   17   -0.42142      0.99977     2.91227    0.00938     3.92142
      H   18    0.09746      0.00000     0.40142    0.00112     0.40254
      H   19    0.09794      0.00000     0.40119    0.00087     0.40206
      H   20    0.09605      0.00000     0.40283    0.00112     0.40395
      H   21    0.09621      0.00000     0.40260    0.00120     0.40379
      H   22    0.10286      0.00000     0.39586    0.00128     0.39714
      H   23    0.09567      0.00000     0.40234    0.00199     0.40433
      H   24    0.10926      0.00000     0.38743    0.00331     0.39074
      H   25    0.11269      0.00000     0.38539    0.00192     0.38731
      H   26    0.11185      0.00000     0.38624    0.00190     0.38815
      H   27    0.09800      0.00000     0.40002    0.00198     0.40200
      H   28    0.09679      0.00000     0.40140    0.00181     0.40321
      H   29    0.08124      0.00000     0.41625    0.00251     0.41876
      H   30    0.10105      0.00000     0.39751    0.00143     0.39895
      H   31    0.10471      0.00000     0.39424    0.00106     0.39529
      H   32    0.08858      0.00000     0.41029    0.00113     0.41142
      H   33    0.10383      0.00000     0.39520    0.00097     0.39617
      H   34    0.10185      0.00000     0.39670    0.00145     0.39815
      H   35    0.10275      0.00000     0.39588    0.00138     0.39725
      H   36    0.08010      0.00000     0.41762    0.00228     0.41990
      H   37    0.22801      0.00000     0.26874    0.00326     0.27199
      H   38    0.17508      0.00000     0.32254    0.00238     0.32492
      H   39    0.17601      0.00000     0.32156    0.00243     0.32399
 =======================================================================
   * Total *   -0.00000     16.99352    47.78113    0.22535    65.00000

 Normal termination of Gaussian 16 at Fri Dec 11 14:29:43 2020.
