 Gaussian 16, Revision A.03,

 -----------------------------------------------------------
 # opt freq B3LYP/6-31G(d) empiricaldispersion=gd3bj scf=xqc
 -----------------------------------------------------------

 ------------------------------
 CID_10511334_JID_2569_neutraal
 ------------------------------
 Symbolic Z-matrix:
 Charge =  0 Multiplicity = 1

 SCF Done:  E(RB3LYP) =  -591.934409359     A.U. after   15 cycles
 SCF Done:  E(RB3LYP) =  -591.941042242     A.U. after   13 cycles
 SCF Done:  E(RB3LYP) =  -591.941441424     A.U. after   13 cycles
 SCF Done:  E(RB3LYP) =  -591.942145441     A.U. after   12 cycles
 SCF Done:  E(RB3LYP) =  -591.942202400     A.U. after   12 cycles
 SCF Done:  E(RB3LYP) =  -591.942347861     A.U. after   11 cycles
 SCF Done:  E(RB3LYP) =  -591.942370553     A.U. after    9 cycles
 SCF Done:  E(RB3LYP) =  -591.942373645     A.U. after    9 cycles
 SCF Done:  E(RB3LYP) =  -591.942375565     A.U. after    8 cycles
 SCF Done:  E(RB3LYP) =  -591.942376219     A.U. after    8 cycles
 SCF Done:  E(RB3LYP) =  -591.942376407     A.U. after    8 cycles
 SCF Done:  E(RB3LYP) =  -591.942376458     A.U. after    7 cycles
 Optimization completed.
    -- Stationary point found.
 Normal termination of Gaussian 16 at Wed Dec  9 17:35:25 2020.

 --------------------------------------------------------------------
 #N Geom=AllCheck Guess=TCheck SCRF=Check GenChk RB3LYP/6-31G(d) Freq
 --------------------------------------------------------------------

 Structure from the checkpoint file:  "JID_2569.chk"
 ------------------------------
 CID_10511334_JID_2569_neutraal
 ------------------------------
 Charge =  0 Multiplicity = 1

 SCF Done:  E(RB3LYP) =  -591.942376458     A.U. after    1 cycles

  Exact polarizability: 129.016   9.870  96.427   0.217  -6.455  67.178
 Approx polarizability: 164.643  26.970 158.641  -2.281 -14.792 104.374

                      1                      2                      3
                      A                      A                      A
 Frequencies --     40.9238                60.1209                64.7793
 Red. masses --      3.6235                 3.9226                 2.7867
 Frc consts  --      0.0036                 0.0084                 0.0069
 IR Inten    --      2.3132                 2.2767                 3.1290

                      4                      5                      6
                      A                      A                      A
 Frequencies --    109.7945               162.8629               174.5390
 Red. masses --      4.5028                 2.7878                 2.0657
 Frc consts  --      0.0320                 0.0436                 0.0371
 IR Inten    --      2.4465                 1.5547                 0.7292

                      7                      8                      9
                      A                      A                      A
 Frequencies --    191.8086               222.0046               226.9512
 Red. masses --      3.2204                 4.2348                 1.7068
 Frc consts  --      0.0698                 0.1230                 0.0518
 IR Inten    --      3.7080                 9.9665                 0.2054

                     10                     11                     12
                      A                      A                      A
 Frequencies --    271.4993               333.7011               370.0261
 Red. masses --      2.9725                 2.6624                 3.0650
 Frc consts  --      0.1291                 0.1747                 0.2473
 IR Inten    --      4.0512                 0.0822                 4.0511

                     13                     14                     15
                      A                      A                      A
 Frequencies --    412.2536               533.4463               623.8293
 Red. masses --      6.3303                 5.6578                 4.2747
 Frc consts  --      0.6339                 0.9486                 0.9801
 IR Inten    --      0.1827                 1.0301                24.3204

                     16                     17                     18
                      A                      A                      A
 Frequencies --    651.6409               697.0336               716.3728
 Red. masses --      6.2611                 3.2772                 3.9297
 Frc consts  --      1.5665                 0.9381                 1.1882
 IR Inten    --      7.6749                 6.1431                33.1887

                     19                     20                     21
                      A                      A                      A
 Frequencies --    758.2057               766.0583               809.0357
 Red. masses --      9.4092                 3.7795                 1.3441
 Frc consts  --      3.1870                 1.3068                 0.5183
 IR Inten    --     24.1526                 3.4738                 0.3405

                     22                     23                     24
                      A                      A                      A
 Frequencies --    872.7960               898.5703               929.4210
 Red. masses --      2.1859                 1.6893                 1.7989
 Frc consts  --      0.9811                 0.8036                 0.9155
 IR Inten    --     22.7114                 4.0102                 6.6060

                     25                     26                     27
                      A                      A                      A
 Frequencies --    989.4360              1004.8786              1025.8877
 Red. masses --      2.3804                 1.1563                 2.2238
 Frc consts  --      1.3730                 0.6880                 1.3789
 IR Inten    --     10.1372                36.8366                27.6609

                     28                     29                     30
                      A                      A                      A
 Frequencies --   1058.8579              1087.5033              1102.3245
 Red. masses --      3.4680                 5.8759                 1.7367
 Frc consts  --      2.2909                 4.0943                 1.2434
 IR Inten    --     45.5330                68.5831                23.4637

                     31                     32                     33
                      A                      A                      A
 Frequencies --   1141.4052              1153.2786              1178.3938
 Red. masses --      2.7747                 1.8796                 2.4589
 Frc consts  --      2.1298                 1.4730                 2.0118
 IR Inten    --     18.3094                 0.4630                82.9278

                     34                     35                     36
                      A                      A                      A
 Frequencies --   1215.6516              1244.3266              1271.0191
 Red. masses --      2.9074                 1.2244                 1.3172
 Frc consts  --      2.5315                 1.1170                 1.2537
 IR Inten    --    225.0102                19.0853                23.3112

                     37                     38                     39
                      A                      A                      A
 Frequencies --   1278.5688              1326.7323              1342.6961
 Red. masses --      1.3046                 1.3229                 3.8104
 Frc consts  --      1.2566                 1.3720                 4.0474
 IR Inten    --      1.1918                40.2574               257.3250

                     40                     41                     42
                      A                      A                      A
 Frequencies --   1347.3006              1378.5669              1398.3654
 Red. masses --      1.4368                 1.4321                 1.6225
 Frc consts  --      1.5367                 1.6036                 1.8693
 IR Inten    --     90.8551                19.2396                26.0495

                     43                     44                     45
                      A                      A                      A
 Frequencies --   1419.4823              1438.7497              1510.8852
 Red. masses --      1.5254                 1.2145                 1.0729
 Frc consts  --      1.8109                 1.4812                 1.4431
 IR Inten    --     68.6263                 0.3284                 4.5638

                     46                     47                     48
                      A                      A                      A
 Frequencies --   1525.1710              1534.4450              1543.2138
 Red. masses --      1.0399                 1.0724                 1.0895
 Frc consts  --      1.4252                 1.4877                 1.5287
 IR Inten    --      5.8556                 6.4734                11.0739

                     49                     50                     51
                      A                      A                      A
 Frequencies --   1553.4370              1721.8292              1764.6107
 Red. masses --      1.0961                 6.6668                 9.8566
 Frc consts  --      1.5584                11.6451                18.0832
 IR Inten    --      2.0346                24.0191               293.7370

                     52                     53                     54
                      A                      A                      A
 Frequencies --   1886.3616              3028.9098              3057.3545
 Red. masses --     12.7914                 1.0649                 1.0349
 Frc consts  --     26.8175                 5.7561                 5.6996
 IR Inten    --    427.1932                27.3863                28.9426

                     55                     56                     57
                      A                      A                      A
 Frequencies --   3073.9385              3081.6211              3082.0785
 Red. masses --      1.0696                 1.0646                 1.0974
 Frc consts  --      5.9547                 5.9565                 6.1419
 IR Inten    --     36.8842                19.2530                13.0548

                     58                     59                     60
                      A                      A                      A
 Frequencies --   3126.2058              3136.9627              3146.3910
 Red. masses --      1.1029                 1.1034                 1.0985
 Frc consts  --      6.3505                 6.3971                 6.4075
 IR Inten    --     36.7494                25.9291                12.0124

                     61                     62                     63
                      A                      A                      A
 Frequencies --   3157.0550              3194.1956              3202.2640
 Red. masses --      1.1046                 1.0930                 1.0862
 Frc consts  --      6.4867                 6.5704                 6.5624
 IR Inten    --     23.3419                 0.9076                14.1902

 - Thermochemistry -
 -------------------
 Temperature   298.150 Kelvin.  Pressure   1.00000 Atm.
 Atom     1 has atomic number  6 and mass  12.00000

 Molecular mass:   169.07389 amu.
 Principal axes and moments of inertia in atomic units:
                           1         2         3
     Eigenvalues --  1145.648562960.562873877.30820
           X            0.99984   0.01730   0.00406
           Y           -0.01727   0.99982  -0.00794
           Z           -0.00419   0.00787   0.99996
 This molecule is an asymmetric top.
 Rotational symmetry number  1.
 Warning -- assumption of classical behavior for rotation
           may cause significant error
 Rotational temperatures (Kelvin)      0.07560     0.02926     0.02234
 Rotational constants (GHZ):           1.57530     0.60959     0.46546
 Zero-point vibrational energy     494225.4 (Joules/Mol)
                                  118.12270 (Kcal/Mol)
 Warning -- explicit consideration of  14 degrees of freedom as
           vibrations may cause significant error
 Vibrational temperatures:     58.88    86.50    93.20   157.97   234.32
          (Kelvin)            251.12   275.97   319.42   326.53   390.63
                              480.12   532.38   593.14   767.51   897.55
                              937.57  1002.88  1030.70  1090.89  1102.19
                             1164.02  1255.76  1292.84  1337.23  1423.58
                             1445.80  1476.02  1523.46  1564.67  1586.00
                             1642.23  1659.31  1695.45  1749.05  1790.31
                             1828.71  1839.58  1908.87  1931.84  1938.47
                             1983.45  2011.94  2042.32  2070.04  2173.83
                             2194.38  2207.72  2220.34  2235.05  2477.33
                             2538.88  2714.05  4357.93  4398.85  4422.71
                             4433.77  4434.42  4497.91  4513.39  4526.95
                             4542.30  4595.73  4607.34

 Zero-point correction=                           0.188241 (Hartree/Particle)
 Thermal correction to Energy=                    0.200084
 Thermal correction to Enthalpy=                  0.201028
 Thermal correction to Gibbs Free Energy=         0.149105
 Sum of electronic and zero-point Energies=           -591.754136
 Sum of electronic and thermal Energies=              -591.742292
 Sum of electronic and thermal Enthalpies=            -591.741348
 Sum of electronic and thermal Free Energies=         -591.793272

                     E (Thermal)             CV                S
                      KCal/Mol        Cal/Mol-Kelvin    Cal/Mol-Kelvin
 Total                  125.555             42.255            109.282
 Electronic               0.000              0.000              0.000
 Translational            0.889              2.981             41.283
 Rotational               0.889              2.981             30.954
 Vibrational            123.777             36.294             37.045
 Vibration     1          0.594              1.981              5.214
 Vibration     2          0.597              1.973              4.453
 Vibration     3          0.597              1.971              4.306
 Vibration     4          0.606              1.941              3.273
 Vibration     5          0.623              1.888              2.516
 Vibration     6          0.627              1.874              2.386
 Vibration     7          0.634              1.851              2.210
 Vibration     8          0.648              1.808              1.943
 Vibration     9          0.651              1.800              1.903
 Vibration    10          0.675              1.726              1.587
 Vibration    11          0.715              1.608              1.242
 Vibration    12          0.742              1.534              1.080
 Vibration    13          0.776              1.444              0.919
 Vibration    14          0.888              1.176              0.580

 Optimization completed.
    -- Stationary point found.
 Normal termination of Gaussian 16 at Wed Dec  9 17:40:24 2020.

 ----------------------------------------------------------------------
 # B3LYP/6-311++G(d,p) empiricaldispersion=gd3bj scf=xqc pop=npa geom=c
 heck
 ----------------------------------------------------------------------

 --------------------------------------
 CID_10511334_JID_2569_Energie_neutraal
 --------------------------------------
 Structure from the checkpoint file:  "JID_2569.chk"
 Charge =  0 Multiplicity = 1

 SCF Done:  E(RB3LYP) =  -592.114202072     A.U. after   15 cycles
 Normal termination of Gaussian 16 at Wed Dec  9 17:43:04 2020.

 ----------------------------------------------------------------------
 # B3LYP/6-311++G(d,p) empiricaldispersion=gd3bj scf=xqc pop=npa geom=c
 heck
 ----------------------------------------------------------------------

 ------------------------------------
 CID_10511334_JID_2569_Energie_kation
 ------------------------------------
 Structure from the checkpoint file:  "JID_2569.chk"
 Charge =  1 Multiplicity = 2

 SCF Done:  E(UB3LYP) =  -591.769903421     A.U. after   33 cycles
 SCF Done:  E(UB3LYP) =  -591.769903421     a.u. after    2 cycles
 Normal termination of Gaussian 16 at Wed Dec  9 17:53:12 2020.
 Gaussian 16:  ES64L-G16RevA.03 25-Dec-2016

 ----------------------------------------------------------------------
 # B3LYP/6-311++G(d,p) empiricaldispersion=gd3bj scf=xqc pop=npa geom=c
 heck
 ----------------------------------------------------------------------

 -----------------------------------
 CID_10511334_JID_2569_Energie_anion
 -----------------------------------
 Structure from the checkpoint file:  "JID_2569.chk"
 Charge = -1 Multiplicity = 2

                         Standard orientation:
 ---------------------------------------------------------------------
 Center     Atomic      Atomic             Coordinates (Angstroms)
 Number     Number       Type             X           Y           Z
 ---------------------------------------------------------------------
      1          6           0       -3.828619   -1.147703   -0.097456
      2          6           0       -3.374988    0.198265    0.496119
      3          6           0       -1.883311    0.318000    0.480419
      4          6           0       -1.201118    1.241921   -0.206896
      5          6           0        0.259770    1.417239   -0.199232
      6          8           0        0.778200    2.510591   -0.376217
      7          7           0        1.109120    0.321186    0.085479
      8          6           0        2.535848    0.607626    0.250542
      9          6           0        3.071353   -0.796230    0.527543
     10          8           0        2.121629   -1.670699   -0.108569
     11          6           0        0.934780   -1.025852   -0.287311
     12          8           0       -0.049551   -1.577418   -0.703763
     13          1           0       -3.506279   -1.238375   -1.139162
     14          1           0       -4.919324   -1.238827   -0.059273
     15          1           0       -3.395313   -1.987857    0.455941
     16          1           0       -3.825387    1.029136   -0.059519
     17          1           0       -3.734599    0.271696    1.532685
     18          1           0       -1.343327   -0.434957    1.048055
     19          1           0       -1.717875    2.029618   -0.748976
     20          1           0        2.946554    1.047388   -0.664533
     21          1           0        2.700374    1.307993    1.070826
     22          1           0        4.053685   -0.986659    0.093324
     23          1           0        3.093142   -1.026851    1.598307
 ---------------------------------------------------------------------

 SCF Done:  E(UB3LYP) =  -592.114726737     A.U. after   33 cycles
 SCF Done:  E(UB3LYP) =  -592.114726737     a.u. after    1 cycles

 The electronic state is 2-A.
 Alpha  occ. eigenvalues --  -19.05010 -18.97775 -18.93983 -14.22933 -10.19679
 Alpha  occ. eigenvalues --  -10.12773 -10.11507 -10.10169 -10.05026 -10.04402
 Alpha  occ. eigenvalues --  -10.02315 -10.01983  -1.00076  -0.90888  -0.89857
 Alpha  occ. eigenvalues --   -0.80400  -0.67601  -0.65360  -0.61270  -0.55246
 Alpha  occ. eigenvalues --   -0.52169  -0.50662  -0.44556  -0.42276  -0.40896
 Alpha  occ. eigenvalues --   -0.37462  -0.36556  -0.32909  -0.32476  -0.31432
 Alpha  occ. eigenvalues --   -0.31322  -0.30912  -0.29554  -0.28127  -0.26088
 Alpha  occ. eigenvalues --   -0.25797  -0.25318  -0.23925  -0.22666  -0.21609
 Alpha  occ. eigenvalues --   -0.18563  -0.17082  -0.14600  -0.12400  -0.11790
 Alpha  occ. eigenvalues --    0.04796
 Alpha virt. eigenvalues --    0.06662   0.08021   0.09100   0.10248   0.10526
 Alpha virt. eigenvalues --    0.10950   0.11339   0.12669   0.13689   0.13960
 Alpha virt. eigenvalues --    0.14406   0.14740   0.15566   0.17050   0.17227

  Beta  occ. eigenvalues --  -19.04992 -18.97746 -18.93586 -14.22983 -10.19576
  Beta  occ. eigenvalues --  -10.12741 -10.11199 -10.10161 -10.05055 -10.04348
  Beta  occ. eigenvalues --  -10.02019 -10.01905  -0.99997  -0.90823  -0.89245
  Beta  occ. eigenvalues --   -0.80245  -0.67219  -0.65261  -0.60982  -0.54994
  Beta  occ. eigenvalues --   -0.51932  -0.50523  -0.44086  -0.42112  -0.40769
  Beta  occ. eigenvalues --   -0.37289  -0.36406  -0.32826  -0.32169  -0.31294
  Beta  occ. eigenvalues --   -0.31200  -0.30651  -0.29416  -0.27722  -0.25616
  Beta  occ. eigenvalues --   -0.25519  -0.25180  -0.22943  -0.22540  -0.21364
  Beta  occ. eigenvalues --   -0.18406  -0.16922  -0.14143  -0.11904  -0.10493
  Beta virt. eigenvalues --    0.07441   0.07904   0.09664   0.10238   0.10622
  Beta virt. eigenvalues --    0.10810   0.10941   0.11502   0.12757   0.13797
  Beta virt. eigenvalues --    0.13932   0.14278   0.15160   0.15918   0.16893

 Mulliken charges and spin densities:
               1          2
     1  C   -0.187322  -0.402059
     2  C   -0.512165   0.181011
     3  C    0.575416   0.148333
     4  C   -0.305216  -0.077422
     5  C   -0.329086   0.331590
     6  O   -0.397646   0.137731
     7  N   -0.109872   0.046401
     8  C   -0.041247  -0.064519
     9  C    0.491162  -0.852740
    10  O   -0.164488   0.041897
    11  C    0.215075  -0.004751
    12  O   -0.346517   0.012729
    13  H    0.143707   0.000060
    14  H   -0.206630   0.324326
    15  H    0.092617   0.035889
    16  H    0.087244   0.039527
    17  H    0.070647   0.047318
    18  H    0.159563  -0.011361
    19  H    0.139222   0.000562
    20  H    0.167522   0.015066
    21  H   -0.005547   0.183575
    22  H   -0.342726   0.518102
    23  H   -0.193712   0.348735
 Sum of Mulliken charges =  -1.00000   1.00000

 Dipole moment (field-independent basis, Debye):
    X=              0.3357    Y=             -0.5983    Z=              0.6822  Tot=              0.9675
 Quadrupole moment (field-independent basis, Debye-Ang):
   XX=           -118.6008   YY=           -105.4051   ZZ=            -84.4910
   XY=             -2.0950   XZ=             -0.6951   YZ=             -1.0754

 Summary of Natural Population Analysis:

                                       Natural Population
                Natural  -----------------------------------------------
    Atom  No    Charge         Core      Valence    Rydberg      Total
 -----------------------------------------------------------------------
      C    1   -0.27750      0.99966     2.27271    0.00513     3.27750
      C    2   -0.21016      0.99963     2.20101    0.00952     3.21016
      C    3    0.02279      0.99954     1.96838    0.00929     2.97721
      C    4   -0.16308      0.99948     2.15364    0.00996     3.16308
      C    5    0.37177      0.99964     1.60534    0.02324     2.62823
      O    6   -0.27912      0.99988     3.27421    0.00504     4.27912
      N    7   -0.28581      0.99962     2.77786    0.00834     3.78581
      C    8   -0.09445      0.99964     2.08299    0.01182     3.09445
      C    9   -0.01538      0.99960     2.00357    0.01221     3.01538
      O   10   -0.28079      0.99987     3.27336    0.00757     4.28079
      C   11    0.47821      0.99970     1.49463    0.02746     2.52179
      O   12   -0.30198      0.99986     3.29638    0.00575     4.30198
      H   13    0.09940      0.00000     0.39979    0.00081     0.40060
      H   14    0.09102      0.00000     0.40736    0.00162     0.40898
      H   15    0.09610      0.00000     0.40310    0.00081     0.40390
      H   16    0.09175      0.00000     0.40686    0.00139     0.40825
      H   17    0.09596      0.00000     0.40277    0.00128     0.40404
      H   18    0.08688      0.00000     0.41172    0.00140     0.41312
      H   19    0.09488      0.00000     0.40419    0.00094     0.40512
      H   20    0.09731      0.00000     0.40152    0.00117     0.40269
      H   21    0.10449      0.00000     0.39434    0.00117     0.39551
      H   22    0.09195      0.00000     0.40618    0.00187     0.40805
      H   23    0.08578      0.00000     0.41242    0.00180     0.41422
 =======================================================================
   * Total *   -0.00000     11.99614    32.85430    0.14956    45.00000

 Normal termination of Gaussian 16 at Wed Dec  9 17:59:39 2020.
