 Gaussian 16, Revision A.03,

 -----------------------------------------------------------
 # opt freq B3LYP/6-31G(d) empiricaldispersion=gd3bj scf=xqc
 -----------------------------------------------------------

 -------------------------------
 CID_115311882_JID_4621_neutraal
 -------------------------------
 Symbolic Z-matrix:
 Charge =  0 Multiplicity = 1

 SCF Done:  E(RB3LYP) =  -940.153204895     A.U. after   13 cycles
 SCF Done:  E(RB3LYP) =  -940.158178640     A.U. after   11 cycles
 SCF Done:  E(RB3LYP) =  -940.158935873     A.U. after   11 cycles
 SCF Done:  E(RB3LYP) =  -940.160125504     A.U. after   11 cycles
 SCF Done:  E(RB3LYP) =  -940.161408548     A.U. after   11 cycles
 SCF Done:  E(RB3LYP) =  -940.161510817     A.U. after   11 cycles
 SCF Done:  E(RB3LYP) =  -940.162222058     A.U. after   11 cycles
 SCF Done:  E(RB3LYP) =  -940.162460486     A.U. after   11 cycles
 SCF Done:  E(RB3LYP) =  -940.162218762     A.U. after   11 cycles
 SCF Done:  E(RB3LYP) =  -940.162592124     A.U. after   11 cycles
 SCF Done:  E(RB3LYP) =  -940.163884231     A.U. after   10 cycles
 SCF Done:  E(RB3LYP) =  -940.163887872     A.U. after    8 cycles
 SCF Done:  E(RB3LYP) =  -940.163889258     A.U. after    8 cycles
 SCF Done:  E(RB3LYP) =  -940.163889794     A.U. after    7 cycles
 SCF Done:  E(RB3LYP) =  -940.163889904     A.U. after    6 cycles
 SCF Done:  E(RB3LYP) =  -940.163889964     A.U. after    6 cycles
 Optimization completed.
    -- Stationary point found.
 Normal termination of Gaussian 16 at Thu Dec 10 10:31:38 2020.

 --------------------------------------------------------------------
 #N Geom=AllCheck Guess=TCheck SCRF=Check GenChk RB3LYP/6-31G(d) Freq
 --------------------------------------------------------------------

 Structure from the checkpoint file:  "JID_4621.chk"
 -------------------------------
 CID_115311882_JID_4621_neutraal
 -------------------------------
 Charge =  0 Multiplicity = 1

 SCF Done:  E(RB3LYP) =  -940.163889964     A.U. after    1 cycles

  Exact polarizability: 170.556   1.001 133.425  -2.852   0.790 117.636
 Approx polarizability: 215.515   3.016 194.957  -3.471   2.507 187.213

                      1                      2                      3
                      A                      A                      A
 Frequencies --     50.8474                62.6262                74.7139
 Red. masses --      3.3209                 4.1988                 3.2352
 Frc consts  --      0.0051                 0.0097                 0.0106
 IR Inten    --      0.4871                 0.1907                 0.2640

                      4                      5                      6
                      A                      A                      A
 Frequencies --    133.6744               157.7506               163.7338
 Red. masses --      2.8468                 3.2339                 2.0825
 Frc consts  --      0.0300                 0.0474                 0.0329
 IR Inten    --      0.5807                 1.5227                 2.1157

                      7                      8                      9
                      A                      A                      A
 Frequencies --    181.6941               213.6208               233.5055
 Red. masses --      1.1754                 2.8444                 3.2380
 Frc consts  --      0.0229                 0.0765                 0.1040
 IR Inten    --     21.5715                 0.6482                 0.6825

                     10                     11                     12
                      A                      A                      A
 Frequencies --    273.5803               277.5837               307.5540
 Red. masses --      1.3995                 1.7640                 2.6046
 Frc consts  --      0.0617                 0.0801                 0.1452
 IR Inten    --     22.3033                 4.8816                 0.5913

                     13                     14                     15
                      A                      A                      A
 Frequencies --    342.8523               362.3088               365.7943
 Red. masses --      2.4552                 3.7574                 3.5352
 Frc consts  --      0.1700                 0.2906                 0.2787
 IR Inten    --      1.8178                 1.7322                 0.8737

                     16                     17                     18
                      A                      A                      A
 Frequencies --    403.9913               414.1788               455.2581
 Red. masses --      2.0270                 2.2846                 2.2534
 Frc consts  --      0.1949                 0.2309                 0.2752
 IR Inten    --      0.2839                 6.6879                 1.6172

                     19                     20                     21
                      A                      A                      A
 Frequencies --    504.9280               534.9741               541.8151
 Red. masses --      3.4147                 2.2935                 2.9725
 Frc consts  --      0.5129                 0.3867                 0.5141
 IR Inten    --      4.9554                 0.5835                 8.7147

                     22                     23                     24
                      A                      A                      A
 Frequencies --    580.0224               654.3067               718.8861
 Red. masses --      2.9554                 4.1724                 3.2057
 Frc consts  --      0.5858                 1.0524                 0.9761
 IR Inten    --      4.0774                 2.2922                 2.5573

                     25                     26                     27
                      A                      A                      A
 Frequencies --    734.6672               758.7207               783.7505
 Red. masses --      2.2378                 3.6613                 2.3293
 Frc consts  --      0.7116                 1.2418                 0.8430
 IR Inten    --      5.8588                 2.8925                13.9676

                     28                     29                     30
                      A                      A                      A
 Frequencies --    824.6787               839.7735               850.1229
 Red. masses --      2.1775                 1.6237                 1.9637
 Frc consts  --      0.8725                 0.6746                 0.8361
 IR Inten    --     11.2139                 1.7356                 5.3692

                     31                     32                     33
                      A                      A                      A
 Frequencies --    868.6075               895.7760               915.4748
 Red. masses --      1.6764                 1.9279                 2.1331
 Frc consts  --      0.7452                 0.9114                 1.0533
 IR Inten    --      6.5460               130.4419                40.5263

                     34                     35                     36
                      A                      A                      A
 Frequencies --    941.4472               955.6583               961.7539
 Red. masses --      2.1020                 1.9326                 1.7980
 Frc consts  --      1.0977                 1.0399                 0.9798
 IR Inten    --      4.2403                 2.7426                13.2930

                     37                     38                     39
                      A                      A                      A
 Frequencies --    989.9256              1003.3456              1033.9241
 Red. masses --      1.8768                 1.7648                 1.9514
 Frc consts  --      1.0836                 1.0468                 1.2291
 IR Inten    --      8.0637                 3.4009                18.0391

                     40                     41                     42
                      A                      A                      A
 Frequencies --   1050.2652              1054.9568              1072.9896
 Red. masses --      1.5562                 2.1190                 1.8203
 Frc consts  --      1.0114                 1.3895                 1.2348
 IR Inten    --      3.6510                 3.0360                 9.6773

                     43                     44                     45
                      A                      A                      A
 Frequencies --   1087.8660              1113.3913              1122.8953
 Red. masses --      1.8870                 1.9365                 2.3443
 Frc consts  --      1.3157                 1.4144                 1.7416
 IR Inten    --     20.9989                12.6424                 6.4304

                     46                     47                     48
                      A                      A                      A
 Frequencies --   1129.9874              1148.1859              1154.0842
 Red. masses --      1.7747                 1.0743                 1.4462
 Frc consts  --      1.3351                 0.8344                 1.1349
 IR Inten    --     58.2760                13.7490                12.2823

                     49                     50                     51
                      A                      A                      A
 Frequencies --   1180.3074              1215.8167              1237.2013
 Red. masses --      1.9687                 1.4641                 1.3912
 Frc consts  --      1.6160                 1.2752                 1.2547
 IR Inten    --      7.6813                 3.9634                28.9581

                     52                     53                     54
                      A                      A                      A
 Frequencies --   1239.6949              1246.3793              1277.0008
 Red. masses --      1.7844                 1.5992                 1.2657
 Frc consts  --      1.6158                 1.4637                 1.2161
 IR Inten    --     13.1456                24.6714                 1.0337

                     55                     56                     57
                      A                      A                      A
 Frequencies --   1290.9191              1312.5646              1315.7988
 Red. masses --      1.3570                 1.3790                 1.2974
 Frc consts  --      1.3323                 1.3998                 1.3234
 IR Inten    --      5.8206                 3.3752                 0.6088

                     58                     59                     60
                      A                      A                      A
 Frequencies --   1335.1498              1353.9490              1367.4479
 Red. masses --      1.2695                 1.4909                 1.3250
 Frc consts  --      1.3334                 1.6103                 1.4597
 IR Inten    --     12.3926                21.4109                 2.0867

                     61                     62                     63
                      A                      A                      A
 Frequencies --   1379.9979              1388.8117              1393.2948
 Red. masses --      1.3915                 1.3251                 1.3437
 Frc consts  --      1.5614                 1.5059                 1.5369
 IR Inten    --      1.1274                 7.5592                 2.0365

                     64                     65                     66
                      A                      A                      A
 Frequencies --   1400.6735              1404.7385              1409.9492
 Red. masses --      1.3820                 1.4747                 1.2794
 Frc consts  --      1.5974                 1.7145                 1.4985
 IR Inten    --      5.2057                 4.4571                10.8866

                     67                     68                     69
                      A                      A                      A
 Frequencies --   1431.4729              1434.7737              1442.0208
 Red. masses --      1.3446                 1.2672                 1.2972
 Frc consts  --      1.6234                 1.5370                 1.5893
 IR Inten    --     27.9077                 9.4134                 8.4819

                     70                     71                     72
                      A                      A                      A
 Frequencies --   1449.8487              1499.8579              1510.5855
 Red. masses --      1.4007                 1.0919                 1.0921
 Frc consts  --      1.7347                 1.4473                 1.4683
 IR Inten    --      3.9543                 2.5385                 8.7293

                     73                     74                     75
                      A                      A                      A
 Frequencies --   1511.9236              1513.0430              1519.5867
 Red. masses --      1.0758                 1.0835                 1.0873
 Frc consts  --      1.4489                 1.4615                 1.4792
 IR Inten    --      4.8767                 0.4434                 1.8914

                     76                     77                     78
                      A                      A                      A
 Frequencies --   1520.4339              1528.8173              1530.4937
 Red. masses --      1.0819                 1.0732                 1.0553
 Frc consts  --      1.4735                 1.4779                 1.4564
 IR Inten    --      2.9552                10.3793                 3.0537

                     79                     80                     81
                      A                      A                      A
 Frequencies --   1534.1458              1700.3774              3012.0851
 Red. masses --      1.0941                 1.0890                 1.0715
 Frc consts  --      1.5172                 1.8551                 5.7279
 IR Inten    --      6.3539                27.1251                50.6312

                     82                     83                     84
                      A                      A                      A
 Frequencies --   3026.7137              3039.0161              3044.2078
 Red. masses --      1.0687                 1.0758                 1.0613
 Frc consts  --      5.7681                 5.8540                 5.7946
 IR Inten    --     11.4037                56.1385                40.3885

                     85                     86                     87
                      A                      A                      A
 Frequencies --   3052.7848              3055.3974              3058.1566
 Red. masses --      1.0795                 1.0468                 1.0651
 Frc consts  --      5.9275                 5.7578                 5.8689
 IR Inten    --      7.2212                31.2846                 7.9601

                     88                     89                     90
                      A                      A                      A
 Frequencies --   3059.2977              3062.4381              3064.1528
 Red. masses --      1.0644                 1.0672                 1.0775
 Frc consts  --      5.8696                 5.8969                 5.9607
 IR Inten    --     20.8605                13.6952                28.0824

                     91                     92                     93
                      A                      A                      A
 Frequencies --   3068.5616              3075.4613              3081.0052
 Red. masses --      1.0835                 1.0832                 1.0956
 Frc consts  --      6.0110                 6.0367                 6.1274
 IR Inten    --     69.5210                15.8559                28.8766

                     94                     95                     96
                      A                      A                      A
 Frequencies --   3093.9259              3101.0242              3103.1317
 Red. masses --      1.0914                 1.1048                 1.1005
 Frc consts  --      6.1554                 6.2594                 6.2435
 IR Inten    --     26.3929                51.7130                72.1498

                     97                     98                     99
                      A                      A                      A
 Frequencies --   3119.4786              3122.6565              3133.6251
 Red. masses --      1.1046                 1.1008                 1.1010
 Frc consts  --      6.3331                 6.3240                 6.3701
 IR Inten    --     18.3612                34.8453                46.7830

                    100                    101                    102
                      A                      A                      A
 Frequencies --   3145.2564              3472.9874              3563.1202
 Red. masses --      1.0992                 1.0508                 1.0897
 Frc consts  --      6.4066                 7.4674                 8.1514
 IR Inten    --     10.3050                 2.2888                 0.7579

 - Thermochemistry -
 -------------------
 Temperature   298.150 Kelvin.  Pressure   1.00000 Atm.
 Atom     1 has atomic number  6 and mass  12.00000

 Molecular mass:   214.15037 amu.
 Principal axes and moments of inertia in atomic units:
                           1         2         3
     Eigenvalues --  1489.863615135.706395791.83369
           X            0.99991  -0.01218  -0.00487
           Y            0.01210   0.99978  -0.01706
           Z            0.00507   0.01700   0.99984
 This molecule is an asymmetric top.
 Rotational symmetry number  1.
 Warning -- assumption of classical behavior for rotation
           may cause significant error
 Rotational temperatures (Kelvin)      0.05814     0.01687     0.01495
 Rotational constants (GHZ):           1.21135     0.35141     0.31160
 Zero-point vibrational energy     865701.6 (Joules/Mol)
                                  206.90765 (Kcal/Mol)
 Warning -- explicit consideration of  22 degrees of freedom as
           vibrations may cause significant error
 Vibrational temperatures:     73.16    90.11   107.50   192.33   226.97
          (Kelvin)            235.58   261.42   307.35   335.96   393.62
                              399.38   442.50   493.29   521.28   526.30
                              581.25   595.91   655.01   726.48   769.71
                              779.55   834.52   941.40  1034.32  1057.02
                             1091.63  1127.64  1186.53  1208.25  1223.14
                             1249.73  1288.82  1317.16  1354.53  1374.98
                             1383.75  1424.28  1443.59  1487.59  1511.10
                             1517.85  1543.79  1565.20  1601.92  1615.60
                             1625.80  1651.98  1660.47  1698.20  1749.29
                             1780.06  1783.64  1793.26  1837.32  1857.34
                             1888.49  1893.14  1920.98  1948.03  1967.45
                             1985.51  1998.19  2004.64  2015.26  2021.11
                             2028.60  2059.57  2064.32  2074.75  2086.01
                             2157.96  2173.40  2175.32  2176.93  2186.35
                             2187.57  2199.63  2202.04  2207.29  2446.46
                             4333.72  4354.77  4372.47  4379.94  4392.28
                             4396.04  4400.01  4401.65  4406.17  4408.63
                             4414.98  4424.90  4432.88  4451.47  4461.68
                             4464.71  4488.23  4492.81  4508.59  4525.32
                             4996.85  5126.54

 Zero-point correction=                           0.329728 (Hartree/Particle)
 Thermal correction to Energy=                    0.344178
 Thermal correction to Enthalpy=                  0.345123
 Thermal correction to Gibbs Free Energy=         0.288843
 Sum of electronic and zero-point Energies=           -939.834162
 Sum of electronic and thermal Energies=              -939.819712
 Sum of electronic and thermal Enthalpies=            -939.818767
 Sum of electronic and thermal Free Energies=         -939.875047

                     E (Thermal)             CV                S
                      KCal/Mol        Cal/Mol-Kelvin    Cal/Mol-Kelvin
 Total                  215.975             57.407            118.451
 Electronic               0.000              0.000              0.000
 Translational            0.889              2.981             41.988
 Rotational               0.889              2.981             32.161
 Vibrational            214.198             51.445             44.303
 Vibration     1          0.595              1.977              4.784
 Vibration     2          0.597              1.972              4.373
 Vibration     3          0.599              1.966              4.025
 Vibration     4          0.613              1.920              2.892
 Vibration     5          0.621              1.894              2.577
 Vibration     6          0.623              1.887              2.506
 Vibration     7          0.630              1.865              2.311
 Vibration     8          0.644              1.820              2.013
 Vibration     9          0.654              1.790              1.852
 Vibration    10          0.676              1.722              1.573
 Vibration    11          0.679              1.715              1.549
 Vibration    12          0.697              1.659              1.375
 Vibration    13          0.722              1.590              1.199
 Vibration    14          0.736              1.550              1.112
 Vibration    15          0.739              1.543              1.097
 Vibration    16          0.769              1.462              0.948
 Vibration    17          0.778              1.439              0.912
 Vibration    18          0.814              1.349              0.780
 Vibration    19          0.860              1.239              0.646
 Vibration    20          0.890              1.173              0.576
 Vibration    21          0.897              1.158              0.561
 Vibration    22          0.937              1.075              0.485

                           ! Non-Optimized Parameters !
 Normal termination of Gaussian 16 at Thu Dec 10 10:43:23 2020.

 ----------------------------------------------------------------------
 # B3LYP/6-311++G(d,p) empiricaldispersion=gd3bj scf=xqc pop=npa geom=c
 heck
 ----------------------------------------------------------------------

 ---------------------------------------
 CID_115311882_JID_4621_Energie_neutraal
 ---------------------------------------
 Structure from the checkpoint file:  "JID_4621.chk"
 Charge =  0 Multiplicity = 1

 SCF Done:  E(RB3LYP) =  -940.344355539     A.U. after   14 cycles
 Normal termination of Gaussian 16 at Thu Dec 10 10:48:23 2020.

 ----------------------------------------------------------------------
 # B3LYP/6-311++G(d,p) empiricaldispersion=gd3bj scf=xqc pop=npa geom=c
 heck
 ----------------------------------------------------------------------

 -------------------------------------
 CID_115311882_JID_4621_Energie_kation
 -------------------------------------
 Structure from the checkpoint file:  "JID_4621.chk"
 Charge =  1 Multiplicity = 2

 SCF Done:  E(UB3LYP) =  -940.077865332     A.U. after   24 cycles
 Normal termination of Gaussian 16 at Thu Dec 10 11:02:34 2020.
 Gaussian 16:  ES64L-G16RevA.03 25-Dec-2016

 ----------------------------------------------------------------------
 # B3LYP/6-311++G(d,p) empiricaldispersion=gd3bj scf=xqc pop=npa geom=c
 heck
 ----------------------------------------------------------------------

 ------------------------------------
 CID_115311882_JID_4621_Energie_anion
 ------------------------------------
 Structure from the checkpoint file:  "JID_4621.chk"
 Charge = -1 Multiplicity = 2

                         Standard orientation:
 ---------------------------------------------------------------------
 Center     Atomic      Atomic             Coordinates (Angstroms)
 Number     Number       Type             X           Y           Z
 ---------------------------------------------------------------------
      1          6           0        2.143207    2.215426   -0.212917
      2          6           0        1.257567    1.008582   -0.563073
      3          6           0        2.002298   -0.118919   -1.320367
      4          6           0        2.853139   -1.059412   -0.436619
      5          6           0        2.018542   -1.530928    0.763451
      6          6           0        1.363984   -0.343700    1.487799
      7          7           0        0.557005    0.527493    0.637614
      8          6           0       -0.865672    0.215109    0.517550
      9          6           0       -1.679363    1.525541    0.387688
     10          6           0       -3.091419    1.350511   -0.200787
     11          6           0       -3.785080    0.085804    0.300481
     12         16           0       -2.967486   -1.435842   -0.352267
     13          6           0       -1.254711   -0.792488   -0.586224
     14          7           0        4.136871   -0.518842    0.038809
     15          1           0        2.882916    1.981298    0.557947
     16          1           0        1.520544    3.029532    0.170721
     17          1           0        2.685939    2.573831   -1.095292
     18          1           0        0.490074    1.384325   -1.248139
     19          1           0        1.253422   -0.733435   -1.836577
     20          1           0        2.633919    0.320198   -2.104788
     21          1           0        3.108208   -1.936696   -1.045175
     22          1           0        2.664365   -2.085348    1.453964
     23          1           0        1.240984   -2.220862    0.415389
     24          1           0        2.148820    0.264303    1.961895
     25          1           0        0.731739   -0.701169    2.306706
     26          1           0       -1.143733   -0.258289    1.465626
     27          1           0       -1.736253    1.980220    1.383355
     28          1           0       -1.125757    2.234908   -0.237357
     29          1           0       -3.045706    1.312413   -1.295922
     30          1           0       -3.701750    2.226344    0.053355
     31          1           0       -4.822175    0.040443   -0.043451
     32          1           0       -3.793293    0.057081    1.395637
     33          1           0       -1.156983   -0.348167   -1.582412
     34          1           0       -0.613195   -1.674436   -0.547708
     35          1           0        4.645213   -0.108800   -0.743754
     36          1           0        3.980377    0.242069    0.695397
 ---------------------------------------------------------------------

 SCF Done:  E(UB3LYP) =  -940.332014591     A.U. after   30 cycles

 The electronic state is 2-A.
 Alpha  occ. eigenvalues --  -88.73925 -14.20124 -14.19257 -10.10946 -10.10224
 Alpha  occ. eigenvalues --  -10.10143 -10.10020 -10.09795 -10.09727 -10.07675
 Alpha  occ. eigenvalues --  -10.06769 -10.06758 -10.06300 -10.05667  -7.82531
 Alpha  occ. eigenvalues --   -5.78928  -5.78574  -5.77892  -0.83368  -0.78811
 Alpha  occ. eigenvalues --   -0.73581  -0.67821  -0.67168  -0.65483  -0.63830
 Alpha  occ. eigenvalues --   -0.59567  -0.54621  -0.52916  -0.52423  -0.50262
 Alpha  occ. eigenvalues --   -0.45418  -0.43036  -0.41858  -0.39809  -0.38738
 Alpha  occ. eigenvalues --   -0.35989  -0.35298  -0.35070  -0.34195  -0.32950
 Alpha  occ. eigenvalues --   -0.32289  -0.31422  -0.31032  -0.30400  -0.29203
 Alpha  occ. eigenvalues --   -0.28175  -0.27127  -0.26782  -0.26303  -0.25539
 Alpha  occ. eigenvalues --   -0.24648  -0.23726  -0.22897  -0.22138  -0.21926
 Alpha  occ. eigenvalues --   -0.20561  -0.14348  -0.12957  -0.10507   0.04233
 Alpha virt. eigenvalues --    0.06034   0.07135   0.07349   0.07976   0.08646
 Alpha virt. eigenvalues --    0.08960   0.09633   0.10030   0.10279   0.10925
 Alpha virt. eigenvalues --    0.11192   0.11585   0.12095   0.12850   0.13015

  Beta  occ. eigenvalues --  -88.73923 -14.20123 -14.19227 -10.10940 -10.10208
  Beta  occ. eigenvalues --  -10.10132 -10.10012 -10.09781 -10.09710 -10.07648
  Beta  occ. eigenvalues --  -10.06758 -10.06739 -10.06277 -10.05633  -7.82530
  Beta  occ. eigenvalues --   -5.78927  -5.78569  -5.77891  -0.83354  -0.78764
  Beta  occ. eigenvalues --   -0.73553  -0.67784  -0.67137  -0.65446  -0.63791
  Beta  occ. eigenvalues --   -0.59516  -0.54572  -0.52866  -0.52382  -0.50220
  Beta  occ. eigenvalues --   -0.45363  -0.42984  -0.41818  -0.39780  -0.38698
  Beta  occ. eigenvalues --   -0.35951  -0.35261  -0.35033  -0.34163  -0.32920
  Beta  occ. eigenvalues --   -0.32257  -0.31384  -0.30997  -0.30368  -0.29167
  Beta  occ. eigenvalues --   -0.28153  -0.27098  -0.26746  -0.26265  -0.25500
  Beta  occ. eigenvalues --   -0.24603  -0.23693  -0.22868  -0.22110  -0.21895
  Beta  occ. eigenvalues --   -0.20533  -0.14315  -0.12944  -0.10495
  Beta virt. eigenvalues --    0.06381   0.07018   0.07587   0.07756   0.08523
  Beta virt. eigenvalues --    0.09078   0.09494   0.09821   0.10330   0.10522
  Beta virt. eigenvalues --    0.11354   0.11540   0.11689   0.12334   0.13150

 Mulliken charges and spin densities:
               1          2
     1  C    1.041132  -1.388904
     2  C   -0.989883   0.734039
     3  C   -0.297196  -0.133892
     4  C    1.539462  -1.861213
     5  C   -0.774392   0.414676
     6  C    0.384339  -0.420382
     7  N    0.471075  -0.017909
     8  C   -1.599869   0.849963
     9  C    0.319282  -0.496180
    10  C    0.528714  -0.908266
    11  C   -0.402525  -0.030953
    12  S    0.101867  -0.360674
    13  C    0.659831  -0.802808
    14  N   -0.377727   0.109994
    15  H   -0.114559   0.228332
    16  H   -0.079497   0.231760
    17  H   -0.316885   0.472223
    18  H   -0.065619   0.226226
    19  H   -0.042953   0.169437
    20  H   -0.614688   0.829467
    21  H   -0.061539   0.284464
    22  H    0.112715   0.078488
    23  H   -0.093330   0.211025
    24  H   -0.032344   0.187838
    25  H   -0.032446   0.178683
    26  H    0.101707   0.025718
    27  H   -0.138032   0.319570
    28  H   -0.094520   0.222654
    29  H    0.071092   0.082235
    30  H   -0.519266   0.710627
    31  H   -0.137186   0.365437
    32  H    0.040787   0.126424
    33  H   -0.180622   0.388214
    34  H    0.425365  -0.275617
    35  H    0.025521   0.199105
    36  H    0.142189   0.050198
 Sum of Mulliken charges =  -1.00000   1.00000

 Dipole moment (field-independent basis, Debye):
    X=             -1.3897    Y=             -3.1187    Z=              2.1388  Tot=              4.0289
 Quadrupole moment (field-independent basis, Debye-Ang):
   XX=           -183.0046   YY=           -143.3219   ZZ=           -133.4615
   XY=              4.8473   XZ=              6.8982   YZ=              0.9795

 Summary of Natural Population Analysis:

                                       Natural Population
                Natural  -----------------------------------------------
    Atom  No    Charge         Core      Valence    Rydberg      Total
 -----------------------------------------------------------------------
      C    1   -0.28330      0.99963     2.27731    0.00636     3.28330
      C    2   -0.01036      0.99958     1.99607    0.01471     3.01036
      C    3   -0.20286      0.99959     2.19273    0.01054     3.20286
      C    4   -0.01449      0.99959     2.00145    0.01346     3.01449
      C    5   -0.20017      0.99960     2.19322    0.00735     3.20017
      C    6   -0.08236      0.99960     2.07180    0.01096     3.08236
      N    7   -0.28619      0.99969     2.77126    0.01524     3.78619
      C    8   -0.00492      0.99955     1.99143    0.01394     3.00492
      C    9   -0.19105      0.99960     2.18011    0.01134     3.19105
      C   10   -0.19929      0.99962     2.19017    0.00950     3.19929
      C   11   -0.24566      0.99959     2.23571    0.01036     3.24566
      S   12    0.07348      4.99965     2.90987    0.01700     7.92652
      C   13   -0.25610      0.99955     2.24814    0.00840     3.25610
      N   14   -0.42319      0.99977     2.91351    0.00991     3.92319
      H   15    0.09133      0.00000     0.40732    0.00135     0.40867
      H   16    0.10199      0.00000     0.39671    0.00130     0.39801
      H   17    0.09988      0.00000     0.39882    0.00130     0.40012
      H   18    0.09841      0.00000     0.39932    0.00227     0.40159
      H   19    0.09946      0.00000     0.39889    0.00166     0.40054
      H   20    0.10174      0.00000     0.39642    0.00184     0.39826
      H   21    0.09049      0.00000     0.40792    0.00160     0.40951
      H   22    0.10301      0.00000     0.39585    0.00114     0.39699
      H   23    0.09549      0.00000     0.40309    0.00142     0.40451
      H   24    0.08882      0.00000     0.40996    0.00122     0.41118
      H   25    0.09738      0.00000     0.40148    0.00114     0.40262
      H   26    0.09593      0.00000     0.40208    0.00199     0.40407
      H   27    0.09994      0.00000     0.39858    0.00148     0.40006
      H   28    0.10272      0.00000     0.39576    0.00153     0.39728
      H   29    0.09757      0.00000     0.40104    0.00139     0.40243
      H   30    0.10574      0.00000     0.39225    0.00201     0.39426
      H   31    0.10577      0.00000     0.39294    0.00129     0.39423
      H   32    0.09650      0.00000     0.40183    0.00168     0.40350
      H   33    0.09954      0.00000     0.39843    0.00202     0.40046
      H   34    0.10846      0.00000     0.39004    0.00150     0.39154
      H   35    0.17584      0.00000     0.32208    0.00208     0.32416
      H   36    0.17046      0.00000     0.32715    0.00239     0.32954
 =======================================================================
   * Total *   -0.00000     17.99462    40.81073    0.19465    59.00000

 Normal termination of Gaussian 16 at Thu Dec 10 11:21:08 2020.
