 Gaussian 16, Revision A.03,

 -----------------------------------------------------------
 # opt freq B3LYP/6-31G(d) empiricaldispersion=gd3bj scf=xqc
 -----------------------------------------------------------

 -------------------------------
 CID_123232252_JID_7961_neutraal
 -------------------------------
 Symbolic Z-matrix:
 Charge =  0 Multiplicity = 1

 SCF Done:  E(RB3LYP) =  -783.451691069     A.U. after   15 cycles
 SCF Done:  E(RB3LYP) =  -783.454498825     A.U. after   12 cycles
 SCF Done:  E(RB3LYP) =  -783.454766986     A.U. after   12 cycles
 SCF Done:  E(RB3LYP) =  -783.454835642     A.U. after   12 cycles
 SCF Done:  E(RB3LYP) =  -783.455046175     A.U. after   11 cycles
 SCF Done:  E(RB3LYP) =  -783.455114646     A.U. after   11 cycles
 SCF Done:  E(RB3LYP) =  -783.455202998     A.U. after   12 cycles
 SCF Done:  E(RB3LYP) =  -783.455120409     A.U. after   13 cycles
 SCF Done:  E(RB3LYP) =  -783.455267832     A.U. after   13 cycles
 SCF Done:  E(RB3LYP) =  -783.455249791     A.U. after   11 cycles
 SCF Done:  E(RB3LYP) =  -783.455560830     A.U. after    9 cycles
 SCF Done:  E(RB3LYP) =  -783.455563320     A.U. after    9 cycles
 SCF Done:  E(RB3LYP) =  -783.455564433     A.U. after    9 cycles
 SCF Done:  E(RB3LYP) =  -783.455564729     A.U. after    7 cycles
 SCF Done:  E(RB3LYP) =  -783.455564934     A.U. after    8 cycles
 Optimization completed.
    -- Stationary point found.
 Normal termination of Gaussian 16 at Fri Dec 11 13:49:21 2020.

 --------------------------------------------------------------------
 #N Geom=AllCheck Guess=TCheck SCRF=Check GenChk RB3LYP/6-31G(d) Freq
 --------------------------------------------------------------------

 Structure from the checkpoint file:  "JID_7961.chk"
 -------------------------------
 CID_123232252_JID_7961_neutraal
 -------------------------------
 Charge =  0 Multiplicity = 1

 SCF Done:  E(RB3LYP) =  -783.455564934     A.U. after    1 cycles

  Exact polarizability: 173.280 -13.049 164.416  13.706   7.136 108.986
 Approx polarizability: 239.382  -2.283 229.197  42.856  18.892 183.948

                      1                      2                      3
                      A                      A                      A
 Frequencies --     22.9575                31.2648                32.0299
 Red. masses --      3.9753                 4.2687                 4.7448
 Frc consts  --      0.0012                 0.0025                 0.0029
 IR Inten    --      6.6205                 1.3255                 1.8244

                      4                      5                      6
                      A                      A                      A
 Frequencies --     47.7454                66.4728                74.0020
 Red. masses --      4.0874                 2.9308                 3.9095
 Frc consts  --      0.0055                 0.0076                 0.0126
 IR Inten    --      3.4387                 1.2707                 0.5400

                      7                      8                      9
                      A                      A                      A
 Frequencies --     80.9865               112.4829               136.3224
 Red. masses --      3.2968                 3.5613                 3.5945
 Frc consts  --      0.0127                 0.0265                 0.0394
 IR Inten    --      0.0626                 0.2520                 1.0725

                     10                     11                     12
                      A                      A                      A
 Frequencies --    165.4170               172.9285               186.6920
 Red. masses --      2.4323                 2.5135                 3.1681
 Frc consts  --      0.0392                 0.0443                 0.0651
 IR Inten    --      3.9389                 0.4568                 0.6977

                     13                     14                     15
                      A                      A                      A
 Frequencies --    226.0865               230.1418               243.2253
 Red. masses --      1.2628                 1.1787                 1.2090
 Frc consts  --      0.0380                 0.0368                 0.0421
 IR Inten    --      2.1785                 0.3621                 0.3684

                     16                     17                     18
                      A                      A                      A
 Frequencies --    256.0205               313.8801               326.8404
 Red. masses --      2.3296                 3.5410                 2.4413
 Frc consts  --      0.0900                 0.2055                 0.1537
 IR Inten    --      0.3508                 0.0898                 9.0309

                     19                     20                     21
                      A                      A                      A
 Frequencies --    351.0760               384.9660               402.4005
 Red. masses --      2.7287                 2.8234                 3.6405
 Frc consts  --      0.1982                 0.2465                 0.3473
 IR Inten    --      0.9568                 2.7091                 4.2094

                     22                     23                     24
                      A                      A                      A
 Frequencies --    447.8379               473.3454               492.7497
 Red. masses --      3.2266                 4.7794                 3.0442
 Frc consts  --      0.3813                 0.6309                 0.4355
 IR Inten    --      2.6685                 2.0328                 0.8456

                     25                     26                     27
                      A                      A                      A
 Frequencies --    551.4262               628.8916               683.2487
 Red. masses --      4.0420                 2.7925                 4.2431
 Frc consts  --      0.7241                 0.6507                 1.1671
 IR Inten    --      5.4343                 0.3611                 3.0015

                     28                     29                     30
                      A                      A                      A
 Frequencies --    700.0809               711.3339               725.1502
 Red. masses --      3.3167                 4.3045                 3.7493
 Frc consts  --      0.9577                 1.2833                 1.1616
 IR Inten    --      0.3313                 7.0526                11.1786

                     31                     32                     33
                      A                      A                      A
 Frequencies --    741.5622               787.9342               796.1494
 Red. masses --      2.6658                 2.0193                 1.3575
 Frc consts  --      0.8637                 0.7387                 0.5070
 IR Inten    --     12.5758                10.5439                 9.8619

                     34                     35                     36
                      A                      A                      A
 Frequencies --    807.4317               865.8570               867.8922
 Red. masses --      1.1671                 2.3654                 2.6964
 Frc consts  --      0.4483                 1.0448                 1.1966
 IR Inten    --      1.5612                 7.8235                 5.8054

                     37                     38                     39
                      A                      A                      A
 Frequencies --    914.7337               921.1801               956.6502
 Red. masses --      1.6306                 2.0771                 2.0828
 Frc consts  --      0.8039                 1.0385                 1.1230
 IR Inten    --      1.7088                 4.4156                12.5058

                     40                     41                     42
                      A                      A                      A
 Frequencies --    974.8402              1002.3092              1035.1753
 Red. masses --      2.2592                 2.2555                 1.1437
 Frc consts  --      1.2649                 1.3350                 0.7221
 IR Inten    --      5.0261                 3.5328                26.0189

                     43                     44                     45
                      A                      A                      A
 Frequencies --   1044.9369              1063.1423              1079.1620
 Red. masses --      4.0161                 3.4123                 4.6850
 Frc consts  --      2.5837                 2.2723                 3.2147
 IR Inten    --     17.0402                15.2133                89.8479

                     46                     47                     48
                      A                      A                      A
 Frequencies --   1095.6333              1107.0350              1112.0027
 Red. masses --      2.2614                 2.2247                 1.9496
 Frc consts  --      1.5994                 1.6063                 1.4204
 IR Inten    --      0.4955                 1.2576                 3.9728

                     49                     50                     51
                      A                      A                      A
 Frequencies --   1119.8191              1128.3254              1134.1647
 Red. masses --      1.8528                 1.9697                 2.0535
 Frc consts  --      1.3689                 1.4775                 1.5563
 IR Inten    --      7.4471                13.3988                38.2454

                     52                     53                     54
                      A                      A                      A
 Frequencies --   1173.2536              1201.6951              1208.6398
 Red. masses --      1.9669                 1.4619                 1.7352
 Frc consts  --      1.5952                 1.2438                 1.4934
 IR Inten    --     17.5069                36.9970                 5.1163

                     55                     56                     57
                      A                      A                      A
 Frequencies --   1254.1952              1287.4664              1291.5686
 Red. masses --      1.9555                 6.6835                 2.6333
 Frc consts  --      1.8123                 6.5272                 2.5881
 IR Inten    --     21.7746                12.5365               312.7496

                     58                     59                     60
                      A                      A                      A
 Frequencies --   1312.4445              1325.3991              1342.2403
 Red. masses --      1.3904                 1.6838                 1.4835
 Frc consts  --      1.4111                 1.7427                 1.5747
 IR Inten    --     31.5490                38.9892                 4.3947

                     61                     62                     63
                      A                      A                      A
 Frequencies --   1343.3964              1349.4015              1362.1169
 Red. masses --      1.1660                 1.1967                 1.3758
 Frc consts  --      1.2398                 1.2838                 1.5040
 IR Inten    --      7.7632                 9.1496                 4.9349

                     64                     65                     66
                      A                      A                      A
 Frequencies --   1385.4111              1400.0834              1404.9314
 Red. masses --      2.3154                 1.4369                 1.9414
 Frc consts  --      2.6184                 1.6595                 2.2578
 IR Inten    --     16.6317                15.1115                10.0562

                     67                     68                     69
                      A                      A                      A
 Frequencies --   1419.9894              1437.3995              1441.0328
 Red. masses --      1.2838                 1.2426                 1.2506
 Frc consts  --      1.5251                 1.5127                 1.5301
 IR Inten    --     13.4079                 6.6816                 5.6206

                     70                     71                     72
                      A                      A                      A
 Frequencies --   1443.5376              1496.8366              1511.6370
 Red. masses --      1.3308                 2.3809                 1.1109
 Frc consts  --      1.6339                 3.1430                 1.4956
 IR Inten    --      9.1196                10.4843                 3.8782

                     73                     74                     75
                      A                      A                      A
 Frequencies --   1514.1858              1516.2947              1517.9589
 Red. masses --      1.0698                 1.3157                 1.0625
 Frc consts  --      1.4451                 1.7823                 1.4424
 IR Inten    --     14.4262                 6.1700                 2.2240

                     76                     77                     78
                      A                      A                      A
 Frequencies --   1519.1070              1523.0551              1531.0534
 Red. masses --      1.0621                 1.0482                 1.0699
 Frc consts  --      1.4441                 1.4326                 1.4777
 IR Inten    --      9.7267                 6.6073                 5.0820

                     79                     80                     81
                      A                      A                      A
 Frequencies --   1534.6077              1538.5317              1597.7503
 Red. masses --      1.0641                 1.0563                 5.6727
 Frc consts  --      1.4765                 1.4731                 8.5321
 IR Inten    --      4.7533                 3.9543                 4.1842

                     82                     83                     84
                      A                      A                      A
 Frequencies --   1721.8568              1800.5290              3042.7629
 Red. masses --      6.3466                10.2000                 1.0746
 Frc consts  --     11.0862                19.4827                 5.8620
 IR Inten    --     18.4246               328.3213                 6.7462

                     85                     86                     87
                      A                      A                      A
 Frequencies --   3050.3595              3057.0311              3059.5151
 Red. masses --      1.0672                 1.0365                 1.0367
 Frc consts  --      5.8507                 5.7070                 5.7176
 IR Inten    --     23.6130                39.1790                14.7905

                     88                     89                     90
                      A                      A                      A
 Frequencies --   3062.3301              3087.2124              3091.5214
 Red. masses --      1.0349                 1.0634                 1.0590
 Frc consts  --      5.7180                 5.9712                 5.9632
 IR Inten    --     14.3337                23.9040                26.4538

                     91                     92                     93
                      A                      A                      A
 Frequencies --   3097.8775              3122.0240              3123.4127
 Red. masses --      1.1049                 1.1017                 1.1027
 Frc consts  --      6.2472                 6.3269                 6.3381
 IR Inten    --     19.0663                30.3167                31.1110

                     94                     95                     96
                      A                      A                      A
 Frequencies --   3130.9796              3139.2701              3140.4358
 Red. masses --      1.1033                 1.1013                 1.1047
 Frc consts  --      6.3724                 6.3947                 6.4192
 IR Inten    --      6.9858                23.7826                12.6348

                     97                     98                     99
                      A                      A                      A
 Frequencies --   3140.7167              3154.3125              3159.3009
 Red. masses --      1.1022                 1.1051                 1.1056
 Frc consts  --      6.4059                 6.4783                 6.5015
 IR Inten    --     18.1485                17.9536                22.5540

                    100                    101                    102
                      A                      A                      A
 Frequencies --   3199.0359              3208.9876              3295.4834
 Red. masses --      1.0935                 1.0863                 1.0991
 Frc consts  --      6.5932                 6.5906                 7.0325
 IR Inten    --      2.4345                 7.8618                 0.2050

 - Thermochemistry -
 -------------------
 Temperature   298.150 Kelvin.  Pressure   1.00000 Atm.
 Atom     1 has atomic number  6 and mass  12.00000

 Molecular mass:   237.14773 amu.
 Principal axes and moments of inertia in atomic units:
                           1         2         3
     Eigenvalues --  3253.385815443.833338092.39095
           X            0.99649  -0.08373  -0.00206
           Y            0.08372   0.99649  -0.00140
           Z            0.00217   0.00123   1.00000
 This molecule is an asymmetric top.
 Rotational symmetry number  1.
 Warning -- assumption of classical behavior for rotation
           may cause significant error
 Rotational temperatures (Kelvin)      0.02662     0.01591     0.01070
 Rotational constants (GHZ):           0.55473     0.33152     0.22302
 Zero-point vibrational energy     806905.8 (Joules/Mol)
                                  192.85512 (Kcal/Mol)
 Warning -- explicit consideration of  25 degrees of freedom as
           vibrations may cause significant error
 Vibrational temperatures:     33.03    44.98    46.08    68.69    95.64
          (Kelvin)            106.47   116.52   161.84   196.14   238.00
                              248.81   268.61   325.29   331.12   349.95
                              368.36   451.60   470.25   505.12   553.88
                              578.96   644.34   681.04   708.96   793.38
                              904.83   983.04  1007.26  1023.45  1043.33
                             1066.94  1133.66  1145.48  1161.71  1245.78
                             1248.70  1316.10  1325.37  1376.41  1402.58
                             1442.10  1489.39  1503.43  1529.62  1552.67
                             1576.37  1592.78  1599.92  1611.17  1623.41
                             1631.81  1688.05  1728.97  1738.96  1804.51
                             1852.38  1858.28  1888.31  1906.95  1931.18
                             1932.85  1941.49  1959.78  1993.30  2014.41
                             2021.38  2043.05  2068.10  2073.32  2076.93
                             2153.61  2174.91  2178.58  2181.61  2184.00
                             2185.66  2191.34  2202.84  2207.96  2213.60
                             2298.81  2477.37  2590.56  4377.86  4388.79
                             4398.39  4401.96  4406.01  4441.81  4448.01
                             4457.15  4491.90  4493.89  4504.78  4516.71
                             4518.39  4518.79  4538.35  4545.53  4602.70
                             4617.02  4741.47

 Zero-point correction=                           0.307334 (Hartree/Particle)
 Thermal correction to Energy=                    0.325680
 Thermal correction to Enthalpy=                  0.326624
 Thermal correction to Gibbs Free Energy=         0.258149
 Sum of electronic and zero-point Energies=           -783.148231
 Sum of electronic and thermal Energies=              -783.129885
 Sum of electronic and thermal Enthalpies=            -783.128941
 Sum of electronic and thermal Free Energies=         -783.197416

                     E (Thermal)             CV                S
                      KCal/Mol        Cal/Mol-Kelvin    Cal/Mol-Kelvin
 Total                  204.367             65.774            144.117
 Electronic               0.000              0.000              0.000
 Translational            0.889              2.981             42.292
 Rotational               0.889              2.981             33.327
 Vibrational            202.590             59.812             68.498
 Vibration     1          0.593              1.985              6.360
 Vibration     2          0.594              1.983              5.748
 Vibration     3          0.594              1.983              5.700
 Vibration     4          0.595              1.978              4.909
 Vibration     5          0.598              1.970              4.255
 Vibration     6          0.599              1.966              4.044
 Vibration     7          0.600              1.962              3.867
 Vibration     8          0.607              1.939              3.226
 Vibration     9          0.614              1.917              2.855
 Vibration    10          0.624              1.885              2.487
 Vibration    11          0.626              1.876              2.403
 Vibration    12          0.632              1.858              2.260
 Vibration    13          0.650              1.801              1.910
 Vibration    14          0.652              1.795              1.878
 Vibration    15          0.659              1.774              1.779
 Vibration    16          0.666              1.753              1.689
 Vibration    17          0.702              1.647              1.342
 Vibration    18          0.711              1.622              1.276
 Vibration    19          0.728              1.573              1.161
 Vibration    20          0.754              1.502              1.020
 Vibration    21          0.768              1.465              0.954
 Vibration    22          0.807              1.366              0.802
 Vibration    23          0.830              1.309              0.728
 Vibration    24          0.848              1.266              0.676
 Vibration    25          0.907              1.137              0.541

                           ! Non-Optimized Parameters !
 Normal termination of Gaussian 16 at Fri Dec 11 14:01:50 2020.

 ----------------------------------------------------------------------
 # B3LYP/6-311++G(d,p) empiricaldispersion=gd3bj scf=xqc pop=npa geom=c
 heck
 ----------------------------------------------------------------------

 ---------------------------------------
 CID_123232252_JID_7961_Energie_neutraal
 ---------------------------------------
 Structure from the checkpoint file:  "JID_7961.chk"
 Charge =  0 Multiplicity = 1

 SCF Done:  E(RB3LYP) =  -783.673235610     A.U. after   16 cycles
 Normal termination of Gaussian 16 at Fri Dec 11 14:07:44 2020.

 ----------------------------------------------------------------------
 # B3LYP/6-311++G(d,p) empiricaldispersion=gd3bj scf=xqc pop=npa geom=c
 heck
 ----------------------------------------------------------------------

 -------------------------------------
 CID_123232252_JID_7961_Energie_kation
 -------------------------------------
 Structure from the checkpoint file:  "JID_7961.chk"
 Charge =  1 Multiplicity = 2

 SCF Done:  E(UB3LYP) =  -783.347803261     A.U. after   32 cycles
 Normal termination of Gaussian 16 at Fri Dec 11 14:23:24 2020.
 Gaussian 16:  ES64L-G16RevA.03 25-Dec-2016

 ----------------------------------------------------------------------
 # B3LYP/6-311++G(d,p) empiricaldispersion=gd3bj scf=xqc pop=npa geom=c
 heck
 ----------------------------------------------------------------------

 ------------------------------------
 CID_123232252_JID_7961_Energie_anion
 ------------------------------------
 Structure from the checkpoint file:  "JID_7961.chk"
 Charge = -1 Multiplicity = 2

                         Standard orientation:
 ---------------------------------------------------------------------
 Center     Atomic      Atomic             Coordinates (Angstroms)
 Number     Number       Type             X           Y           Z
 ---------------------------------------------------------------------
      1          6           0       -0.390814    3.218794    0.394390
      2          6           0        0.915872    3.235237   -0.400216
      3          7           0        1.624298    1.968282   -0.276901
      4          6           0        1.391602    0.804948   -0.935615
      5          6           0        2.185082   -0.124140   -0.295918
      6          7           0        2.849088    0.515194    0.713781
      7          7           0        2.507402    1.778270    0.728129
      8          6           0        2.246425   -1.611968   -0.491586
      9          6           0        3.679801   -2.150170   -0.418149
     10          6           0        1.331050   -2.321618    0.552919
     11          6           0       -0.027459   -1.693075    0.605318
     12          6           0       -1.132784   -2.192223    0.038127
     13          6           0       -2.438717   -1.503788    0.024319
     14          8           0       -3.458626   -1.998863   -0.417189
     15          8           0       -2.382387   -0.248921    0.546604
     16          6           0       -3.630367    0.475510    0.587404
     17          6           0       -3.936200    1.134862   -0.748476
     18          1           0       -1.032832    2.393129    0.070171
     19          1           0       -0.931980    4.160922    0.257440
     20          1           0       -0.180530    3.087001    1.459887
     21          1           0        0.735105    3.415595   -1.464291
     22          1           0        1.595029    4.007521   -0.032517
     23          1           0        0.695453    0.727596   -1.756373
     24          1           0        1.827277   -1.831509   -1.481904
     25          1           0        4.134904   -1.888858    0.541678
     26          1           0        3.690930   -3.240363   -0.527151
     27          1           0        4.298491   -1.717656   -1.211154
     28          1           0        1.261244   -3.385346    0.297709
     29          1           0        1.812331   -2.240359    1.535869
     30          1           0       -0.093807   -0.725866    1.095205
     31          1           0       -1.138193   -3.158213   -0.459739
     32          1           0       -4.429128   -0.212156    0.875438
     33          1           0       -3.486593    1.216781    1.377371
     34          1           0       -4.081448    0.376664   -1.521948
     35          1           0       -4.853279    1.729705   -0.669816
     36          1           0       -3.121338    1.801258   -1.051360
 ---------------------------------------------------------------------

 SCF Done:  E(UB3LYP) =  -783.671767224     A.U. after   33 cycles
 SCF Done:  E(UB3LYP) =  -783.671767224     a.u. after    1 cycles

 The electronic state is 2-A.
 Alpha  occ. eigenvalues --  -19.03513 -18.96571 -14.30287 -14.26779 -14.23090
 Alpha  occ. eigenvalues --  -10.15186 -10.12686 -10.11672 -10.11221 -10.09844
 Alpha  occ. eigenvalues --  -10.08963 -10.07317 -10.07044 -10.06894 -10.05857
 Alpha  occ. eigenvalues --  -10.04356 -10.04114  -0.99727  -0.97143  -0.88215
 Alpha  occ. eigenvalues --   -0.82070  -0.73644  -0.69240  -0.67838  -0.66509
 Alpha  occ. eigenvalues --   -0.64707  -0.59179  -0.56985  -0.54901  -0.53403
 Alpha  occ. eigenvalues --   -0.50365  -0.48102  -0.45976  -0.43532  -0.42225
 Alpha  occ. eigenvalues --   -0.39582  -0.38699  -0.37140  -0.36349  -0.35593
 Alpha  occ. eigenvalues --   -0.34946  -0.33940  -0.33702  -0.32653  -0.32242
 Alpha  occ. eigenvalues --   -0.30402  -0.29543  -0.29326  -0.29039  -0.27597
 Alpha  occ. eigenvalues --   -0.27413  -0.26792  -0.26361  -0.25603  -0.24984
 Alpha  occ. eigenvalues --   -0.23693  -0.22932  -0.22396  -0.19182  -0.18182
 Alpha  occ. eigenvalues --   -0.17429  -0.15447  -0.14830  -0.14503   0.04173
 Alpha virt. eigenvalues --    0.05744   0.07052   0.07604   0.08272   0.08662
 Alpha virt. eigenvalues --    0.09359   0.09654   0.09817   0.10172   0.10599
 Alpha virt. eigenvalues --    0.11585   0.11776   0.12384   0.12826   0.12997

  Beta  occ. eigenvalues --  -19.03499 -18.96347 -14.30288 -14.26776 -14.23088
  Beta  occ. eigenvalues --  -10.14989 -10.12657 -10.11670 -10.11207 -10.09846
  Beta  occ. eigenvalues --  -10.08917 -10.07287 -10.07038 -10.06922 -10.05827
  Beta  occ. eigenvalues --  -10.04104 -10.03974  -0.99724  -0.96964  -0.87901
  Beta  occ. eigenvalues --   -0.82060  -0.73561  -0.69096  -0.67662  -0.66438
  Beta  occ. eigenvalues --   -0.64517  -0.59014  -0.56930  -0.54814  -0.53340
  Beta  occ. eigenvalues --   -0.50316  -0.47830  -0.45699  -0.43407  -0.42151
  Beta  occ. eigenvalues --   -0.39480  -0.38667  -0.37095  -0.36305  -0.35458
  Beta  occ. eigenvalues --   -0.34761  -0.33821  -0.33499  -0.32531  -0.32061
  Beta  occ. eigenvalues --   -0.30297  -0.29474  -0.29203  -0.28941  -0.27534
  Beta  occ. eigenvalues --   -0.26993  -0.26740  -0.26191  -0.25423  -0.24907
  Beta  occ. eigenvalues --   -0.23545  -0.22875  -0.22325  -0.19156  -0.17625
  Beta  occ. eigenvalues --   -0.17410  -0.15393  -0.14401  -0.13441
  Beta virt. eigenvalues --    0.06658   0.07100   0.07771   0.08563   0.08643
  Beta virt. eigenvalues --    0.09240   0.09454   0.09742   0.10040   0.10346
  Beta virt. eigenvalues --    0.10781   0.11654   0.11838   0.12385   0.12799

 Mulliken charges and spin densities:
               1          2
     1  C   -0.528938   0.087241
     2  C    0.372945  -0.619147
     3  N    0.363308   0.040015
     4  C   -1.253135   0.264445
     5  C    0.311277  -0.248966
     6  N   -0.107515   0.001622
     7  N   -0.092066   0.008581
     8  C    0.715350  -0.043647
     9  C   -0.665552  -0.090618
    10  C   -0.849663  -0.123557
    11  C    0.373297   0.368796
    12  C   -0.137740  -0.102736
    13  C   -0.380391   0.145975
    14  O   -0.331399   0.072939
    15  O   -0.028879  -0.002600
    16  C   -0.442645   0.226590
    17  C    0.390299  -0.748927
    18  H    1.428440  -1.235781
    19  H   -0.551941   0.691426
    20  H    0.091600   0.061214
    21  H   -0.551335   0.713320
    22  H   -0.053963   0.234840
    23  H    0.025156   0.162718
    24  H    0.165808   0.031339
    25  H    0.162213   0.008517
    26  H    0.129655   0.010398
    27  H    0.127051   0.009707
    28  H    0.116003   0.009919
    29  H    0.159624   0.021391
    30  H    0.199768  -0.019298
    31  H    0.143043   0.007653
    32  H    0.154249   0.019188
    33  H    0.004899   0.133847
    34  H    0.064042   0.104049
    35  H   -0.156844   0.273631
    36  H   -0.366021   0.525916
 Sum of Mulliken charges =  -1.00000   1.00000

 Dipole moment (field-independent basis, Debye):
    X=              3.7001    Y=             -3.2538    Z=              0.6894  Tot=              4.9752
 Quadrupole moment (field-independent basis, Debye-Ang):
   XX=           -165.0782   YY=           -159.9935   ZZ=           -124.8303
   XY=             -8.3697   XZ=            -12.3432   YZ=              7.0528

 Summary of Natural Population Analysis:

                                       Natural Population
                Natural  -----------------------------------------------
    Atom  No    Charge         Core      Valence    Rydberg      Total
 -----------------------------------------------------------------------
      C    1   -0.29082      0.99965     2.28571    0.00546     3.29082
      C    2   -0.08458      0.99962     2.07367    0.01130     3.08458
      N    3   -0.10354      0.99966     2.58997    0.01391     3.60354
      C    4   -0.01673      0.99947     2.00650    0.01075     3.01673
      C    5    0.04579      0.99954     1.93788    0.01680     2.95421
      N    6   -0.14795      0.99971     2.63488    0.01336     3.64795
      N    7   -0.04968      0.99978     2.53399    0.01591     3.54968
      C    8   -0.11252      0.99957     2.10436    0.00859     3.11252
      C    9   -0.28028      0.99966     2.27559    0.00503     3.28028
      C   10   -0.20182      0.99961     2.19396    0.00825     3.20182
      C   11    0.00908      0.99954     1.98294    0.00844     2.99092
      C   12   -0.15989      0.99946     2.15127    0.00915     3.15989
      C   13    0.41040      0.99966     1.56628    0.02366     2.58960
      O   14   -0.30395      0.99987     3.29891    0.00516     4.30395
      O   15   -0.29127      0.99986     3.28316    0.00825     4.29127
      C   16   -0.01751      0.99959     2.00543    0.01249     3.01751
      C   17   -0.29988      0.99966     2.29510    0.00511     3.29988
      H   18    0.10597      0.00000     0.39231    0.00172     0.39403
      H   19    0.10408      0.00000     0.39421    0.00170     0.39592
      H   20    0.10136      0.00000     0.39765    0.00099     0.39864
      H   21    0.10240      0.00000     0.39530    0.00231     0.39760
      H   22    0.10499      0.00000     0.39342    0.00159     0.39501
      H   23    0.11302      0.00000     0.38573    0.00125     0.38698
      H   24    0.09813      0.00000     0.40028    0.00159     0.40187
      H   25    0.10461      0.00000     0.39435    0.00104     0.39539
      H   26    0.09440      0.00000     0.40478    0.00082     0.40560
      H   27    0.09790      0.00000     0.40130    0.00080     0.40210
      H   28    0.09485      0.00000     0.40352    0.00163     0.40515
      H   29    0.10279      0.00000     0.39580    0.00141     0.39721
      H   30    0.09587      0.00000     0.40215    0.00198     0.40413
      H   31    0.09333      0.00000     0.40511    0.00156     0.40667
      H   32    0.09223      0.00000     0.40654    0.00124     0.40777
      H   33    0.08507      0.00000     0.41388    0.00104     0.41493
      H   34    0.10766      0.00000     0.39142    0.00092     0.39234
      H   35    0.09745      0.00000     0.40158    0.00096     0.40255
      H   36    0.09904      0.00000     0.39960    0.00136     0.40096
 =======================================================================
   * Total *   -0.00000     16.99392    46.79856    0.20753    64.00000

 Normal termination of Gaussian 16 at Fri Dec 11 14:39:48 2020.
