 Gaussian 16, Revision A.03,

 -----------------------------------------------------------
 # opt freq B3LYP/6-31G(d) empiricaldispersion=gd3bj scf=xqc
 -----------------------------------------------------------

 ------------------------------
 CID_143358938_JID_131_neutraal
 ------------------------------
 Symbolic Z-matrix:
 Charge =  0 Multiplicity = 1

 SCF Done:  E(RB3LYP) =  -459.917241909     A.U. after   15 cycles
 SCF Done:  E(RB3LYP) =  -459.922300476     A.U. after   12 cycles
 SCF Done:  E(RB3LYP) =  -459.923837923     A.U. after   12 cycles
 SCF Done:  E(RB3LYP) =  -459.925331258     A.U. after   14 cycles
 SCF Done:  E(RB3LYP) =  -459.925880978     A.U. after   12 cycles
 SCF Done:  E(RB3LYP) =  -459.926303126     A.U. after   11 cycles
 SCF Done:  E(RB3LYP) =  -459.926450977     A.U. after   11 cycles
 SCF Done:  E(RB3LYP) =  -459.926494449     A.U. after   11 cycles
 SCF Done:  E(RB3LYP) =  -459.926553145     A.U. after   11 cycles
 SCF Done:  E(RB3LYP) =  -459.926581534     A.U. after   10 cycles
 SCF Done:  E(RB3LYP) =  -459.927618408     A.U. after   11 cycles
 SCF Done:  E(RB3LYP) =  -459.927619901     A.U. after   10 cycles
 SCF Done:  E(RB3LYP) =  -459.927621608     A.U. after   10 cycles
 SCF Done:  E(RB3LYP) =  -459.927622422     A.U. after    9 cycles
 SCF Done:  E(RB3LYP) =  -459.927622456     A.U. after    8 cycles
 SCF Done:  E(RB3LYP) =  -459.927622504     A.U. after    7 cycles
 Optimization completed.
    -- Stationary point found.
 Normal termination of Gaussian 16 at Tue Dec  8 10:28:46 2020.

 --------------------------------------------------------------------
 #N Geom=AllCheck Guess=TCheck SCRF=Check GenChk RB3LYP/6-31G(d) Freq
 --------------------------------------------------------------------

 Structure from the checkpoint file:  "JID_131.chk"
 ------------------------------
 CID_143358938_JID_131_neutraal
 ------------------------------
 Charge =  0 Multiplicity = 1

 SCF Done:  E(RB3LYP) =  -459.927622504     A.U. after    1 cycles

  Exact polarizability: 113.878  -5.630  96.200   1.345  -4.098  63.300
 Approx polarizability: 137.180 -12.032 150.154   3.276  -5.581  93.017

                      1                      2                      3
                      A                      A                      A
 Frequencies --     40.0806                51.0075                73.5527
 Red. masses --      3.3490                 3.3340                 3.4419
 Frc consts  --      0.0032                 0.0051                 0.0110
 IR Inten    --      1.3602                 1.2038                 0.6586

                      4                      5                      6
                      A                      A                      A
 Frequencies --    112.9012               119.9310               148.2662
 Red. masses --      1.5286                 1.9089                 2.7280
 Frc consts  --      0.0115                 0.0162                 0.0353
 IR Inten    --      2.0859                 3.6948                 7.8580

                      7                      8                      9
                      A                      A                      A
 Frequencies --    203.0729               211.9311               238.8778
 Red. masses --      1.3373                 1.5868                 1.3427
 Frc consts  --      0.0325                 0.0420                 0.0451
 IR Inten    --      0.2059                 0.6726                 0.5148

                     10                     11                     12
                      A                      A                      A
 Frequencies --    321.7317               355.5039               412.5084
 Red. masses --      2.6198                 3.3050                 2.1543
 Frc consts  --      0.1598                 0.2461                 0.2160
 IR Inten    --      2.0056                 9.8121                 4.3029

                     13                     14                     15
                      A                      A                      A
 Frequencies --    449.3951               485.1059               526.0953
 Red. masses --      2.5857                 2.4533                 2.5039
 Frc consts  --      0.3077                 0.3402                 0.4083
 IR Inten    --      1.6541                15.0823                 4.3166

                     16                     17                     18
                      A                      A                      A
 Frequencies --    547.4512               592.7749               621.3417
 Red. masses --      3.1512                 3.3322                 3.5501
 Frc consts  --      0.5564                 0.6899                 0.8075
 IR Inten    --     12.4688                 7.1207                11.5987

                     19                     20                     21
                      A                      A                      A
 Frequencies --    697.2485               764.1417               805.1433
 Red. masses --      1.1205                 3.6993                 1.2761
 Frc consts  --      0.3210                 1.2727                 0.4874
 IR Inten    --     29.5275                 2.3517                 3.6835

                     22                     23                     24
                      A                      A                      A
 Frequencies --    826.3947               857.9893               959.7243
 Red. masses --      1.4004                 3.5327                 2.0972
 Frc consts  --      0.5635                 1.5322                 1.1381
 IR Inten    --    115.8579                 2.9351                16.0852

                     25                     26                     27
                      A                      A                      A
 Frequencies --    987.3184              1015.7674              1037.8175
 Red. masses --      1.8572                 1.4672                 1.5972
 Frc consts  --      1.0666                 0.8919                 1.0136
 IR Inten    --      2.8629                17.1790                42.7213

                     28                     29                     30
                      A                      A                      A
 Frequencies --   1065.5998              1077.4193              1087.5533
 Red. masses --      1.7369                 1.5770                 1.5222
 Frc consts  --      1.1620                 1.0785                 1.0608
 IR Inten    --      5.2594                21.9520                13.4479

                     31                     32                     33
                      A                      A                      A
 Frequencies --   1143.4789              1158.5610              1194.4957
 Red. masses --      3.2362                 1.3047                 2.0740
 Frc consts  --      2.4931                 1.0318                 1.7435
 IR Inten    --     31.6256                 7.3539               143.6520

                     34                     35                     36
                      A                      A                      A
 Frequencies --   1239.0313              1334.7094              1372.4463
 Red. masses --      2.7197                 1.8406                 2.2643
 Frc consts  --      2.4600                 1.9319                 2.5129
 IR Inten    --     82.7413                36.9481               117.0145

                     37                     38                     39
                      A                      A                      A
 Frequencies --   1410.5150              1414.4930              1440.6626
 Red. masses --      1.2759                 1.2910                 1.3950
 Frc consts  --      1.4957                 1.5218                 1.7059
 IR Inten    --      5.0105                 5.7007                36.7087

                     40                     41                     42
                      A                      A                      A
 Frequencies --   1450.4166              1456.5953              1485.6101
 Red. masses --      1.6108                 1.5400                 1.2022
 Frc consts  --      1.9965                 1.9251                 1.5633
 IR Inten    --    129.3965                24.4410                24.2111

                     43                     44                     45
                      A                      A                      A
 Frequencies --   1504.4015              1509.9861              1514.1442
 Red. masses --      1.0969                 1.0711                 1.0646
 Frc consts  --      1.4626                 1.4389                 1.4380
 IR Inten    --     15.9010                 1.5310                19.6073

                     46                     47                     48
                      A                      A                      A
 Frequencies --   1521.8349              1526.7587              1528.1126
 Red. masses --      1.0925                 1.0922                 1.0780
 Frc consts  --      1.4908                 1.5000                 1.4831
 IR Inten    --      6.6792                24.5503                25.3686

                     49                     50                     51
                      A                      A                      A
 Frequencies --   1536.1995              1554.9022              1727.9352
 Red. masses --      1.1979                 1.1092                 4.7821
 Frc consts  --      1.6656                 1.5800                 8.4125
 IR Inten    --     11.0272                26.0683               185.9008

                     52                     53                     54
                      A                      A                      A
 Frequencies --   1759.1870              3039.6291              3040.8913
 Red. masses --      8.5776                 1.0418                 1.0404
 Frc consts  --     15.6402                 5.6713                 5.6681
 IR Inten    --    206.9267                37.2510                26.4471

                     55                     56                     57
                      A                      A                      A
 Frequencies --   3060.7886              3074.7788              3089.7579
 Red. masses --      1.0396                 1.0660                 1.0999
 Frc consts  --      5.7382                 5.9382                 6.1866
 IR Inten    --      5.6584                29.8043                27.7661

                     58                     59                     60
                      A                      A                      A
 Frequencies --   3094.3152              3123.4638              3146.6787
 Red. masses --      1.1020                 1.1002                 1.0981
 Frc consts  --      6.2166                 6.3238                 6.4064
 IR Inten    --     29.6272                11.0813                24.8860

                     61                     62                     63
                      A                      A                      A
 Frequencies --   3151.6059              3170.9972              3176.5558
 Red. masses --      1.0985                 1.0617                 1.1003
 Frc consts  --      6.4287                 6.2899                 6.5414
 IR Inten    --     12.6514                 4.7596                10.5032

                     64                     65                     66
                      A                      A                      A
 Frequencies --   3183.6214              3256.6173              3540.3408
 Red. masses --      1.0958                 1.1144                 1.0743
 Frc consts  --      6.5436                 6.9635                 7.9333
 IR Inten    --     13.5607                16.4270                10.7427

 - Thermochemistry -
 -------------------
 Temperature   298.150 Kelvin.  Pressure   1.00000 Atm.
 Atom     1 has atomic number  6 and mass  12.00000

 Molecular mass:   142.11061 amu.
 Principal axes and moments of inertia in atomic units:
                           1         2         3
     Eigenvalues --   695.981492569.557923015.22031
           X            0.99991  -0.00782  -0.01101
           Y            0.00767   0.99987  -0.01404
           Z            0.01111   0.01395   0.99984
 This molecule is an asymmetric top.
 Rotational symmetry number  1.
 Warning -- assumption of classical behavior for rotation
           may cause significant error
 Rotational temperatures (Kelvin)      0.12445     0.03371     0.02873
 Rotational constants (GHZ):           2.59309     0.70235     0.59854
 Zero-point vibrational energy     554039.5 (Joules/Mol)
                                  132.41861 (Kcal/Mol)
 Warning -- explicit consideration of  17 degrees of freedom as
           vibrations may cause significant error
 Vibrational temperatures:     57.67    73.39   105.83   162.44   172.55
          (Kelvin)            213.32   292.18   304.92   343.69   462.90
                              511.49   593.51   646.58   697.96   756.93
                              787.66   852.87   893.97  1003.19  1099.43
                             1158.42  1189.00  1234.46  1380.83  1420.53
                             1461.46  1493.19  1533.16  1550.17  1564.75
                             1645.21  1666.91  1718.61  1782.69  1920.35
                             1974.64  2029.42  2035.14  2072.79  2086.83
                             2095.72  2137.46  2164.50  2172.53  2178.52
                             2189.58  2196.67  2198.61  2210.25  2237.16
                             2486.11  2531.08  4373.35  4375.16  4403.79
                             4423.92  4445.47  4452.03  4493.97  4527.37
                             4534.46  4562.36  4570.36  4580.52  4685.55
                             5093.76

 Zero-point correction=                           0.211022 (Hartree/Particle)
 Thermal correction to Energy=                    0.223051
 Thermal correction to Enthalpy=                  0.223995
 Thermal correction to Gibbs Free Energy=         0.172278
 Sum of electronic and zero-point Energies=           -459.716600
 Sum of electronic and thermal Energies=              -459.704571
 Sum of electronic and thermal Enthalpies=            -459.703627
 Sum of electronic and thermal Free Energies=         -459.755344

                     E (Thermal)             CV                S
                      KCal/Mol        Cal/Mol-Kelvin    Cal/Mol-Kelvin
 Total                  139.967             42.808            108.848
 Electronic               0.000              0.000              0.000
 Translational            0.889              2.981             40.766
 Rotational               0.889              2.981             30.068
 Vibrational            138.189             36.846             38.015
 Vibration     1          0.594              1.981              5.255
 Vibration     2          0.595              1.977              4.778
 Vibration     3          0.599              1.966              4.056
 Vibration     4          0.607              1.939              3.218
 Vibration     5          0.609              1.933              3.101
 Vibration     6          0.618              1.905              2.694
 Vibration     7          0.639              1.836              2.105
 Vibration     8          0.643              1.823              2.027
 Vibration     9          0.657              1.781              1.811
 Vibration    10          0.707              1.632              1.301
 Vibration    11          0.731              1.564              1.142
 Vibration    12          0.776              1.443              0.918
 Vibration    13          0.808              1.362              0.798
 Vibration    14          0.841              1.283              0.696
 Vibration    15          0.881              1.192              0.596
 Vibration    16          0.903              1.145              0.549
 Vibration    17          0.950              1.047              0.462

 Optimization completed.
    -- Stationary point found.
 Normal termination of Gaussian 16 at Tue Dec  8 10:32:34 2020.

 ----------------------------------------------------------------------
 # B3LYP/6-311++G(d,p) empiricaldispersion=gd3bj scf=xqc pop=npa geom=c
 heck
 ----------------------------------------------------------------------

 --------------------------------------
 CID_143358938_JID_131_Energie_neutraal
 --------------------------------------
 Structure from the checkpoint file:  "JID_131.chk"
 Charge =  0 Multiplicity = 1

 SCF Done:  E(RB3LYP) =  -460.067231438     A.U. after   14 cycles
 Normal termination of Gaussian 16 at Tue Dec  8 10:37:05 2020.

 ----------------------------------------------------------------------
 # B3LYP/6-311++G(d,p) empiricaldispersion=gd3bj scf=xqc pop=npa geom=c
 heck
 ----------------------------------------------------------------------

 ------------------------------------
 CID_143358938_JID_131_Energie_kation
 ------------------------------------
 Structure from the checkpoint file:  "JID_131.chk"
 Charge =  1 Multiplicity = 2

 SCF Done:  E(UB3LYP) =  -459.780632760     A.U. after   22 cycles
 Normal termination of Gaussian 16 at Tue Dec  8 10:44:04 2020.
 Gaussian 16:  ES64L-G16RevA.03 25-Dec-2016

 ----------------------------------------------------------------------
 # B3LYP/6-311++G(d,p) empiricaldispersion=gd3bj scf=xqc pop=npa geom=c
 heck
 ----------------------------------------------------------------------

 -----------------------------------
 CID_143358938_JID_131_Energie_anion
 -----------------------------------
 Structure from the checkpoint file:  "JID_131.chk"
 Charge = -1 Multiplicity = 2

                         Standard orientation:
 ---------------------------------------------------------------------
 Center     Atomic      Atomic             Coordinates (Angstroms)
 Number     Number       Type             X           Y           Z
 ---------------------------------------------------------------------
      1          6           0        2.962375    1.091920   -0.217603
      2          6           0        2.389732   -0.247256    0.174084
      3          6           0        3.176388   -1.273874    0.535523
      4          7           0        0.989016   -0.329761    0.222514
      5          6           0        0.159695    0.264816   -0.817173
      6          7           0       -1.172570    0.567239   -0.309255
      7          6           0       -1.292543    1.810499    0.437906
      8          6           0       -2.008071   -0.513828   -0.135526
      9          8           0       -1.661313   -1.642386   -0.476373
     10          6           0       -3.381613   -0.260417    0.463482
     11          1           0        4.032126    1.122741    0.000440
     12          1           0        2.471857    1.905245    0.331679
     13          1           0        2.839584    1.297652   -1.288693
     14          1           0        2.765676   -2.244648    0.800104
     15          1           0        4.251024   -1.154236    0.607335
     16          1           0        0.662250   -1.272736    0.414303
     17          1           0        0.610443    1.201284   -1.147703
     18          1           0        0.040509   -0.395201   -1.682590
     19          1           0       -1.038034    2.658292   -0.208149
     20          1           0       -2.311423    1.952325    0.795752
     21          1           0       -0.610872    1.810425    1.298851
     22          1           0       -3.308744   -0.044852    1.535892
     23          1           0       -3.895825    0.578970   -0.015504
     24          1           0       -3.968972   -1.169678    0.332295
 ---------------------------------------------------------------------

 SCF Done:  E(UB3LYP) =  -460.055088860     A.U. after   29 cycles

 The electronic state is 2-A.
 Alpha  occ. eigenvalues --  -18.98972 -14.23967 -14.21821 -10.17392 -10.13181
 Alpha  occ. eigenvalues --  -10.11431 -10.09325 -10.07186 -10.06989 -10.04669
 Alpha  occ. eigenvalues --   -0.94277  -0.85423  -0.80914  -0.67766  -0.64287
 Alpha  occ. eigenvalues --   -0.61028  -0.59545  -0.56254  -0.46899  -0.44491
 Alpha  occ. eigenvalues --   -0.41049  -0.39223  -0.38176  -0.37126  -0.35064
 Alpha  occ. eigenvalues --   -0.32638  -0.32055  -0.31492  -0.30455  -0.30047
 Alpha  occ. eigenvalues --   -0.29436  -0.29144  -0.28462  -0.26427  -0.25825
 Alpha  occ. eigenvalues --   -0.21085  -0.16449  -0.14879  -0.11215   0.04478
 Alpha virt. eigenvalues --    0.06731   0.08027   0.08704   0.09374   0.09602
 Alpha virt. eigenvalues --    0.09814   0.10809   0.11030   0.11418   0.11965
 Alpha virt. eigenvalues --    0.12619   0.13010   0.13770   0.14797   0.15031

  Beta  occ. eigenvalues --  -18.98966 -14.23964 -14.21815 -10.17389 -10.13162
  Beta  occ. eigenvalues --  -10.11428 -10.09259 -10.07141 -10.06948 -10.04657
  Beta  occ. eigenvalues --   -0.94266  -0.85408  -0.80898  -0.67739  -0.64233
  Beta  occ. eigenvalues --   -0.60949  -0.59485  -0.56208  -0.46864  -0.44431
  Beta  occ. eigenvalues --   -0.41003  -0.39182  -0.38134  -0.37088  -0.35025
  Beta  occ. eigenvalues --   -0.32598  -0.32012  -0.31453  -0.30419  -0.30007
  Beta  occ. eigenvalues --   -0.29393  -0.29109  -0.28413  -0.26397  -0.25796
  Beta  occ. eigenvalues --   -0.21059  -0.16418  -0.14860  -0.11189
  Beta virt. eigenvalues --    0.06961   0.07709   0.08700   0.09254   0.09683
  Beta virt. eigenvalues --    0.10129   0.10329   0.11118   0.11484   0.11923
  Beta virt. eigenvalues --    0.12377   0.13004   0.13700   0.14074   0.15077

 Mulliken charges and spin densities:
               1          2
     1  C    1.534750  -2.236325
     2  C   -0.710957   1.228453
     3  C   -0.266212  -0.397323
     4  N   -0.022294   0.057056
     5  C   -0.991535   0.412763
     6  N   -0.027463   0.219411
     7  C    1.880264  -2.223621
     8  C   -0.790379   0.981414
     9  O   -0.377122   0.015968
    10  C    1.561382  -2.187436
    11  H   -0.160557   0.300720
    12  H   -0.275689   0.443622
    13  H   -0.328023   0.491511
    14  H    0.121280  -0.044497
    15  H   -0.079390   0.199858
    16  H    0.124080   0.108922
    17  H    0.153092   0.022970
    18  H   -0.055527   0.280433
    19  H   -0.833386   0.996508
    20  H   -0.528244   0.701876
    21  H   -0.194921   0.377567
    22  H   -0.316777   0.494620
    23  H   -0.476944   0.656119
    24  H    0.060571   0.099412
 Sum of Mulliken charges =  -1.00000   1.00000

 Dipole moment (field-independent basis, Debye):
    X=              2.4616    Y=             -5.3423    Z=             -0.5301  Tot=              5.9060
 Quadrupole moment (field-independent basis, Debye-Ang):
   XX=           -126.7269   YY=           -112.7853   ZZ=            -92.3162
   XY=              3.8677   XZ=              3.2670   YZ=             -2.5576

 Summary of Natural Population Analysis:

                                       Natural Population
                Natural  -----------------------------------------------
    Atom  No    Charge         Core      Valence    Rydberg      Total
 -----------------------------------------------------------------------
      C    1   -0.30703      0.99962     2.30151    0.00590     3.30703
      C    2    0.10003      0.99952     1.88755    0.01290     2.89997
      C    3   -0.25375      0.99952     2.24732    0.00691     3.25375
      N    4   -0.32852      0.99967     2.81898    0.00987     3.82852
      C    5    0.01254      0.99959     1.97455    0.01332     2.98746
      N    6   -0.25907      0.99965     2.74639    0.01302     3.75907
      C    7   -0.17765      0.99963     2.16943    0.00859     3.17765
      C    8    0.35012      0.99965     1.62774    0.02248     2.64988
      O    9   -0.33429      0.99988     3.32863    0.00578     4.33429
      C   10   -0.33157      0.99963     2.32648    0.00546     3.33157
      H   11    0.10588      0.00000     0.39317    0.00094     0.39412
      H   12    0.10884      0.00000     0.38946    0.00170     0.39116
      H   13    0.10446      0.00000     0.39406    0.00147     0.39554
      H   14    0.09113      0.00000     0.40790    0.00097     0.40887
      H   15    0.09465      0.00000     0.40457    0.00078     0.40535
      H   16    0.18883      0.00000     0.30839    0.00278     0.31117
      H   17    0.09910      0.00000     0.39906    0.00184     0.40090
      H   18    0.09746      0.00000     0.40140    0.00114     0.40254
      H   19    0.10039      0.00000     0.39603    0.00358     0.39961
      H   20    0.10571      0.00000     0.39105    0.00324     0.39429
      H   21    0.09756      0.00000     0.40006    0.00238     0.40244
      H   22    0.11224      0.00000     0.38646    0.00130     0.38776
      H   23    0.11195      0.00000     0.38627    0.00178     0.38805
      H   24    0.11095      0.00000     0.38819    0.00086     0.38905
 =======================================================================
   * Total *    0.00000      9.99637    28.87465    0.12898    39.00000

 Normal termination of Gaussian 16 at Tue Dec  8 10:50:51 2020.
