 Gaussian 16, Revision A.03,

 -----------------------------------------------------------
 # opt freq B3LYP/6-31G(d) empiricaldispersion=gd3bj scf=xqc
 -----------------------------------------------------------

 -------------------------------
 CID_140337366_JID_3281_neutraal
 -------------------------------
 Symbolic Z-matrix:
 Charge =  0 Multiplicity = 1

 SCF Done:  E(RB3LYP) =  -508.649648880     A.U. after   13 cycles
 SCF Done:  E(RB3LYP) =  -508.653156110     A.U. after   12 cycles
 SCF Done:  E(RB3LYP) =  -508.654069883     A.U. after   12 cycles
 SCF Done:  E(RB3LYP) =  -508.654534907     A.U. after   10 cycles
 SCF Done:  E(RB3LYP) =  -508.655001862     A.U. after   11 cycles
 SCF Done:  E(RB3LYP) =  -508.655042013     A.U. after   10 cycles
 SCF Done:  E(RB3LYP) =  -508.655166336     A.U. after   10 cycles
 SCF Done:  E(RB3LYP) =  -508.655193968     A.U. after    9 cycles
 SCF Done:  E(RB3LYP) =  -508.655203901     A.U. after    9 cycles
 SCF Done:  E(RB3LYP) =  -508.655204548     A.U. after    7 cycles
 SCF Done:  E(RB3LYP) =  -508.655204745     A.U. after    7 cycles
 Optimization completed.
    -- Stationary point found.
 Normal termination of Gaussian 16 at Wed Dec  9 22:46:37 2020.

 --------------------------------------------------------------------
 #N Geom=AllCheck Guess=TCheck SCRF=Check GenChk RB3LYP/6-31G(d) Freq
 --------------------------------------------------------------------

 Structure from the checkpoint file:  "JID_3281.chk"
 -------------------------------
 CID_140337366_JID_3281_neutraal
 -------------------------------
 Charge =  0 Multiplicity = 1

 SCF Done:  E(RB3LYP) =  -508.655204745     A.U. after    1 cycles

  Exact polarizability: 141.861  -9.319 121.139  -4.786   1.850 122.719
 Approx polarizability: 184.989 -15.609 179.867 -11.504   5.729 182.278

                      1                      2                      3
                      A                      A                      A
 Frequencies --     49.8277                59.4097                88.2826
 Red. masses --      2.9667                 3.2825                 2.8098
 Frc consts  --      0.0043                 0.0068                 0.0129
 IR Inten    --      0.0368                 0.0868                 0.0092

                      4                      5                      6
                      A                      A                      A
 Frequencies --    118.8904               157.1764               223.6653
 Red. masses --      2.7669                 3.0145                 1.3150
 Frc consts  --      0.0230                 0.0439                 0.0388
 IR Inten    --      0.0649                 0.1778                 0.0213

                      7                      8                      9
                      A                      A                      A
 Frequencies --    237.5103               244.1023               272.9232
 Red. masses --      2.0296                 1.5332                 1.8820
 Frc consts  --      0.0675                 0.0538                 0.0826
 IR Inten    --      0.1194                 0.0126                 0.0940

                     10                     11                     12
                      A                      A                      A
 Frequencies --    278.9907               292.1065               308.4870
 Red. masses --      1.8432                 2.2058                 2.2724
 Frc consts  --      0.0845                 0.1109                 0.1274
 IR Inten    --      0.0777                 0.0563                 0.1642

                     13                     14                     15
                      A                      A                      A
 Frequencies --    360.0363               386.2265               407.1136
 Red. masses --      2.5252                 1.9259                 1.9907
 Frc consts  --      0.1929                 0.1693                 0.1944
 IR Inten    --      0.2785                 0.0677                 0.0284

                     16                     17                     18
                      A                      A                      A
 Frequencies --    446.3537               466.0766               492.9882
 Red. masses --      2.7011                 2.3882                 3.2360
 Frc consts  --      0.3171                 0.3057                 0.4634
 IR Inten    --      1.0509                 1.2582                 1.3325

                     19                     20                     21
                      A                      A                      A
 Frequencies --    528.5211               618.9636               668.7540
 Red. masses --      2.6918                 2.1405                 2.2842
 Frc consts  --      0.4430                 0.4832                 0.6019
 IR Inten    --      2.0951                 6.8133                 4.8769

                     22                     23                     24
                      A                      A                      A
 Frequencies --    701.1749               738.1490               786.5986
 Red. masses --      3.0341                 1.6075                 1.4079
 Frc consts  --      0.8789                 0.5160                 0.5132
 IR Inten    --      2.3936                13.6420                 3.0976

                     25                     26                     27
                      A                      A                      A
 Frequencies --    809.1680               844.2204               872.5866
 Red. masses --      1.3978                 2.3600                 2.6397
 Frc consts  --      0.5392                 0.9910                 1.1842
 IR Inten    --      1.0735                 2.4862                 4.7177

                     28                     29                     30
                      A                      A                      A
 Frequencies --    884.9476               915.3014               922.1095
 Red. masses --      1.6688                 2.3595                 1.9052
 Frc consts  --      0.7700                 1.1647                 0.9544
 IR Inten    --      2.3287                 2.9495                 0.7158

                     31                     32                     33
                      A                      A                      A
 Frequencies --    936.9921               940.2412               948.1487
 Red. masses --      1.6182                 1.7516                 1.3442
 Frc consts  --      0.8371                 0.9123                 0.7120
 IR Inten    --      2.0929                 1.0150                 4.0872

                     34                     35                     36
                      A                      A                      A
 Frequencies --    970.4447               982.0357               989.2661
 Red. masses --      1.5374                 1.5352                 1.7534
 Frc consts  --      0.8530                 0.8723                 1.0110
 IR Inten    --      0.4317                 0.8829                 2.3716

                     37                     38                     39
                      A                      A                      A
 Frequencies --    999.3115              1008.9616              1060.5591
 Red. masses --      1.6555                 1.6867                 1.3636
 Frc consts  --      0.9741                 1.0116                 0.9037
 IR Inten    --      8.2434                 2.3126                 8.3455

                     40                     41                     42
                      A                      A                      A
 Frequencies --   1072.7758              1085.1228              1086.8573
 Red. masses --      1.7999                 1.4465                 1.8690
 Frc consts  --      1.2204                 1.0035                 1.3008
 IR Inten    --      2.8218                 1.6002                 0.2709

                     43                     44                     45
                      A                      A                      A
 Frequencies --   1095.5671              1115.0528              1127.5818
 Red. masses --      2.3858                 1.9286                 1.8492
 Frc consts  --      1.6872                 1.4128                 1.3853
 IR Inten    --      1.5686                 1.1874                 3.1744

                     46                     47                     48
                      A                      A                      A
 Frequencies --   1151.7007              1168.6306              1192.9915
 Red. masses --      1.9565                 1.1595                 1.5995
 Frc consts  --      1.5290                 0.9330                 1.3413
 IR Inten    --      2.2380                 6.0176                 3.8087

                     49                     50                     51
                      A                      A                      A
 Frequencies --   1204.0745              1215.7158              1260.3926
 Red. masses --      1.3846                 1.3525                 1.2122
 Frc consts  --      1.1827                 1.1777                 1.1346
 IR Inten    --      0.6364                 2.2482                 0.8886

                     52                     53                     54
                      A                      A                      A
 Frequencies --   1270.8145              1282.3953              1301.2532
 Red. masses --      1.4461                 1.7620                 1.4541
 Frc consts  --      1.3760                 1.7073                 1.4507
 IR Inten    --      0.4380                 1.5820                 0.3627

                     55                     56                     57
                      A                      A                      A
 Frequencies --   1304.9489              1353.1932              1365.2340
 Red. masses --      1.4694                 1.3224                 1.3234
 Frc consts  --      1.4742                 1.4267                 1.4533
 IR Inten    --      0.5338                 2.4049                 6.9904

                     58                     59                     60
                      A                      A                      A
 Frequencies --   1374.4750              1390.4688              1397.4939
 Red. masses --      1.4617                 1.5476                 1.5567
 Frc consts  --      1.6269                 1.7629                 1.7913
 IR Inten    --      1.5844                 7.6356                 0.5506

                     61                     62                     63
                      A                      A                      A
 Frequencies --   1402.7559              1403.9382              1412.4259
 Red. masses --      1.5775                 1.4956                 1.4200
 Frc consts  --      1.8289                 1.7368                 1.6691
 IR Inten    --      0.4390                 9.0515                 0.4174

                     64                     65                     66
                      A                      A                      A
 Frequencies --   1431.2654              1444.8202              1448.9479
 Red. masses --      1.3030                 1.5018                 1.2544
 Frc consts  --      1.5727                 1.8472                 1.5517
 IR Inten    --      6.3083                 0.0596                 7.2737

                     67                     68                     69
                      A                      A                      A
 Frequencies --   1493.4671              1507.4898              1517.1554
 Red. masses --      1.0853                 1.0894                 1.0755
 Frc consts  --      1.4263                 1.4587                 1.4586
 IR Inten    --      1.6226                 2.3541                 2.8710

                     70                     71                     72
                      A                      A                      A
 Frequencies --   1519.7158              1522.1677              1529.2300
 Red. masses --      1.0891                 1.0902                 1.0639
 Frc consts  --      1.4820                 1.4883                 1.4659
 IR Inten    --      1.4707                 1.5973                 2.8426

                     73                     74                     75
                      A                      A                      A
 Frequencies --   1530.6727              1536.6635              1541.6003
 Red. masses --      1.0989                 1.1274                 1.1635
 Frc consts  --      1.5170                 1.5685                 1.6292
 IR Inten    --      0.7868                 6.1116                 5.1188

                     76                     77                     78
                      A                      A                      A
 Frequencies --   1549.3141              1734.6192              2972.9548
 Red. masses --      1.0601                 6.6622                 1.0820
 Frc consts  --      1.4992                11.8107                 5.6345
 IR Inten    --      3.4528                 2.5603                25.9903

                     79                     80                     81
                      A                      A                      A
 Frequencies --   3003.8735              3031.6171              3033.7799
 Red. masses --      1.0702                 1.0613                 1.0658
 Frc consts  --      5.6897                 5.7468                 5.7797
 IR Inten    --     31.1965                31.9172                13.7374

                     82                     83                     84
                      A                      A                      A
 Frequencies --   3045.1254              3048.8224              3050.4225
 Red. masses --      1.0368                 1.0625                 1.0446
 Frc consts  --      5.6643                 5.8188                 5.7271
 IR Inten    --     20.2089                43.6394                45.0961

                     85                     86                     87
                      A                      A                      A
 Frequencies --   3053.7153              3063.6676              3063.7196
 Red. masses --      1.0839                 1.0829                 1.1012
 Frc consts  --      5.9551                 5.9887                 6.0900
 IR Inten    --     38.2722                25.7967                35.6005

                     88                     89                     90
                      A                      A                      A
 Frequencies --   3079.1692              3100.8744              3104.8802
 Red. masses --      1.1006                 1.0975                 1.1021
 Frc consts  --      6.1484                 6.2178                 6.2598
 IR Inten    --     46.4711                50.2881                 0.5075

                     91                     92                     93
                      A                      A                      A
 Frequencies --   3113.3305              3123.1092              3125.5057
 Red. masses --      1.1004                 1.1001                 1.0999
 Frc consts  --      6.2840                 6.3222                 6.3307
 IR Inten    --     75.5493                25.2999                26.4603

                     94                     95                     96
                      A                      A                      A
 Frequencies --   3142.1961              3150.9719              3153.2210
 Red. masses --      1.0541                 1.0622                 1.0824
 Frc consts  --      6.1322                 6.2137                 6.3410
 IR Inten    --     27.7576                23.2266                11.1357

                     97                     98                     99
                      A                      A                      A
 Frequencies --   3184.3744              3215.8024              3235.5575
 Red. masses --      1.0937                 1.1170                 1.1134
 Frc consts  --      6.5345                 6.8056                 6.8676
 IR Inten    --     31.6510                 6.3598                20.9468

 - Thermochemistry -
 -------------------
 Temperature   298.150 Kelvin.  Pressure   1.00000 Atm.
 Atom     1 has atomic number  6 and mass  12.00000

 Molecular mass:   178.17215 amu.
 Principal axes and moments of inertia in atomic units:
                           1         2         3
     Eigenvalues --  1458.514013412.643713565.67618
           X            0.99998   0.00107   0.00601
           Y           -0.00116   0.99989   0.01483
           Z           -0.00599  -0.01483   0.99987
 This molecule is an asymmetric top.
 Rotational symmetry number  1.
 Warning -- assumption of classical behavior for rotation
           may cause significant error
 Rotational temperatures (Kelvin)      0.05939     0.02538     0.02429
 Rotational constants (GHZ):           1.23738     0.52884     0.50614
 Zero-point vibrational energy     852077.9 (Joules/Mol)
                                  203.65151 (Kcal/Mol)
 Warning -- explicit consideration of  20 degrees of freedom as
           vibrations may cause significant error
 Vibrational temperatures:     71.69    85.48   127.02   171.06   226.14
          (Kelvin)            321.80   341.72   351.21   392.68   401.41
                              420.28   443.84   518.01   555.69   585.75
                              642.20   670.58   709.30   760.42   890.55
                              962.19  1008.83  1062.03  1131.74  1164.21
                             1214.64  1255.46  1273.24  1316.91  1326.71
                             1348.12  1352.80  1364.17  1396.25  1412.93
                             1423.33  1437.79  1451.67  1525.91  1543.49
                             1561.25  1563.75  1576.28  1604.31  1622.34
                             1657.04  1681.40  1716.45  1732.39  1749.14
                             1813.42  1828.42  1845.08  1872.21  1877.53
                             1946.94  1964.27  1977.56  2000.57  2010.68
                             2018.25  2019.95  2032.17  2059.27  2078.77
                             2084.71  2148.77  2168.94  2182.85  2186.53
                             2190.06  2200.22  2202.30  2210.92  2218.02
                             2229.12  2495.73  4277.42  4321.90  4361.82
                             4364.93  4381.26  4386.58  4388.88  4393.62
                             4407.93  4408.01  4430.24  4461.47  4467.23
                             4479.39  4493.46  4496.91  4520.92  4533.55
                             4536.78  4581.60  4626.82  4655.25

 Zero-point correction=                           0.324539 (Hartree/Particle)
 Thermal correction to Energy=                    0.338017
 Thermal correction to Enthalpy=                  0.338962
 Thermal correction to Gibbs Free Energy=         0.285169
 Sum of electronic and zero-point Energies=           -508.330665
 Sum of electronic and thermal Energies=              -508.317187
 Sum of electronic and thermal Enthalpies=            -508.316243
 Sum of electronic and thermal Free Energies=         -508.370036

                     E (Thermal)             CV                S
                      KCal/Mol        Cal/Mol-Kelvin    Cal/Mol-Kelvin
 Total                  212.109             53.890            113.217
 Electronic               0.000              0.000              0.000
 Translational            0.889              2.981             41.440
 Rotational               0.889              2.981             31.251
 Vibrational            210.332             47.929             40.526
 Vibration     1          0.595              1.978              4.824
 Vibration     2          0.597              1.974              4.477
 Vibration     3          0.601              1.957              3.698
 Vibration     4          0.609              1.934              3.118
 Vibration     5          0.621              1.895              2.583
 Vibration     6          0.649              1.805              1.929
 Vibration     7          0.656              1.783              1.821
 Vibration     8          0.659              1.773              1.773
 Vibration     9          0.676              1.723              1.578
 Vibration    10          0.679              1.712              1.540
 Vibration    11          0.687              1.688              1.462
 Vibration    12          0.698              1.658              1.370
 Vibration    13          0.735              1.555              1.122
 Vibration    14          0.755              1.500              1.015
 Vibration    15          0.772              1.455              0.937
 Vibration    16          0.806              1.369              0.807
 Vibration    17          0.823              1.325              0.749
 Vibration    18          0.849              1.266              0.676
 Vibration    19          0.883              1.187              0.591
 Vibration    20          0.979              0.992              0.418

 Optimization completed.
    -- Stationary point found.
 Normal termination of Gaussian 16 at Wed Dec  9 22:57:10 2020.

 ----------------------------------------------------------------------
 # B3LYP/6-311++G(d,p) empiricaldispersion=gd3bj scf=xqc pop=npa geom=c
 heck
 ----------------------------------------------------------------------

 ---------------------------------------
 CID_140337366_JID_3281_Energie_neutraal
 ---------------------------------------
 Structure from the checkpoint file:  "JID_3281.chk"
 Charge =  0 Multiplicity = 1

 SCF Done:  E(RB3LYP) =  -508.791257795     A.U. after   13 cycles
 Normal termination of Gaussian 16 at Wed Dec  9 23:01:20 2020.

 ----------------------------------------------------------------------
 # B3LYP/6-311++G(d,p) empiricaldispersion=gd3bj scf=xqc pop=npa geom=c
 heck
 ----------------------------------------------------------------------

 -------------------------------------
 CID_140337366_JID_3281_Energie_kation
 -------------------------------------
 Structure from the checkpoint file:  "JID_3281.chk"
 Charge =  1 Multiplicity = 2

 SCF Done:  E(UB3LYP) =  -508.482712803     A.U. after   21 cycles
 Normal termination of Gaussian 16 at Wed Dec  9 23:10:04 2020.
 Gaussian 16:  ES64L-G16RevA.03 25-Dec-2016

 ----------------------------------------------------------------------
 # B3LYP/6-311++G(d,p) empiricaldispersion=gd3bj scf=xqc pop=npa geom=c
 heck
 ----------------------------------------------------------------------

 ------------------------------------
 CID_140337366_JID_3281_Energie_anion
 ------------------------------------
 Structure from the checkpoint file:  "JID_3281.chk"
 Charge = -1 Multiplicity = 2

                         Standard orientation:
 ---------------------------------------------------------------------
 Center     Atomic      Atomic             Coordinates (Angstroms)
 Number     Number       Type             X           Y           Z
 ---------------------------------------------------------------------
      1          6           0        2.169144    1.448256    1.400216
      2          6           0        1.323025    1.007230    0.198465
      3          6           0        1.609013    1.918182   -1.005615
      4          6           0        1.483936   -0.470062   -0.194517
      5          6           0        2.882610   -1.006201   -0.410697
      6          6           0        2.078688   -1.466140    0.779542
      7          6           0        0.433301   -1.036896   -1.152999
      8          6           0       -1.060348   -0.949188   -0.729172
      9          6           0       -1.761545    0.324000   -1.240588
     10          6           0       -3.159444    0.473897   -0.633331
     11          6           0       -3.074018    0.601536    0.893714
     12          6           0       -2.144997   -0.430229    1.482260
     13          6           0       -1.264448   -1.128100    0.758435
     14          1           0        3.241842    1.294760    1.231081
     15          1           0        1.886210    0.914336    2.312360
     16          1           0        2.020835    2.518038    1.585174
     17          1           0        0.277823    1.144953    0.497783
     18          1           0        2.657538    1.828649   -1.314111
     19          1           0        0.987401    1.664967   -1.870159
     20          1           0        1.420198    2.968774   -0.755911
     21          1           0        3.043091   -1.701260   -1.231080
     22          1           0        3.724572   -0.344663   -0.226794
     23          1           0        2.388989   -1.130683    1.763059
     24          1           0        1.685584   -2.479396    0.767849
     25          1           0        0.535051   -0.563017   -2.138917
     26          1           0        0.683661   -2.093474   -1.310382
     27          1           0       -1.558031   -1.797453   -1.228003
     28          1           0       -1.815589    0.290321   -2.336090
     29          1           0       -1.168702    1.209445   -0.985727
     30          1           0       -3.674691    1.342446   -1.060630
     31          1           0       -3.760583   -0.410119   -0.886576
     32          1           0       -2.728647    1.611178    1.167893
     33          1           0       -4.072236    0.500398    1.340664
     34          1           0       -2.217561   -0.610284    2.554132
     35          1           0       -0.646256   -1.875626    1.250114
 ---------------------------------------------------------------------

 SCF Done:  E(UB3LYP) =  -508.774016669     A.U. after   33 cycles
 SCF Done:  E(UB3LYP) =  -508.774016669     a.u. after    1 cycles

 The electronic state is 2-A.
 Alpha  occ. eigenvalues --  -10.08264 -10.07294 -10.07178 -10.06810 -10.06783
 Alpha  occ. eigenvalues --  -10.06612 -10.06383 -10.06071 -10.05966 -10.05900
 Alpha  occ. eigenvalues --  -10.05815 -10.05750 -10.05535  -0.77246  -0.73177
 Alpha  occ. eigenvalues --   -0.67986  -0.66106  -0.63721  -0.59119  -0.57805
 Alpha  occ. eigenvalues --   -0.51990  -0.50482  -0.49777  -0.48963  -0.42822
 Alpha  occ. eigenvalues --   -0.41449  -0.39446  -0.38471  -0.35706  -0.35050
 Alpha  occ. eigenvalues --   -0.33829  -0.32717  -0.32076  -0.30378  -0.30012
 Alpha  occ. eigenvalues --   -0.29193  -0.28338  -0.27776  -0.27731  -0.26411
 Alpha  occ. eigenvalues --   -0.25768  -0.24539  -0.23722  -0.22966  -0.22227
 Alpha  occ. eigenvalues --   -0.21002  -0.20197  -0.18222  -0.17054  -0.13859
 Alpha  occ. eigenvalues --    0.04610
 Alpha virt. eigenvalues --    0.06786   0.06886   0.07204   0.08637   0.08878
 Alpha virt. eigenvalues --    0.09021   0.09325   0.09768   0.10940   0.11092
 Alpha virt. eigenvalues --    0.11285   0.11846   0.11987   0.12403   0.12958

  Beta  occ. eigenvalues --  -10.08264 -10.07286 -10.07171 -10.06795 -10.06769
  Beta  occ. eigenvalues --  -10.06598 -10.06363 -10.06059 -10.05945 -10.05890
  Beta  occ. eigenvalues --  -10.05792 -10.05732 -10.05515  -0.77235  -0.73149
  Beta  occ. eigenvalues --   -0.67964  -0.66073  -0.63687  -0.59080  -0.57763
  Beta  occ. eigenvalues --   -0.51951  -0.50435  -0.49720  -0.48916  -0.42782
  Beta  occ. eigenvalues --   -0.41415  -0.39422  -0.38427  -0.35670  -0.35018
  Beta  occ. eigenvalues --   -0.33796  -0.32681  -0.32049  -0.30349  -0.29983
  Beta  occ. eigenvalues --   -0.29160  -0.28312  -0.27749  -0.27701  -0.26379
  Beta  occ. eigenvalues --   -0.25745  -0.24512  -0.23692  -0.22927  -0.22199
  Beta  occ. eigenvalues --   -0.20971  -0.20164  -0.18199  -0.17040  -0.13829
  Beta virt. eigenvalues --    0.06635   0.07422   0.07613   0.07839   0.09092
  Beta virt. eigenvalues --    0.09304   0.09526   0.09836   0.10134   0.11167
  Beta virt. eigenvalues --    0.11509   0.11569   0.12205   0.12327   0.12835

 Mulliken charges and spin densities:
               1          2
     1  C    0.617152  -1.247897
     2  C   -1.987720   2.045585
     3  C   -0.164085  -0.548947
     4  C   -0.561616   1.570014
     5  C    0.510507  -0.951643
     6  C    0.319113  -0.797429
     7  C    1.323163  -2.246615
     8  C   -0.004553   0.477603
     9  C   -1.039479   0.766134
    10  C    0.505254  -1.027379
    11  C    1.496023  -2.007711
    12  C   -0.682017   0.478734
    13  C    0.371851  -0.578639
    14  H   -0.087257   0.228340
    15  H   -0.130537   0.262243
    16  H   -0.157792   0.310739
    17  H    0.807707  -0.666131
    18  H   -0.081888   0.228850
    19  H   -0.096964   0.224182
    20  H   -0.178098   0.321171
    21  H   -0.129996   0.278186
    22  H    0.121813   0.014089
    23  H    0.107287   0.039682
    24  H   -0.184957   0.318973
    25  H    0.236940  -0.055034
    26  H   -0.205894   0.354933
    27  H   -0.206822   0.409874
    28  H   -0.291363   0.458466
    29  H   -0.087569   0.255107
    30  H   -0.351945   0.520766
    31  H   -0.060894   0.193844
    32  H   -0.267209   0.417082
    33  H   -0.140146   0.297215
    34  H   -0.513877   0.682858
    35  H    0.195867  -0.027248
 Sum of Mulliken charges =  -1.00000   1.00000

 Dipole moment (field-independent basis, Debye):
    X=              2.8062    Y=             -1.4261    Z=             -0.2482  Tot=              3.1575
 Quadrupole moment (field-independent basis, Debye-Ang):
   XX=           -147.9925   YY=           -130.0335   ZZ=           -127.9138
   XY=              2.5945   XZ=             -0.3995   YZ=             -1.2189

 Summary of Natural Population Analysis:

                                       Natural Population
                Natural  -----------------------------------------------
    Atom  No    Charge         Core      Valence    Rydberg      Total
 -----------------------------------------------------------------------
      C    1   -0.28354      0.99965     2.27790    0.00600     3.28354
      C    2   -0.11598      0.99956     2.10614    0.01029     3.11598
      C    3   -0.28360      0.99965     2.27819    0.00577     3.28360
      C    4   -0.03765      0.99953     2.02375    0.01437     3.03765
      C    5   -0.19931      0.99958     2.19111    0.00862     3.19931
      C    6   -0.19518      0.99958     2.18700    0.00860     3.19518
      C    7   -0.17865      0.99957     2.16784    0.01124     3.17865
      C    8   -0.12528      0.99957     2.11408    0.01163     3.12528
      C    9   -0.18741      0.99961     2.17879    0.00900     3.18741
      C   10   -0.18593      0.99963     2.17829    0.00801     3.18593
      C   11   -0.20615      0.99962     2.19777    0.00875     3.20615
      C   12   -0.09143      0.99952     2.08165    0.01025     3.09143
      C   13   -0.09320      0.99951     2.08328    0.01041     3.09320
      H   14    0.09419      0.00000     0.40478    0.00103     0.40581
      H   15    0.10093      0.00000     0.39797    0.00110     0.39907
      H   16    0.10105      0.00000     0.39813    0.00082     0.39895
      H   17    0.10274      0.00000     0.39413    0.00313     0.39726
      H   18    0.09589      0.00000     0.40311    0.00099     0.40411
      H   19    0.10063      0.00000     0.39841    0.00096     0.39937
      H   20    0.09861      0.00000     0.40055    0.00084     0.40139
      H   21    0.10073      0.00000     0.39830    0.00097     0.39927
      H   22    0.10123      0.00000     0.39784    0.00093     0.39877
      H   23    0.10405      0.00000     0.39490    0.00105     0.39595
      H   24    0.10055      0.00000     0.39830    0.00115     0.39945
      H   25    0.10043      0.00000     0.39824    0.00134     0.39957
      H   26    0.09828      0.00000     0.40022    0.00150     0.40172
      H   27    0.10189      0.00000     0.39638    0.00174     0.39811
      H   28    0.09907      0.00000     0.39950    0.00143     0.40093
      H   29    0.09532      0.00000     0.40240    0.00228     0.40468
      H   30    0.09920      0.00000     0.39949    0.00131     0.40080
      H   31    0.09322      0.00000     0.40526    0.00152     0.40678
      H   32    0.10042      0.00000     0.39786    0.00172     0.39958
      H   33    0.10121      0.00000     0.39746    0.00133     0.39879
      H   34    0.09544      0.00000     0.40350    0.00106     0.40456
      H   35    0.09823      0.00000     0.40008    0.00170     0.40177
 =======================================================================
   * Total *   -0.00000     12.99458    36.85260    0.15282    50.00000

 Normal termination of Gaussian 16 at Wed Dec  9 23:23:34 2020.
