 Gaussian 16, Revision A.03,

 -----------------------------------------------------------
 # opt freq B3LYP/6-31G(d) empiricaldispersion=gd3bj scf=xqc
 -----------------------------------------------------------

 --------------------------------
 CID_115995456_JID_10320_neutraal
 --------------------------------
 Symbolic Z-matrix:
 Charge =  0 Multiplicity = 1

 SCF Done:  E(RB3LYP) =  -877.936292552     A.U. after   16 cycles
 SCF Done:  E(RB3LYP) =  -877.943879388     A.U. after   13 cycles
 SCF Done:  E(RB3LYP) =  -877.946600883     A.U. after   14 cycles
 SCF Done:  E(RB3LYP) =  -877.948289092     A.U. after   15 cycles
 SCF Done:  E(RB3LYP) =  -877.949178966     A.U. after   13 cycles
 SCF Done:  E(RB3LYP) =  -877.949425540     A.U. after   13 cycles
 SCF Done:  E(RB3LYP) =  -877.949589244     A.U. after   12 cycles
 SCF Done:  E(RB3LYP) =  -877.949643415     A.U. after   11 cycles
 SCF Done:  E(RB3LYP) =  -877.949657013     A.U. after   11 cycles
 SCF Done:  E(RB3LYP) =  -877.949672893     A.U. after   10 cycles
 SCF Done:  E(RB3LYP) =  -877.949714789     A.U. after    8 cycles
 SCF Done:  E(RB3LYP) =  -877.949714896     A.U. after    8 cycles
 SCF Done:  E(RB3LYP) =  -877.949715191     A.U. after    8 cycles
 SCF Done:  E(RB3LYP) =  -877.949715210     A.U. after    7 cycles
 Optimization completed.
    -- Stationary point found.
 Normal termination of Gaussian 16 at Sat Dec 12 15:24:28 2020.

 --------------------------------------------------------------------
 #N Geom=AllCheck Guess=TCheck SCRF=Check GenChk RB3LYP/6-31G(d) Freq
 --------------------------------------------------------------------

 Structure from the checkpoint file:  "JID_10320.chk"
 --------------------------------
 CID_115995456_JID_10320_neutraal
 --------------------------------
 Charge =  0 Multiplicity = 1

 SCF Done:  E(RB3LYP) =  -877.949715210     A.U. after    1 cycles

  Exact polarizability: 222.521   3.538 175.485  17.425   2.105 141.951
 Approx polarizability: 336.261  -8.144 274.856  35.214   8.979 210.899

                      1                      2                      3
                      A                      A                      A
 Frequencies --     28.2904                39.8352                44.1896
 Red. masses --      4.2270                 4.2816                 5.8277
 Frc consts  --      0.0020                 0.0040                 0.0067
 IR Inten    --      0.2089                 0.3384                 0.8079

                      4                      5                      6
                      A                      A                      A
 Frequencies --     56.9447                74.2756                79.2773
 Red. masses --      3.4126                 4.7983                 3.5076
 Frc consts  --      0.0065                 0.0156                 0.0130
 IR Inten    --      0.1246                 1.0819                 0.6222

                      7                      8                      9
                      A                      A                      A
 Frequencies --     88.3190               107.4116               136.7049
 Red. masses --      4.8056                 2.0598                 3.0147
 Frc consts  --      0.0221                 0.0140                 0.0332
 IR Inten    --      1.1276                 0.0771                 0.6857

                     10                     11                     12
                      A                      A                      A
 Frequencies --    157.9497               182.1162               201.1336
 Red. masses --      2.8996                 2.5603                 3.1793
 Frc consts  --      0.0426                 0.0500                 0.0758
 IR Inten    --      4.0790                 7.7153                 9.9096

                     13                     14                     15
                      A                      A                      A
 Frequencies --    211.7328               241.2801               259.4682
 Red. masses --      2.9865                 1.8564                 1.3120
 Frc consts  --      0.0789                 0.0637                 0.0520
 IR Inten    --      4.1018                10.9592                 2.4349

                     16                     17                     18
                      A                      A                      A
 Frequencies --    266.9530               278.0298               307.7212
 Red. masses --      1.6172                 1.9790                 3.2676
 Frc consts  --      0.0679                 0.0901                 0.1823
 IR Inten    --    146.9727                65.8920                 0.3201

                     19                     20                     21
                      A                      A                      A
 Frequencies --    323.9970               345.5021               384.3387
 Red. masses --      2.7630                 3.4790                 3.2328
 Frc consts  --      0.1709                 0.2447                 0.2814
 IR Inten    --      1.9076                 8.0679                 5.7787

                     22                     23                     24
                      A                      A                      A
 Frequencies --    422.8313               425.5032               478.7427
 Red. masses --      3.5490                 3.5000                 2.7509
 Frc consts  --      0.3738                 0.3734                 0.3715
 IR Inten    --      0.4273                 1.1005                 0.9267

                     25                     26                     27
                      A                      A                      A
 Frequencies --    493.1892               513.8516               569.2538
 Red. masses --      4.7311                 4.3662                 1.4205
 Frc consts  --      0.6780                 0.6792                 0.2712
 IR Inten    --      2.3196                 1.4116                 9.9154

                     28                     29                     30
                      A                      A                      A
 Frequencies --    577.8302               587.4646               604.0021
 Red. masses --      2.7001                 3.9497                 2.9174
 Frc consts  --      0.5312                 0.8031                 0.6271
 IR Inten    --      5.9025                 3.5976                 7.0022

                     31                     32                     33
                      A                      A                      A
 Frequencies --    642.6960               671.2018               681.5300
 Red. masses --      3.6398                 3.6541                 4.2634
 Frc consts  --      0.8858                 0.9699                 1.1667
 IR Inten    --      9.2220                20.8414                 0.0212

                     34                     35                     36
                      A                      A                      A
 Frequencies --    696.1613               726.5421               758.5282
 Red. masses --      3.2618                 2.0979                 2.7718
 Frc consts  --      0.9314                 0.6525                 0.9396
 IR Inten    --     42.5053                73.4950                 3.9747

                     37                     38                     39
                      A                      A                      A
 Frequencies --    768.4417               778.0597               785.7554
 Red. masses --      1.5502                 1.3996                 2.4967
 Frc consts  --      0.5393                 0.4992                 0.9082
 IR Inten    --     51.4454                31.7398                 7.9570

                     40                     41                     42
                      A                      A                      A
 Frequencies --    794.5316               797.5760               851.8659
 Red. masses --      2.8602                 1.2497                 1.6918
 Frc consts  --      1.0638                 0.4684                 0.7233
 IR Inten    --      4.2562                10.2997                20.4050

                     43                     44                     45
                      A                      A                      A
 Frequencies --    871.3747               885.3262               901.7568
 Red. masses --      1.3698                 1.4267                 1.8992
 Frc consts  --      0.6128                 0.6589                 0.9099
 IR Inten    --      1.9449                 2.6422                12.4105

                     46                     47                     48
                      A                      A                      A
 Frequencies --    929.8600               952.7297               980.7180
 Red. masses --      1.6704                 1.3662                 5.2615
 Frc consts  --      0.8510                 0.7306                 2.9816
 IR Inten    --      3.8670                 1.0416                12.4597

                     49                     50                     51
                      A                      A                      A
 Frequencies --    987.0064              1016.5522              1023.7984
 Red. masses --      1.2682                 5.3936                 2.9709
 Frc consts  --      0.7279                 3.2839                 1.8347
 IR Inten    --      0.1444                 7.9629                 2.2615

                     52                     53                     54
                      A                      A                      A
 Frequencies --   1053.3956              1071.8085              1072.9230
 Red. masses --      2.0202                 2.3265                 1.4313
 Frc consts  --      1.3208                 1.5747                 0.9708
 IR Inten    --      0.5953                 1.1407                28.6173

                     55                     56                     57
                      A                      A                      A
 Frequencies --   1087.3698              1100.9755              1107.6103
 Red. masses --      2.7548                 1.9221                 1.9837
 Frc consts  --      1.9191                 1.3727                 1.4338
 IR Inten    --      9.4854                12.0461                 3.4187

                     58                     59                     60
                      A                      A                      A
 Frequencies --   1113.2444              1126.1725              1141.7797
 Red. masses --      1.7324                 2.0493                 1.8363
 Frc consts  --      1.2649                 1.5313                 1.4105
 IR Inten    --      2.2512                 4.6376                11.6387

                     61                     62                     63
                      A                      A                      A
 Frequencies --   1179.3041              1194.2418              1208.7419
 Red. masses --      3.1354                 1.1583                 1.6201
 Frc consts  --      2.5692                 0.9733                 1.3947
 IR Inten    --     50.6001                 1.2493                 4.9227

                     64                     65                     66
                      A                      A                      A
 Frequencies --   1217.1389              1223.8897              1277.4219
 Red. masses --      2.2659                 2.3520                 1.5578
 Frc consts  --      1.9778                 2.0757                 1.4977
 IR Inten    --      3.7246                21.9191                 2.2538

                     67                     68                     69
                      A                      A                      A
 Frequencies --   1290.2610              1308.0533              1328.1595
 Red. masses --      2.7993                 1.5881                 1.4339
 Frc consts  --      2.7457                 1.6009                 1.4903
 IR Inten    --     15.8063                 5.5110                 9.2472

                     70                     71                     72
                      A                      A                      A
 Frequencies --   1334.3330              1345.3277              1364.7204
 Red. masses --      2.6318                 2.5006                 1.6684
 Frc consts  --      2.7608                 2.6666                 1.8308
 IR Inten    --    104.1573                37.7522                 1.6423

                     73                     74                     75
                      A                      A                      A
 Frequencies --   1388.2687              1403.0467              1414.8267
 Red. masses --      1.4367                 1.2554                 6.6327
 Frc consts  --      1.6315                 1.4561                 7.8225
 IR Inten    --      0.4138                12.4426                51.4067

                     76                     77                     78
                      A                      A                      A
 Frequencies --   1423.7908              1436.9198              1441.3364
 Red. masses --      1.3848                 1.2734                 1.2685
 Frc consts  --      1.6540                 1.5491                 1.5527
 IR Inten    --      4.8315                12.5776                 0.3326

                     79                     80                     81
                      A                      A                      A
 Frequencies --   1448.4694              1502.2127              1506.3721
 Red. masses --      3.3089                 2.2615                 1.0773
 Frc consts  --      4.0903                 3.0069                 1.4403
 IR Inten    --     17.4410                 6.2477                 1.3057

                     82                     83                     84
                      A                      A                      A
 Frequencies --   1517.9097              1519.8350              1520.5331
 Red. masses --      1.0877                 2.0464                 1.5533
 Frc consts  --      1.4766                 2.7851                 2.1159
 IR Inten    --      4.5281                11.3484                24.4026

                     85                     86                     87
                      A                      A                      A
 Frequencies --   1526.0512              1530.5453              1538.3909
 Red. masses --      1.1642                 1.0489                 1.2351
 Frc consts  --      1.5974                 1.4477                 1.7223
 IR Inten    --      5.8874                 4.6895                19.9134

                     88                     89                     90
                      A                      A                      A
 Frequencies --   1541.0399              1541.7314              1562.7889
 Red. masses --      1.1028                 1.9056                 5.3774
 Frc consts  --      1.5430                 2.6686                 7.7378
 IR Inten    --      9.2107                13.6659                30.9510

                     91                     92                     93
                      A                      A                      A
 Frequencies --   1633.8293              1639.8418              1664.0644
 Red. masses --      1.3472                 5.7992                 5.8783
 Frc consts  --      2.1189                 9.1881                 9.5905
 IR Inten    --    171.8961                 2.3025                 2.6569

                     94                     95                     96
                      A                      A                      A
 Frequencies --   1797.8898              3033.5287              3037.4959
 Red. masses --      9.7375                 1.0679                 1.0564
 Frc consts  --     18.5448                 5.7900                 5.7424
 IR Inten    --    334.3043                23.9735                36.9459

                     97                     98                     99
                      A                      A                      A
 Frequencies --   3042.6664              3047.9274              3081.4256
 Red. masses --      1.0478                 1.0360                 1.1017
 Frc consts  --      5.7152                 5.6702                 6.1635
 IR Inten    --     47.5340                18.1847                23.2646

                    100                    101                    102
                      A                      A                      A
 Frequencies --   3092.0264              3099.6126              3113.3924
 Red. masses --      1.0943                 1.1003                 1.0996
 Frc consts  --      6.1644                 6.2286                 6.2801
 IR Inten    --      5.0870                45.4931                22.2133

                    103                    104                    105
                      A                      A                      A
 Frequencies --   3121.3757              3125.5515              3157.5583
 Red. masses --      1.0994                 1.0897                 1.0971
 Frc consts  --      6.3109                 6.2718                 6.4447
 IR Inten    --     36.2234                39.7660                24.0369

                    106                    107                    108
                      A                      A                      A
 Frequencies --   3179.0338              3196.5101              3206.0971
 Red. masses --      1.0868                 1.0883                 1.0923
 Frc consts  --      6.4714                 6.5517                 6.6150
 IR Inten    --      7.6953                 4.2182                20.1386

                    109                    110                    111
                      A                      A                      A
 Frequencies --   3218.5385              3284.6021              3307.3140
 Red. masses --      1.0974                 1.0932                 1.1033
 Frc consts  --      6.6980                 6.9491                 7.1107
 IR Inten    --     16.8664                 0.0247                 0.8107

                    112                    113                    114
                      A                      A                      A
 Frequencies --   3492.6268              3591.6453              3723.0605
 Red. masses --      1.0731                 1.0445                 1.1057
 Frc consts  --      7.7127                 7.9384                 9.0298
 IR Inten    --      1.7373                32.2819                62.3819

 - Thermochemistry -
 -------------------
 Temperature   298.150 Kelvin.  Pressure   1.00000 Atm.
 Atom     1 has atomic number  6 and mass  12.00000

 Molecular mass:   272.16371 amu.
 Principal axes and moments of inertia in atomic units:
                           1         2         3
     Eigenvalues --  3780.818147062.996277840.71317
           X            0.99996   0.00345  -0.00863
           Y           -0.00397   0.99815  -0.06064
           Z            0.00841   0.06067   0.99812
 This molecule is an asymmetric top.
 Rotational symmetry number  1.
 Warning -- assumption of classical behavior for rotation
           may cause significant error
 Rotational temperatures (Kelvin)      0.02291     0.01226     0.01105
 Rotational constants (GHZ):           0.47734     0.25552     0.23018
 Zero-point vibrational energy     889954.1 (Joules/Mol)
                                  212.70414 (Kcal/Mol)
 Warning -- explicit consideration of  30 degrees of freedom as
           vibrations may cause significant error
 Vibrational temperatures:     40.70    57.31    63.58    81.93   106.87
          (Kelvin)            114.06   127.07   154.54   196.69   227.25
                              262.02   289.39   304.64   347.15   373.32
                              384.09   400.02   442.74   466.16   497.10
                              552.98   608.36   612.20   688.80   709.59
                              739.32   819.03   831.37   845.23   869.02
                              924.70   965.71   980.57  1001.62  1045.33
                             1091.35  1105.62  1119.45  1130.53  1143.15
                             1147.53  1225.64  1253.71  1273.79  1297.43
                             1337.86  1370.77  1411.03  1420.08  1462.59
                             1473.02  1515.60  1542.09  1543.70  1564.48
                             1584.06  1593.60  1601.71  1620.31  1642.77
                             1696.76  1718.25  1739.11  1751.19  1760.90
                             1837.93  1856.40  1882.00  1910.93  1919.81
                             1935.63  1963.53  1997.41  2018.67  2035.62
                             2048.52  2067.41  2073.76  2084.02  2161.35
                             2167.33  2183.93  2186.70  2187.71  2195.65
                             2202.11  2213.40  2217.21  2218.21  2248.50
                             2350.72  2359.37  2394.22  2586.76  4364.57
                             4370.28  4377.72  4385.29  4433.48  4448.74
                             4459.65  4479.48  4490.96  4496.97  4543.02
                             4573.92  4599.07  4612.86  4630.76  4725.81
                             4758.49  5025.11  5167.58  5356.65

 Zero-point correction=                           0.338966 (Hartree/Particle)
 Thermal correction to Energy=                    0.358605
 Thermal correction to Enthalpy=                  0.359549
 Thermal correction to Gibbs Free Energy=         0.289866
 Sum of electronic and zero-point Energies=           -877.610750
 Sum of electronic and thermal Energies=              -877.591111
 Sum of electronic and thermal Enthalpies=            -877.590166
 Sum of electronic and thermal Free Energies=         -877.659850

                     E (Thermal)             CV                S
                      KCal/Mol        Cal/Mol-Kelvin    Cal/Mol-Kelvin
 Total                  225.028             74.328            146.661
 Electronic               0.000              0.000              0.000
 Translational            0.889              2.981             42.702
 Rotational               0.889              2.981             33.704
 Vibrational            223.250             68.366             70.255
 Vibration     1          0.593              1.984              5.946
 Vibration     2          0.594              1.981              5.267
 Vibration     3          0.595              1.980              5.062
 Vibration     4          0.596              1.975              4.560
 Vibration     5          0.599              1.966              4.037
 Vibration     6          0.600              1.963              3.909
 Vibration     7          0.601              1.957              3.697
 Vibration     8          0.606              1.943              3.315
 Vibration     9          0.614              1.917              2.849
 Vibration    10          0.621              1.894              2.574
 Vibration    11          0.630              1.864              2.307
 Vibration    12          0.638              1.838              2.123
 Vibration    13          0.643              1.823              2.029
 Vibration    14          0.658              1.777              1.793
 Vibration    15          0.668              1.747              1.665
 Vibration    16          0.672              1.734              1.616
 Vibration    17          0.679              1.714              1.546
 Vibration    18          0.698              1.659              1.375
 Vibration    19          0.709              1.627              1.290
 Vibration    20          0.724              1.584              1.187
 Vibration    21          0.753              1.504              1.022
 Vibration    22          0.785              1.421              0.882
 Vibration    23          0.787              1.415              0.873
 Vibration    24          0.835              1.297              0.713
 Vibration    25          0.849              1.265              0.675
 Vibration    26          0.869              1.219              0.624
 Vibration    27          0.925              1.098              0.506
 Vibration    28          0.934              1.079              0.489
 Vibration    29          0.945              1.059              0.472
 Vibration    30          0.962              1.023              0.443

                           ! Non-Optimized Parameters !
 Normal termination of Gaussian 16 at Sat Dec 12 15:51:47 2020.

 ----------------------------------------------------------------------
 # B3LYP/6-311++G(d,p) empiricaldispersion=gd3bj scf=xqc pop=npa geom=c
 heck
 ----------------------------------------------------------------------

 ----------------------------------------
 CID_115995456_JID_10320_Energie_neutraal
 ----------------------------------------
 Structure from the checkpoint file:  "JID_10320.chk"
 Charge =  0 Multiplicity = 1

 SCF Done:  E(RB3LYP) =  -878.195480204     A.U. after   18 cycles
 Normal termination of Gaussian 16 at Sat Dec 12 16:06:02 2020.

 ----------------------------------------------------------------------
 # B3LYP/6-311++G(d,p) empiricaldispersion=gd3bj scf=xqc pop=npa geom=c
 heck
 ----------------------------------------------------------------------

 --------------------------------------
 CID_115995456_JID_10320_Energie_kation
 --------------------------------------
 Structure from the checkpoint file:  "JID_10320.chk"
 Charge =  1 Multiplicity = 2

 SCF Done:  E(UB3LYP) =  -877.901089975     A.U. after   33 cycles
 SCF Done:  E(UB3LYP) =  -877.901089975     a.u. after    1 cycles
 Normal termination of Gaussian 16 at Sat Dec 12 16:43:48 2020.
 Gaussian 16:  ES64L-G16RevA.03 25-Dec-2016

 ----------------------------------------------------------------------
 # B3LYP/6-311++G(d,p) empiricaldispersion=gd3bj scf=xqc pop=npa geom=c
 heck
 ----------------------------------------------------------------------

 -------------------------------------
 CID_115995456_JID_10320_Energie_anion
 -------------------------------------
 Structure from the checkpoint file:  "JID_10320.chk"
 Charge = -1 Multiplicity = 2

                         Standard orientation:
 ---------------------------------------------------------------------
 Center     Atomic      Atomic             Coordinates (Angstroms)
 Number     Number       Type             X           Y           Z
 ---------------------------------------------------------------------
      1          6           0       -1.529854   -0.767681    2.938877
      2          6           0       -1.740712    0.668245    2.453725
      3          6           0       -1.099305    0.954785    1.082010
      4          6           0       -1.667023    0.001678    0.027080
      5          6           0       -3.009751    0.100707   -0.356479
      6          6           0       -3.583218   -0.789752   -1.261115
      7          6           0       -2.815953   -1.817382   -1.812205
      8          6           0       -1.474678   -1.932913   -1.458412
      9          6           0       -0.915112   -1.032024   -0.549982
     10          7           0        0.465220   -1.186637   -0.216060
     11          6           0        1.048216   -2.230781    0.447938
     12          6           0        2.387142   -1.926778    0.575628
     13          6           0        2.525115   -0.664946   -0.045435
     14          7           0        1.357938   -0.222072   -0.525880
     15          6           0        3.772627    0.133135   -0.184961
     16          8           0        4.847496   -0.271287    0.241399
     17          7           0        3.600738    1.340284   -0.799046
     18          7           0       -1.230101    2.379457    0.779666
     19          6           0       -0.336074    2.932419   -0.238281
     20          6           0       -0.583788    2.525495   -1.698074
     21          1           0       -2.019666   -1.490711    2.277315
     22          1           0       -1.939068   -0.904936    3.945300
     23          1           0       -0.462346   -1.016938    2.973554
     24          1           0       -2.816241    0.890313    2.405555
     25          1           0       -1.305931    1.381101    3.162287
     26          1           0       -0.028120    0.766079    1.174538
     27          1           0       -3.623411    0.888187    0.073788
     28          1           0       -4.629313   -0.684373   -1.533765
     29          1           0       -3.253593   -2.514698   -2.519808
     30          1           0       -0.845414   -2.705014   -1.890126
     31          1           0        0.458194   -3.073157    0.776738
     32          1           0        3.167245   -2.506061    1.044048
     33          1           0        2.719893    1.562628   -1.240414
     34          1           0        4.422065    1.885360   -1.014650
     35          1           0       -2.197603    2.614343    0.565915
     36          1           0       -0.400577    4.025119   -0.154230
     37          1           0        0.685975    2.657440    0.048868
     38          1           0       -1.623799    2.718680   -1.989043
     39          1           0        0.062254    3.107835   -2.367856
     40          1           0       -0.372863    1.466647   -1.861855
 ---------------------------------------------------------------------

 SCF Done:  E(UB3LYP) =  -878.191389657     A.U. after   33 cycles
 SCF Done:  E(UB3LYP) =  -878.191389657     a.u. after    1 cycles

 The electronic state is 2-A.
 Alpha  occ. eigenvalues --  -18.96607 -14.27696 -14.21727 -14.20954 -14.19505
 Alpha  occ. eigenvalues --  -10.15061 -10.09921 -10.09762 -10.09615 -10.09130
 Alpha  occ. eigenvalues --  -10.07492 -10.07451 -10.06971 -10.06791 -10.06492
 Alpha  occ. eigenvalues --  -10.06448 -10.06283 -10.06030 -10.05888 -10.05206
 Alpha  occ. eigenvalues --   -0.94241  -0.91635  -0.80893  -0.79342  -0.76391
 Alpha  occ. eigenvalues --   -0.71626  -0.69060  -0.67634  -0.64360  -0.63156
 Alpha  occ. eigenvalues --   -0.62690  -0.56963  -0.54415  -0.52087  -0.51005
 Alpha  occ. eigenvalues --   -0.50508  -0.47250  -0.46912  -0.45264  -0.43841
 Alpha  occ. eigenvalues --   -0.41798  -0.39577  -0.38003  -0.37716  -0.36427
 Alpha  occ. eigenvalues --   -0.35166  -0.34863  -0.33343  -0.32666  -0.32580
 Alpha  occ. eigenvalues --   -0.32095  -0.31708  -0.30384  -0.30023  -0.29243
 Alpha  occ. eigenvalues --   -0.28901  -0.28470  -0.27661  -0.26526  -0.25950
 Alpha  occ. eigenvalues --   -0.25686  -0.25055  -0.23549  -0.23358  -0.22913
 Alpha  occ. eigenvalues --   -0.18838  -0.16642  -0.16475  -0.15114  -0.14629
 Alpha  occ. eigenvalues --   -0.14494  -0.13536  -0.12081   0.04504
 Alpha virt. eigenvalues --    0.06417   0.07100   0.07597   0.07750   0.08541
 Alpha virt. eigenvalues --    0.08746   0.08867   0.09292   0.09596   0.10012
 Alpha virt. eigenvalues --    0.10769   0.11177   0.11566   0.12083   0.12307

  Beta  occ. eigenvalues --  -18.96459 -14.27600 -14.21714 -14.20657 -14.19494
  Beta  occ. eigenvalues --  -10.14944 -10.09798 -10.09761 -10.09575 -10.09128
  Beta  occ. eigenvalues --  -10.07504 -10.07369 -10.06972 -10.06821 -10.06492
  Beta  occ. eigenvalues --  -10.06333 -10.06210 -10.05922 -10.05875 -10.05199
  Beta  occ. eigenvalues --   -0.93933  -0.91373  -0.80866  -0.79231  -0.76158
  Beta  occ. eigenvalues --   -0.71347  -0.69028  -0.67449  -0.64254  -0.63103
  Beta  occ. eigenvalues --   -0.62450  -0.56909  -0.54081  -0.51952  -0.50934
  Beta  occ. eigenvalues --   -0.50484  -0.47182  -0.46718  -0.45131  -0.43724
  Beta  occ. eigenvalues --   -0.41725  -0.39485  -0.37836  -0.37620  -0.36271
  Beta  occ. eigenvalues --   -0.35007  -0.34805  -0.33230  -0.32630  -0.32303
  Beta  occ. eigenvalues --   -0.31991  -0.31497  -0.30248  -0.29987  -0.28914
  Beta  occ. eigenvalues --   -0.28686  -0.28239  -0.27651  -0.26194  -0.25900
  Beta  occ. eigenvalues --   -0.25631  -0.24966  -0.23496  -0.23259  -0.22850
  Beta  occ. eigenvalues --   -0.18491  -0.16140  -0.15697  -0.14682  -0.14323
  Beta  occ. eigenvalues --   -0.13850  -0.12969  -0.11971
  Beta virt. eigenvalues --    0.06697   0.07306   0.07720   0.07817   0.08560
  Beta virt. eigenvalues --    0.08705   0.08901   0.09442   0.09587   0.09938
  Beta virt. eigenvalues --    0.10492   0.10689   0.11278   0.11682   0.12027

 Mulliken charges and spin densities:
               1          2
     1  C   -0.681041  -0.005671
     2  C   -0.180253  -0.042878
     3  C   -0.166842  -0.473516
     4  C    0.714866   0.079507
     5  C   -0.901868   0.543803
     6  C    0.491237  -0.998073
     7  C    0.650130  -0.992350
     8  C   -0.552543   0.774647
     9  C   -0.112201  -0.054250
    10  N    0.451458  -0.032392
    11  C   -0.251989  -0.080154
    12  C   -0.025755   0.136712
    13  C   -0.111027  -0.108432
    14  N   -0.119290   0.191638
    15  C   -0.055062   0.085883
    16  O   -0.439019   0.051362
    17  N   -0.424413  -0.010761
    18  N    0.027602   0.000648
    19  C   -0.447495   0.180440
    20  C   -0.268883  -0.295179
    21  H    0.171037  -0.013149
    22  H    0.132047   0.006398
    23  H    0.151824  -0.000645
    24  H    0.066880   0.042747
    25  H    0.168941  -0.005663
    26  H    0.225950   0.008249
    27  H   -0.174449   0.308161
    28  H   -0.539317   0.691645
    29  H   -0.326830   0.494222
    30  H   -0.051477   0.210063
    31  H    0.134496   0.002886
    32  H    0.183572   0.009696
    33  H    0.252213   0.031278
    34  H    0.281112   0.022059
    35  H    0.159422   0.067011
    36  H    0.090531   0.069606
    37  H    0.142722  -0.018145
    38  H    0.078946   0.051796
    39  H    0.084778   0.023015
    40  H    0.169988   0.047788
 Sum of Mulliken charges =  -1.00000   1.00000

 Dipole moment (field-independent basis, Debye):
    X=             -0.1236    Y=              1.9697    Z=              2.3445  Tot=              3.0646
 Quadrupole moment (field-independent basis, Debye-Ang):
   XX=           -208.5755   YY=           -142.2972   ZZ=           -146.7060
   XY=              0.1055   XZ=            -14.6389   YZ=             -9.7599

 Summary of Natural Population Analysis:

                                       Natural Population
                Natural  -----------------------------------------------
    Atom  No    Charge         Core      Valence    Rydberg      Total
 -----------------------------------------------------------------------
      C    1   -0.28907      0.99967     2.28542    0.00398     3.28907
      C    2   -0.18579      0.99962     2.17626    0.00990     3.18579
      C    3   -0.02324      0.99954     2.00945    0.01425     3.02324
      C    4   -0.01796      0.99945     2.00607    0.01243     3.01796
      C    5   -0.09341      0.99951     2.08399    0.00991     3.09341
      C    6   -0.07355      0.99956     2.06363    0.01036     3.07355
      C    7   -0.11082      0.99956     2.10114    0.01011     3.11082
      C    8   -0.08025      0.99951     2.07155    0.00918     3.08025
      C    9    0.08627      0.99939     1.90187    0.01246     2.91373
      N   10   -0.09637      0.99963     2.58303    0.01371     3.59637
      C   11   -0.00655      0.99957     1.99670    0.01027     3.00655
      C   12   -0.15293      0.99953     2.14589    0.00752     3.15293
      C   13    0.02969      0.99954     1.95414    0.01663     2.97031
      N   14   -0.11568      0.99969     2.60514    0.01085     3.61568
      C   15    0.33561      0.99965     1.64218    0.02256     2.66439
      O   16   -0.31431      0.99988     3.30915    0.00528     4.31431
      N   17   -0.40655      0.99971     2.89970    0.00714     3.90655
      N   18   -0.33720      0.99974     2.82629    0.01117     3.83720
      C   19   -0.08835      0.99964     2.07693    0.01178     3.08835
      C   20   -0.29819      0.99966     2.29418    0.00435     3.29819
      H   21    0.10185      0.00000     0.39726    0.00089     0.39815
      H   22    0.09422      0.00000     0.40504    0.00074     0.40578
      H   23    0.09967      0.00000     0.39952    0.00081     0.40033
      H   24    0.09205      0.00000     0.40685    0.00111     0.40795
      H   25    0.09895      0.00000     0.40006    0.00099     0.40105
      H   26    0.10807      0.00000     0.39016    0.00177     0.39193
      H   27    0.09370      0.00000     0.40449    0.00182     0.40630
      H   28    0.09828      0.00000     0.40030    0.00142     0.40172
      H   29    0.10026      0.00000     0.39856    0.00118     0.39974
      H   30    0.10263      0.00000     0.39644    0.00094     0.39737
      H   31    0.10224      0.00000     0.39685    0.00091     0.39776
      H   32    0.11216      0.00000     0.38707    0.00077     0.38784
      H   33    0.20098      0.00000     0.29734    0.00168     0.29902
      H   34    0.18772      0.00000     0.30944    0.00284     0.31228
      H   35    0.16921      0.00000     0.32849    0.00230     0.33079
      H   36    0.08453      0.00000     0.41450    0.00098     0.41547
      H   37    0.09482      0.00000     0.40382    0.00136     0.40518
      H   38    0.09405      0.00000     0.40479    0.00116     0.40595
      H   39    0.09205      0.00000     0.40696    0.00099     0.40795
      H   40    0.11117      0.00000     0.38732    0.00150     0.38883
 =======================================================================
   * Total *   -0.00000     19.99206    52.76797    0.23997    73.00000

 Normal termination of Gaussian 16 at Sat Dec 12 17:22:38 2020.
