 Gaussian 16, Revision A.03,

 -----------------------------------------------------------
 # opt freq B3LYP/6-31G(d) empiricaldispersion=gd3bj scf=xqc
 -----------------------------------------------------------

 ------------------------------
 CID_70892453_JID_4508_neutraal
 ------------------------------
 Symbolic Z-matrix:
 Charge =  0 Multiplicity = 1

 SCF Done:  E(RB3LYP) =  -918.100453782     A.U. after   14 cycles
 SCF Done:  E(RB3LYP) =  -918.102490507     A.U. after   12 cycles
 SCF Done:  E(RB3LYP) =  -918.102675741     A.U. after   11 cycles
 SCF Done:  E(RB3LYP) =  -918.102711085     A.U. after   11 cycles
 SCF Done:  E(RB3LYP) =  -918.102717259     A.U. after   10 cycles
 SCF Done:  E(RB3LYP) =  -918.102719371     A.U. after    8 cycles
 SCF Done:  E(RB3LYP) =  -918.102719563     A.U. after    8 cycles
 SCF Done:  E(RB3LYP) =  -918.102719587     A.U. after    7 cycles
 Optimization completed.
    -- Stationary point found.
 Normal termination of Gaussian 16 at Thu Dec 10 09:53:39 2020.

 --------------------------------------------------------------------
 #N Geom=AllCheck Guess=TCheck SCRF=Check GenChk RB3LYP/6-31G(d) Freq
 --------------------------------------------------------------------

 Structure from the checkpoint file:  "JID_4508.chk"
 ------------------------------
 CID_70892453_JID_4508_neutraal
 ------------------------------
 Charge =  0 Multiplicity = 1

 SCF Done:  E(RB3LYP) =  -918.102719587     A.U. after    1 cycles

  Exact polarizability: 194.643   9.146 139.415  11.094  -8.902  86.645
 Approx polarizability: 282.343  20.651 235.505  22.825 -21.515 144.481

                      1                      2                      3
                      A                      A                      A
 Frequencies --     56.5131                83.9212               145.0537
 Red. masses --      4.0431                 4.5575                 4.7166
 Frc consts  --      0.0076                 0.0189                 0.0585
 IR Inten    --      1.5698                 0.3575                 0.6232

                      4                      5                      6
                      A                      A                      A
 Frequencies --    159.8697               215.5112               263.2483
 Red. masses --      3.7280                 2.6819                 3.7936
 Frc consts  --      0.0561                 0.0734                 0.1549
 IR Inten    --      2.7906                 1.4640                 0.2318

                      7                      8                      9
                      A                      A                      A
 Frequencies --    287.0076               339.3992               368.9985
 Red. masses --      2.8520                 4.9358                 5.0977
 Frc consts  --      0.1384                 0.3350                 0.4090
 IR Inten    --      0.1596                 0.6609                 0.9216

                     10                     11                     12
                      A                      A                      A
 Frequencies --    377.8148               431.1518               489.5909
 Red. masses --      3.4039                 3.7405                 3.4105
 Frc consts  --      0.2863                 0.4097                 0.4817
 IR Inten    --      1.2919                 2.6010                 2.2441

                     13                     14                     15
                      A                      A                      A
 Frequencies --    504.2077               528.6094               550.5605
 Red. masses --      4.7057                 3.4169                 3.3248
 Frc consts  --      0.7049                 0.5625                 0.5938
 IR Inten    --      3.3552                 6.4333                 1.1868

                     16                     17                     18
                      A                      A                      A
 Frequencies --    625.4103               642.9807               656.0503
 Red. masses --      3.6405                 5.1246                 4.6781
 Frc consts  --      0.8390                 1.2483                 1.1863
 IR Inten    --      1.8331                 8.9261                 3.1959

                     19                     20                     21
                      A                      A                      A
 Frequencies --    723.8870               747.9097               762.4490
 Red. masses --      4.6836                 4.3987                 2.4127
 Frc consts  --      1.4460                 1.4497                 0.8264
 IR Inten    --      4.8346                 4.0876                 9.5579

                     22                     23                     24
                      A                      A                      A
 Frequencies --    773.0524               783.6527               848.0317
 Red. masses --      2.5449                 1.9669                 2.2856
 Frc consts  --      0.8961                 0.7117                 0.9685
 IR Inten    --      9.3059                17.1634                 1.7556

                     25                     26                     27
                      A                      A                      A
 Frequencies --    857.0639               892.4849               925.5332
 Red. masses --      2.1163                 1.4110                 2.8523
 Frc consts  --      0.9159                 0.6622                 1.4395
 IR Inten    --      9.0218                 0.7943                10.8285

                     28                     29                     30
                      A                      A                      A
 Frequencies --    944.3114               953.6750               972.9804
 Red. masses --      1.6581                 1.6436                 1.5973
 Frc consts  --      0.8712                 0.8808                 0.8910
 IR Inten    --      3.3007                 4.3090                 3.5538

                     31                     32                     33
                      A                      A                      A
 Frequencies --    982.0160               991.4792              1004.9958
 Red. masses --      2.5773                 1.3067                 2.2873
 Frc consts  --      1.4644                 0.7568                 1.3612
 IR Inten    --     11.5556                 0.2150                 2.4339

                     34                     35                     36
                      A                      A                      A
 Frequencies --   1050.0523              1067.0849              1070.6788
 Red. masses --      1.7507                 2.1330                 2.1758
 Frc consts  --      1.1374                 1.4310                 1.4696
 IR Inten    --      0.6101                 1.8932                 0.9378

                     37                     38                     39
                      A                      A                      A
 Frequencies --   1118.7145              1142.9247              1169.6912
 Red. masses --      2.8783                 1.5522                 1.1841
 Frc consts  --      2.1224                 1.1946                 0.9545
 IR Inten    --      5.6315                 3.4901                 6.3215

                     40                     41                     42
                      A                      A                      A
 Frequencies --   1195.2876              1202.8031              1230.3201
 Red. masses --      1.1111                 1.5486                 1.9860
 Frc consts  --      0.9353                 1.3200                 1.7712
 IR Inten    --      0.3783                 2.3785                 3.7857

                     43                     44                     45
                      A                      A                      A
 Frequencies --   1245.7962              1250.3022              1263.3509
 Red. masses --      1.6176                 1.8838                 1.3949
 Frc consts  --      1.4792                 1.7351                 1.3117
 IR Inten    --      8.9247                10.1062                14.7182

                     46                     47                     48
                      A                      A                      A
 Frequencies --   1294.9690              1325.9085              1331.8864
 Red. masses --      1.3433                 1.3587                 1.2898
 Frc consts  --      1.3272                 1.4074                 1.3480
 IR Inten    --      3.2667                17.2271                11.9694

                     49                     50                     51
                      A                      A                      A
 Frequencies --   1350.8932              1356.7380              1372.5516
 Red. masses --      1.9867                 1.5116                 1.3044
 Frc consts  --      2.1361                 1.6394                 1.4478
 IR Inten    --     10.3149                 2.1228                 0.8660

                     52                     53                     54
                      A                      A                      A
 Frequencies --   1383.7517              1397.1577              1420.6455
 Red. masses --      2.0627                 1.5302                 1.4388
 Frc consts  --      2.3270                 1.7600                 1.7109
 IR Inten    --      1.5943                 6.3506                 3.4763

                     55                     56                     57
                      A                      A                      A
 Frequencies --   1502.1351              1508.6575              1518.4423
 Red. masses --      2.3256                 1.0826                 1.0938
 Frc consts  --      3.0917                 1.4518                 1.4859
 IR Inten    --      4.5983                 3.6933                 3.7781

                     58                     59                     60
                      A                      A                      A
 Frequencies --   1525.3988              1540.1241              1637.6017
 Red. masses --      1.0829                 2.5830                 6.3063
 Frc consts  --      1.4846                 3.6098                 9.9641
 IR Inten    --      6.1487                 5.2064                 9.1692

                     61                     62                     63
                      A                      A                      A
 Frequencies --   1663.3303              1726.1058              3008.1668
 Red. masses --      5.8867                 9.4332                 1.0837
 Frc consts  --      9.5957                16.5594                 5.7779
 IR Inten    --      4.9385                73.9449                22.3959

                     64                     65                     66
                      A                      A                      A
 Frequencies --   3054.9418              3062.7839              3063.6653
 Red. masses --      1.0809                 1.0663                 1.0620
 Frc consts  --      5.9433                 5.8931                 5.8727
 IR Inten    --      4.2951                28.7395                23.1562

                     67                     68                     69
                      A                      A                      A
 Frequencies --   3077.1125              3103.0444              3105.4791
 Red. masses --      1.0609                 1.0886                 1.1022
 Frc consts  --      5.9188                 6.1758                 6.2629
 IR Inten    --     20.3431                47.5784                32.4577

                     70                     71                     72
                      A                      A                      A
 Frequencies --   3122.8192              3129.8749              3177.8709
 Red. masses --      1.1024                 1.1060                 1.0871
 Frc consts  --      6.3344                 6.3833                 6.4683
 IR Inten    --     15.0315                 7.2947                 9.3760

                     73                     74                     75
                      A                      A                      A
 Frequencies --   3182.5050              3197.5695              3212.3980
 Red. masses --      1.0887                 1.0915                 1.0971
 Frc consts  --      6.4967                 6.5753                 6.6703
 IR Inten    --      2.3330                20.2149                28.6686

 - Thermochemistry -
 -------------------
 Temperature   298.150 Kelvin.  Pressure   1.00000 Atm.
 Atom     1 has atomic number  6 and mass  12.00000

 Molecular mass:   203.07687 amu.
 Principal axes and moments of inertia in atomic units:
                           1         2         3
     Eigenvalues --  1380.880224170.265665146.06746
           X            0.99981   0.01732   0.00881
           Y           -0.01721   0.99978  -0.01239
           Z           -0.00902   0.01223   0.99988
 This molecule is an asymmetric top.
 Rotational symmetry number  1.
 Warning -- assumption of classical behavior for rotation
           may cause significant error
 Rotational temperatures (Kelvin)      0.06272     0.02077     0.01683
 Rotational constants (GHZ):           1.30695     0.43276     0.35070
 Zero-point vibrational energy     593652.6 (Joules/Mol)
                                  141.88637 (Kcal/Mol)
 Warning -- explicit consideration of  15 degrees of freedom as
           vibrations may cause significant error
 Vibrational temperatures:     81.31   120.74   208.70   230.02   310.07
          (Kelvin)            378.76   412.94   488.32   530.91   543.59
                              620.33   704.41   725.44   760.55   792.13
                              899.83   925.11   943.91  1041.51  1076.08
                             1096.99  1112.25  1127.50  1220.13  1233.12
                             1284.09  1331.64  1358.65  1372.13  1399.90
                             1412.90  1426.52  1445.96  1510.79  1535.30
                             1540.47  1609.58  1644.41  1682.92  1719.75
                             1730.57  1770.16  1792.42  1798.91  1817.68
                             1863.17  1907.69  1916.29  1943.63  1952.04
                             1974.80  1990.91  2010.20  2043.99  2161.24
                             2170.62  2184.70  2194.71  2215.90  2356.14
                             2393.16  2483.48  4328.08  4395.38  4406.66
                             4407.93  4427.28  4464.59  4468.09  4493.04
                             4503.19  4572.25  4578.91  4600.59  4621.92

 Zero-point correction=                           0.226110 (Hartree/Particle)
 Thermal correction to Energy=                    0.237122
 Thermal correction to Enthalpy=                  0.238066
 Thermal correction to Gibbs Free Energy=         0.188885
 Sum of electronic and zero-point Energies=           -917.876609
 Sum of electronic and thermal Energies=              -917.865597
 Sum of electronic and thermal Enthalpies=            -917.864653
 Sum of electronic and thermal Free Energies=         -917.913835

                     E (Thermal)             CV                S
                      KCal/Mol        Cal/Mol-Kelvin    Cal/Mol-Kelvin
 Total                  148.796             45.207            103.512
 Electronic               0.000              0.000              0.000
 Translational            0.889              2.981             41.830
 Rotational               0.889              2.981             31.761
 Vibrational            147.019             39.245             29.922
 Vibration     1          0.596              1.975              4.575
 Vibration     2          0.601              1.960              3.797
 Vibration     3          0.616              1.908              2.736
 Vibration     4          0.622              1.892              2.551
 Vibration     5          0.645              1.817              1.996
 Vibration     6          0.670              1.740              1.640
 Vibration     7          0.684              1.698              1.492
 Vibration     8          0.719              1.597              1.215
 Vibration     9          0.741              1.536              1.084
 Vibration    10          0.748              1.517              1.048
 Vibration    11          0.792              1.402              0.855
 Vibration    12          0.845              1.273              0.685
 Vibration    13          0.859              1.241              0.648
 Vibration    14          0.884              1.187              0.590
 Vibration    15          0.906              1.138              0.543

 Optimization completed.
    -- Stationary point found.
 Normal termination of Gaussian 16 at Thu Dec 10 10:01:26 2020.

 ----------------------------------------------------------------------
 # B3LYP/6-311++G(d,p) empiricaldispersion=gd3bj scf=xqc pop=npa geom=c
 heck
 ----------------------------------------------------------------------

 --------------------------------------
 CID_70892453_JID_4508_Energie_neutraal
 --------------------------------------
 Structure from the checkpoint file:  "JID_4508.chk"
 Charge =  0 Multiplicity = 1

 SCF Done:  E(RB3LYP) =  -918.259817988     A.U. after   16 cycles
 Normal termination of Gaussian 16 at Thu Dec 10 10:04:37 2020.

 ----------------------------------------------------------------------
 # B3LYP/6-311++G(d,p) empiricaldispersion=gd3bj scf=xqc pop=npa geom=c
 heck
 ----------------------------------------------------------------------

 ------------------------------------
 CID_70892453_JID_4508_Energie_kation
 ------------------------------------
 Structure from the checkpoint file:  "JID_4508.chk"
 Charge =  1 Multiplicity = 2

 SCF Done:  E(UB3LYP) =  -917.965339030     A.U. after   29 cycles
 Normal termination of Gaussian 16 at Thu Dec 10 10:12:50 2020.
 Gaussian 16:  ES64L-G16RevA.03 25-Dec-2016

 ----------------------------------------------------------------------
 # B3LYP/6-311++G(d,p) empiricaldispersion=gd3bj scf=xqc pop=npa geom=c
 heck
 ----------------------------------------------------------------------

 -----------------------------------
 CID_70892453_JID_4508_Energie_anion
 -----------------------------------
 Structure from the checkpoint file:  "JID_4508.chk"
 Charge = -1 Multiplicity = 2

                         Standard orientation:
 ---------------------------------------------------------------------
 Center     Atomic      Atomic             Coordinates (Angstroms)
 Number     Number       Type             X           Y           Z
 ---------------------------------------------------------------------
      1          6           0        2.415949    1.292855    0.295833
      2          6           0        3.246070    0.053236    0.612181
      3         16           0        2.838377   -1.340012   -0.529165
      4          6           0        1.062736   -0.955095   -0.831513
      5          6           0        0.407454   -0.313567    0.405496
      6          6           0        0.918010    1.134328    0.632985
      7          7           0        0.211212    2.193847   -0.101338
      8          6           0       -0.998231    1.987743   -0.452418
      9          6           0       -1.777532    0.770670   -0.190967
     10          6           0       -3.162143    0.733053   -0.390279
     11          6           0       -3.880183   -0.425760   -0.104778
     12          6           0       -3.209542   -1.552457    0.377413
     13          6           0       -1.826386   -1.519555    0.566198
     14          6           0       -1.100279   -0.362372    0.285658
     15          1           0        2.509406    1.527311   -0.770026
     16          1           0        2.805802    2.161106    0.839019
     17          1           0        4.311896    0.251030    0.470755
     18          1           0        3.102102   -0.265768    1.650595
     19          1           0        0.954707   -0.299434   -1.701475
     20          1           0        0.582757   -1.907630   -1.069758
     21          1           0        0.700620   -0.916323    1.272863
     22          1           0        0.774052    1.365980    1.699134
     23          1           0       -1.512273    2.800755   -0.974872
     24          1           0       -3.671485    1.619077   -0.762002
     25          1           0       -4.955403   -0.452707   -0.254862
     26          1           0       -3.763987   -2.458126    0.606281
     27          1           0       -1.306246   -2.400474    0.935499
 ---------------------------------------------------------------------

 SCF Done:  E(UB3LYP) =  -918.263527150     A.U. after   32 cycles

 The electronic state is 2-A.
 Alpha  occ. eigenvalues --  -88.71678 -14.12090 -10.08348 -10.07195 -10.06061
 Alpha  occ. eigenvalues --  -10.04872 -10.04579 -10.02966 -10.02964 -10.02731
 Alpha  occ. eigenvalues --  -10.02577 -10.02327 -10.01803 -10.01392  -7.80308
 Alpha  occ. eigenvalues --   -5.76696  -5.76349  -5.75684  -0.76964  -0.70774
 Alpha  occ. eigenvalues --   -0.70459  -0.64650  -0.62022  -0.60183  -0.58974
 Alpha  occ. eigenvalues --   -0.51082  -0.50052  -0.47391  -0.45551  -0.43495
 Alpha  occ. eigenvalues --   -0.38247  -0.37588  -0.35920  -0.33023  -0.32757
 Alpha  occ. eigenvalues --   -0.31392  -0.30127  -0.28325  -0.27616  -0.27495
 Alpha  occ. eigenvalues --   -0.26321  -0.25422  -0.24300  -0.22667  -0.22399
 Alpha  occ. eigenvalues --   -0.22028  -0.20648  -0.18959  -0.17435  -0.16413
 Alpha  occ. eigenvalues --   -0.11435  -0.10504  -0.09395  -0.08904   0.05337
 Alpha virt. eigenvalues --    0.08260   0.08968   0.09837   0.10231   0.10646
 Alpha virt. eigenvalues --    0.11055   0.11858   0.11970   0.12887   0.13076
 Alpha virt. eigenvalues --    0.13376   0.13777   0.14990   0.15466   0.15468

  Beta  occ. eigenvalues --  -88.71670 -14.11560 -10.08344 -10.07161 -10.06083
  Beta  occ. eigenvalues --  -10.04880 -10.04555 -10.03054 -10.02781 -10.02722
  Beta  occ. eigenvalues --  -10.02498 -10.02082 -10.01483 -10.01232  -7.80300
  Beta  occ. eigenvalues --   -5.76688  -5.76331  -5.75678  -0.76312  -0.70352
  Beta  occ. eigenvalues --   -0.70278  -0.64475  -0.61816  -0.59704  -0.58776
  Beta  occ. eigenvalues --   -0.51010  -0.49879  -0.46713  -0.45388  -0.43335
  Beta  occ. eigenvalues --   -0.37989  -0.37447  -0.35767  -0.32915  -0.32512
  Beta  occ. eigenvalues --   -0.31145  -0.29936  -0.28261  -0.27441  -0.27413
  Beta  occ. eigenvalues --   -0.26089  -0.25162  -0.24101  -0.22335  -0.21899
  Beta  occ. eigenvalues --   -0.21613  -0.20469  -0.18681  -0.17268  -0.14804
  Beta  occ. eigenvalues --   -0.10905  -0.10169  -0.08330  -0.07543
  Beta virt. eigenvalues --    0.08166   0.08875   0.09783   0.10160   0.10454
  Beta virt. eigenvalues --    0.10936   0.11602   0.11835   0.12178   0.12897
  Beta virt. eigenvalues --    0.13127   0.13320   0.13721   0.14909   0.15521

 Mulliken charges and spin densities:
               1          2
     1  C    0.151765  -0.161460
     2  C   -0.349809  -0.053973
     3  S   -0.250366   0.045113
     4  C   -0.761253  -0.030701
     5  C    1.119247  -0.284086
     6  C   -1.459613  -0.005755
     7  N    0.026776   0.245665
     8  C   -0.406231   0.089332
     9  C   -0.167863   0.313729
    10  C   -0.560744   0.158843
    11  C   -0.289169  -0.001909
    12  C   -0.457376   0.263324
    13  C   -0.185063  -0.128306
    14  C    0.977593   0.211903
    15  H    0.134022   0.031149
    16  H    0.135917   0.029463
    17  H    0.205892   0.001067
    18  H    0.090402   0.051326
    19  H    0.203005   0.008195
    20  H    0.218797  -0.017267
    21  H    0.184902   0.020353
    22  H    0.014228   0.164936
    23  H    0.100180  -0.011765
    24  H    0.075892   0.013396
    25  H    0.097527   0.004376
    26  H    0.094012  -0.015209
    27  H    0.057332   0.058261
 Sum of Mulliken charges =  -1.00000   1.00000

 Dipole moment (field-independent basis, Debye):
    X=              2.2658    Y=             -1.7892    Z=              0.2782  Tot=              2.9004
 Quadrupole moment (field-independent basis, Debye-Ang):
   XX=           -126.9181   YY=           -116.9370   ZZ=           -103.3773
   XY=              0.9094   XZ=              4.4561   YZ=             -0.1298

 Summary of Natural Population Analysis:

                                       Natural Population
                Natural  -----------------------------------------------
    Atom  No    Charge         Core      Valence    Rydberg      Total
 -----------------------------------------------------------------------
      C    1   -0.19477      0.99960     2.18493    0.01023     3.19477
      C    2   -0.24503      0.99959     2.23655    0.00889     3.24503
      S    3    0.06351      4.99966     2.91856    0.01827     7.93649
      C    4   -0.23685      0.99956     2.22895    0.00833     3.23685
      C    5   -0.13116      0.99955     2.11784    0.01377     3.13116
      C    6   -0.02337      0.99957     2.00359    0.02021     3.02337
      N    7   -0.17597      0.99969     2.66284    0.01344     3.67597
      C    8    0.07781      0.99960     1.90795    0.01464     2.92219
      C    9   -0.02987      0.99945     2.02046    0.00997     3.02987
      C   10   -0.07470      0.99954     2.06688    0.00828     3.07470
      C   11   -0.11728      0.99957     2.10864    0.00907     3.11728
      C   12   -0.04866      0.99958     2.03956    0.00952     3.04866
      C   13   -0.12551      0.99952     2.11790    0.00809     3.12551
      C   14    0.03718      0.99946     1.95153    0.01182     2.96282
      H   15    0.10221      0.00000     0.39568    0.00211     0.39779
      H   16    0.10024      0.00000     0.39781    0.00195     0.39976
      H   17    0.09992      0.00000     0.39866    0.00142     0.40008
      H   18    0.09429      0.00000     0.40367    0.00204     0.40571
      H   19    0.10268      0.00000     0.39612    0.00120     0.39732
      H   20    0.10619      0.00000     0.39286    0.00096     0.39381
      H   21    0.10096      0.00000     0.39667    0.00238     0.39904
      H   22    0.09485      0.00000     0.40328    0.00188     0.40515
      H   23    0.07042      0.00000     0.42760    0.00198     0.42958
      H   24    0.08864      0.00000     0.40960    0.00176     0.41136
      H   25    0.08857      0.00000     0.41040    0.00103     0.41143
      H   26    0.08516      0.00000     0.41338    0.00145     0.41484
      H   27    0.09055      0.00000     0.40790    0.00154     0.40945
 =======================================================================
   * Total *    0.00000     17.99394    35.81982    0.18624    54.00000

 Normal termination of Gaussian 16 at Thu Dec 10 10:21:30 2020.
