 Gaussian 16, Revision A.03,

 -----------------------------------------------------------
 # opt freq B3LYP/6-31G(d) empiricaldispersion=gd3bj scf=xqc
 -----------------------------------------------------------

 ------------------------------
 CID_54965752_JID_8472_neutraal
 ------------------------------
 Symbolic Z-matrix:
 Charge =  0 Multiplicity = 1

 SCF Done:  E(RB3LYP) =  -1093.82949145     A.U. after   14 cycles
 SCF Done:  E(RB3LYP) =  -1093.83336518     A.U. after   13 cycles
 SCF Done:  E(RB3LYP) =  -1093.83115513     A.U. after   14 cycles
 SCF Done:  E(RB3LYP) =  -1093.83350730     A.U. after   13 cycles
 SCF Done:  E(RB3LYP) =  -1093.83549769     A.U. after   14 cycles
 SCF Done:  E(RB3LYP) =  -1093.83646185     A.U. after   12 cycles
 SCF Done:  E(RB3LYP) =  -1093.83601802     A.U. after   12 cycles
 SCF Done:  E(RB3LYP) =  -1093.83679792     A.U. after   12 cycles
 SCF Done:  E(RB3LYP) =  -1093.83706585     A.U. after   12 cycles
 SCF Done:  E(RB3LYP) =  -1093.83710368     A.U. after   12 cycles
 SCF Done:  E(RB3LYP) =  -1093.83712834     A.U. after   10 cycles
 SCF Done:  E(RB3LYP) =  -1093.83713266     A.U. after    9 cycles
 SCF Done:  E(RB3LYP) =  -1093.83713448     A.U. after    8 cycles
 SCF Done:  E(RB3LYP) =  -1093.83713499     A.U. after    8 cycles
 SCF Done:  E(RB3LYP) =  -1093.83713523     A.U. after    8 cycles
 Optimization completed.
    -- Stationary point found.
 Normal termination of Gaussian 16 at Fri Dec 11 20:51:16 2020.

 --------------------------------------------------------------------
 #N Geom=AllCheck Guess=TCheck SCRF=Check GenChk RB3LYP/6-31G(d) Freq
 --------------------------------------------------------------------

 Structure from the checkpoint file:  "JID_8472.chk"
 ------------------------------
 CID_54965752_JID_8472_neutraal
 ------------------------------
 Charge =  0 Multiplicity = 1

 SCF Done:  E(RB3LYP) =  -1093.83713523     A.U. after    1 cycles

  Exact polarizability: 228.754 -15.157 163.194   2.639   5.494 160.682
 Approx polarizability: 311.745 -22.106 243.839   6.852  16.662 275.529

                      1                      2                      3
                      A                      A                      A
 Frequencies --     22.3267                30.2408                34.7595
 Red. masses --      3.9055                 3.2233                 3.9560
 Frc consts  --      0.0011                 0.0017                 0.0028
 IR Inten    --      0.0546                 0.0307                 0.8899

                      4                      5                      6
                      A                      A                      A
 Frequencies --     48.0598                66.5182                80.3613
 Red. masses --      4.3445                 4.1361                 4.0160
 Frc consts  --      0.0059                 0.0108                 0.0153
 IR Inten    --      2.7925                 0.6650                 0.4401

                      7                      8                      9
                      A                      A                      A
 Frequencies --    104.6929               142.5835               153.4427
 Red. masses --      4.0013                 3.1680                 4.9747
 Frc consts  --      0.0258                 0.0379                 0.0690
 IR Inten    --      1.1000                 1.1502                 2.0335

                     10                     11                     12
                      A                      A                      A
 Frequencies --    181.1704               195.1380               232.9210
 Red. masses --      3.8620                 2.4678                 1.2584
 Frc consts  --      0.0747                 0.0554                 0.0402
 IR Inten    --      0.4232                 0.6165                 0.2005

                     13                     14                     15
                      A                      A                      A
 Frequencies --    251.3807               261.3989               271.6316
 Red. masses --      2.6984                 2.4111                 1.1564
 Frc consts  --      0.1005                 0.0971                 0.0503
 IR Inten    --      1.0222                 0.4920                 0.0196

                     16                     17                     18
                      A                      A                      A
 Frequencies --    303.0339               307.0612               334.9347
 Red. masses --      2.8311                 2.9518                 1.0485
 Frc consts  --      0.1532                 0.1640                 0.0693
 IR Inten    --      0.0918                 0.3308                 0.0165

                     19                     20                     21
                      A                      A                      A
 Frequencies --    352.5036               354.8778               372.7457
 Red. masses --      2.5377                 2.5093                 2.3878
 Frc consts  --      0.1858                 0.1862                 0.1955
 IR Inten    --      0.3026                 1.1129                 0.4404

                     22                     23                     24
                      A                      A                      A
 Frequencies --    412.8066               422.6295               431.9913
 Red. masses --      1.8797                 2.7719                 3.3599
 Frc consts  --      0.1887                 0.2917                 0.3694
 IR Inten    --     34.8516                 3.7002                 0.4958

                     25                     26                     27
                      A                      A                      A
 Frequencies --    444.0513               454.9716               470.2736
 Red. masses --      1.3466                 3.4322                 2.9712
 Frc consts  --      0.1564                 0.4186                 0.3872
 IR Inten    --     68.7443                 0.3125                 0.2742

                     28                     29                     30
                      A                      A                      A
 Frequencies --    486.7645               531.4520               568.8140
 Red. masses --      2.6031                 2.1238                 2.6256
 Frc consts  --      0.3634                 0.3534                 0.5005
 IR Inten    --      6.7530                37.3962                16.6909

                     31                     32                     33
                      A                      A                      A
 Frequencies --    597.0085               611.3451               648.3263
 Red. masses --      3.5072                 1.4515                 4.1500
 Frc consts  --      0.7365                 0.3196                 1.0278
 IR Inten    --      1.5616               122.2932                 7.6041

                     34                     35                     36
                      A                      A                      A
 Frequencies --    656.7305               684.4713               737.9232
 Red. masses --      5.9538                 2.7203                 1.7748
 Frc consts  --      1.5129                 0.7509                 0.5694
 IR Inten    --      1.7253                23.4963                18.2066

                     37                     38                     39
                      A                      A                      A
 Frequencies --    748.8744               757.5347               811.8414
 Red. masses --      3.4840                 5.4496                 2.3990
 Frc consts  --      1.1512                 1.8426                 0.9316
 IR Inten    --      2.5975                 3.9799                 3.3002

                     40                     41                     42
                      A                      A                      A
 Frequencies --    842.1844               848.9488               852.7018
 Red. masses --      1.6507                 1.4525                 1.4762
 Frc consts  --      0.6898                 0.6168                 0.6324
 IR Inten    --      5.3121                32.1908                27.4211

                     43                     44                     45
                      A                      A                      A
 Frequencies --    855.9739               857.5118               932.1341
 Red. masses --      2.2739                 1.4176                 2.0450
 Frc consts  --      0.9816                 0.6142                 1.0469
 IR Inten    --      3.1636                 5.5281                 1.1225

                     46                     47                     48
                      A                      A                      A
 Frequencies --    940.7804               953.2273               968.7824
 Red. masses --      1.7701                 1.6970                 1.2978
 Frc consts  --      0.9231                 0.9085                 0.7177
 IR Inten    --      1.0852                 0.8231                 0.2778

                     49                     50                     51
                      A                      A                      A
 Frequencies --    970.0996               973.1842               979.8625
 Red. masses --      2.1007                 1.2557                 1.2775
 Frc consts  --      1.1648                 0.7007                 0.7227
 IR Inten    --      5.0231                 0.3446                 0.1216

                     52                     53                     54
                      A                      A                      A
 Frequencies --   1037.2611              1045.3889              1050.6000
 Red. masses --      3.6011                 1.6313                 1.9891
 Frc consts  --      2.2827                 1.0504                 1.2935
 IR Inten    --     12.8609                 0.6752                 6.4111

                     55                     56                     57
                      A                      A                      A
 Frequencies --   1056.9122              1063.8103              1119.9504
 Red. masses --      1.4454                 1.3920                 4.5467
 Frc consts  --      0.9513                 0.9282                 3.3601
 IR Inten    --      1.0688                 0.0078                 0.5269

                     58                     59                     60
                      A                      A                      A
 Frequencies --   1121.7017              1140.7268              1150.3797
 Red. masses --      2.2929                 1.9213                 1.7645
 Frc consts  --      1.6997                 1.4730                 1.3758
 IR Inten    --     21.7790                40.1889                20.5684

                     61                     62                     63
                      A                      A                      A
 Frequencies --   1151.2538              1178.2653              1188.4858
 Red. masses --      1.6006                 1.2659                 1.1317
 Frc consts  --      1.2499                 1.0354                 0.9418
 IR Inten    --      6.4911                73.0633                 0.6103

                     64                     65                     66
                      A                      A                      A
 Frequencies --   1212.9945              1231.4766              1242.9649
 Red. masses --      1.1997                 1.1550                 2.7026
 Frc consts  --      1.0400                 1.0320                 2.4601
 IR Inten    --      8.1635                 0.6529                 2.7352

                     67                     68                     69
                      A                      A                      A
 Frequencies --   1246.6268              1270.5802              1307.5502
 Red. masses --      2.4990                 1.2764                 3.0266
 Frc consts  --      2.2882                 1.2140                 3.0488
 IR Inten    --      0.5673                 3.3851                19.8212

                     70                     71                     72
                      A                      A                      A
 Frequencies --   1317.2927              1334.9053              1345.1550
 Red. masses --      1.2610                 4.6142                 1.4138
 Frc consts  --      1.2892                 4.8445                 1.5073
 IR Inten    --     11.3544                 2.0476                 3.4370

                     73                     74                     75
                      A                      A                      A
 Frequencies --   1354.3834              1365.7661              1408.2166
 Red. masses --      1.2340                 1.3262                 1.3860
 Frc consts  --      1.3337                 1.4575                 1.6194
 IR Inten    --     22.9114                 9.9434                 5.5486

                     76                     77                     78
                      A                      A                      A
 Frequencies --   1417.4664              1424.9680              1427.7122
 Red. masses --      1.4241                 1.3433                 1.2131
 Frc consts  --      1.6859                 1.6071                 1.4568
 IR Inten    --      4.7735                 2.0965                 3.8369

                     79                     80                     81
                      A                      A                      A
 Frequencies --   1447.8176              1459.9366              1463.0969
 Red. masses --      2.2724                 1.2217                 2.0068
 Frc consts  --      2.8065                 1.5342                 2.5310
 IR Inten    --     14.2005                 3.1360                27.2999

                     82                     83                     84
                      A                      A                      A
 Frequencies --   1499.3582              1510.6112              1512.3899
 Red. masses --      1.0820                 1.0823                 1.0502
 Frc consts  --      1.4331                 1.4552                 1.4153
 IR Inten    --      3.3124                 7.8880                 0.1560

                     85                     86                     87
                      A                      A                      A
 Frequencies --   1515.3578              1516.5229              1519.2760
 Red. masses --      1.0883                 1.0538                 1.0664
 Frc consts  --      1.4725                 1.4279                 1.4503
 IR Inten    --      9.1173                 1.7966                 2.6034

                     88                     89                     90
                      A                      A                      A
 Frequencies --   1527.2069              1532.6510              1538.8283
 Red. masses --      1.1456                 1.1081                 1.0503
 Frc consts  --      1.5743                 1.5336                 1.4654
 IR Inten    --      4.7508                10.7579                 5.2236

                     91                     92                     93
                      A                      A                      A
 Frequencies --   1546.0770              1551.8873              1611.5904
 Red. masses --      1.5548                 1.2269                 6.1857
 Frc consts  --      2.1897                 1.7410                 9.4656
 IR Inten    --      8.6539                29.9808                 0.2091

                     94                     95                     96
                      A                      A                      A
 Frequencies --   1656.4271              1659.9324              1734.8096
 Red. masses --      4.6646                 1.3005                 5.2789
 Frc consts  --      7.5407                 2.1112                 9.3604
 IR Inten    --      5.6002                49.1333               183.6280

                     97                     98                     99
                      A                      A                      A
 Frequencies --   3038.4499              3045.5121              3046.6382
 Red. masses --      1.0625                 1.0349                 1.0585
 Frc consts  --      5.7794                 5.6556                 5.7885
 IR Inten    --     10.8673                23.2151                38.0790

                    100                    101                    102
                      A                      A                      A
 Frequencies --   3046.7514              3053.8194              3062.2377
 Red. masses --      1.0404                 1.0364                 1.0710
 Frc consts  --      5.6901                 5.6944                 5.9175
 IR Inten    --     21.2832                22.3227                22.7214

                    103                    104                    105
                      A                      A                      A
 Frequencies --   3077.2641              3086.3275              3092.3622
 Red. masses --      1.0990                 1.0667                 1.0986
 Frc consts  --      6.1314                 5.9863                 6.1895
 IR Inten    --     24.3807                15.8373                35.7799

                    106                    107                    108
                      A                      A                      A
 Frequencies --   3112.0681              3114.3937              3116.9154
 Red. masses --      1.1028                 1.1023                 1.1026
 Frc consts  --      6.2927                 6.2994                 6.3115
 IR Inten    --      2.8282                 5.7107                38.2218

                    109                    110                    111
                      A                      A                      A
 Frequencies --   3121.7556              3124.6947              3127.8074
 Red. masses --      1.1017                 1.1019                 1.1015
 Frc consts  --      6.3260                 6.3390                 6.3492
 IR Inten    --     75.0027                27.6224                42.6121

                    112                    113                    114
                      A                      A                      A
 Frequencies --   3147.4259              3155.4309              3192.1846
 Red. masses --      1.1021                 1.0904                 1.0868
 Frc consts  --      6.4324                 6.3965                 6.5250
 IR Inten    --      5.7605                 7.7470                12.5493

                    115                    116                    117
                      A                      A                      A
 Frequencies --   3198.7149              3210.1125              3220.0623
 Red. masses --      1.0880                 1.0939                 1.0920
 Frc consts  --      6.5591                 6.6413                 6.6709
 IR Inten    --      3.1273                12.1964                 8.0252

                    118                    119                    120
                      A                      A                      A
 Frequencies --   3461.2151              3553.5765              3669.6947
 Red. masses --      1.0751                 1.0462                 1.1013
 Frc consts  --      7.5883                 7.7840                 8.7379
 IR Inten    --      2.0519                13.9839                37.2935

 - Thermochemistry -
 -------------------
 Temperature   298.150 Kelvin.  Pressure   1.00000 Atm.
 Atom     1 has atomic number  6 and mass  12.00000

 Molecular mass:   264.16602 amu.
 Principal axes and moments of inertia in atomic units:
                           1         2         3
     Eigenvalues --  3333.234097304.660718965.99405
           X            0.99997  -0.00689  -0.00203
           Y            0.00690   0.99996   0.00495
           Z            0.00200  -0.00496   0.99999
 This molecule is an asymmetric top.
 Rotational symmetry number  1.
 Warning -- assumption of classical behavior for rotation
           may cause significant error
 Rotational temperatures (Kelvin)      0.02598     0.01186     0.00966
 Rotational constants (GHZ):           0.54144     0.24707     0.20129
 Zero-point vibrational energy     972844.9 (Joules/Mol)
                                  232.51552 (Kcal/Mol)
 Warning -- explicit consideration of  32 degrees of freedom as
           vibrations may cause significant error
 Vibrational temperatures:     32.12    43.51    50.01    69.15    95.70
          (Kelvin)            115.62   150.63   205.15   220.77   260.66
                              280.76   335.12   361.68   376.09   390.82
                              436.00   441.79   481.90   507.17   510.59
                              536.30   593.94   608.07   621.54   638.89
                              654.60   676.62   700.35   764.64   818.40
                              858.96   879.59   932.80   944.89   984.80
                             1061.71  1077.46  1089.92  1168.06  1211.72
                             1221.45  1226.85  1231.56  1233.77  1341.13
                             1353.57  1371.48  1393.86  1395.76  1400.20
                             1409.80  1492.39  1504.08  1511.58  1520.66
                             1530.59  1611.36  1613.88  1641.25  1655.14
                             1656.40  1695.26  1709.97  1745.23  1771.82
                             1788.35  1793.62  1828.08  1881.27  1895.29
                             1920.63  1935.38  1948.66  1965.03  2026.11
                             2039.42  2050.21  2054.16  2083.09  2100.52
                             2105.07  2157.24  2173.43  2175.99  2180.26
                             2181.94  2185.90  2197.31  2205.14  2214.03
                             2224.46  2232.82  2318.72  2383.23  2388.27
                             2496.00  4371.65  4381.81  4383.43  4383.60
                             4393.76  4405.88  4427.50  4440.54  4449.22
                             4477.57  4480.92  4484.55  4491.51  4495.74
                             4500.22  4528.44  4539.96  4592.84  4602.24
                             4618.64  4632.95  4979.92  5112.80  5279.87

 Zero-point correction=                           0.370537 (Hartree/Particle)
 Thermal correction to Energy=                    0.390248
 Thermal correction to Enthalpy=                  0.391192
 Thermal correction to Gibbs Free Energy=         0.321250
 Sum of electronic and zero-point Energies=          -1093.466598
 Sum of electronic and thermal Energies=             -1093.446887
 Sum of electronic and thermal Enthalpies=           -1093.445943
 Sum of electronic and thermal Free Energies=        -1093.515885

                     E (Thermal)             CV                S
                      KCal/Mol        Cal/Mol-Kelvin    Cal/Mol-Kelvin
 Total                  244.884             75.766            147.206
 Electronic               0.000              0.000              0.000
 Translational            0.889              2.981             42.614
 Rotational               0.889              2.981             33.745
 Vibrational            243.107             69.805             70.847
 Vibration     1          0.593              1.985              6.416
 Vibration     2          0.594              1.984              5.814
 Vibration     3          0.594              1.983              5.537
 Vibration     4          0.595              1.978              4.896
 Vibration     5          0.598              1.970              4.254
 Vibration     6          0.600              1.962              3.882
 Vibration     7          0.605              1.945              3.365
 Vibration     8          0.616              1.911              2.769
 Vibration     9          0.619              1.899              2.629
 Vibration    10          0.630              1.865              2.316
 Vibration    11          0.636              1.847              2.178
 Vibration    12          0.654              1.791              1.856
 Vibration    13          0.663              1.760              1.721
 Vibration    14          0.669              1.743              1.652
 Vibration    15          0.675              1.726              1.586
 Vibration    16          0.694              1.668              1.400
 Vibration    17          0.697              1.660              1.378
 Vibration    18          0.716              1.606              1.236
 Vibration    19          0.729              1.570              1.155
 Vibration    20          0.731              1.565              1.144
 Vibration    21          0.744              1.528              1.068
 Vibration    22          0.777              1.442              0.917
 Vibration    23          0.785              1.421              0.883
 Vibration    24          0.793              1.401              0.852
 Vibration    25          0.804              1.374              0.814
 Vibration    26          0.813              1.350              0.781
 Vibration    27          0.827              1.316              0.737
 Vibration    28          0.843              1.279              0.692
 Vibration    29          0.886              1.180              0.584
 Vibration    30          0.925              1.099              0.507
 Vibration    31          0.955              1.038              0.455
 Vibration    32          0.970              1.008              0.431

                           ! Non-Optimized Parameters !
 Normal termination of Gaussian 16 at Fri Dec 11 21:11:21 2020.

 ----------------------------------------------------------------------
 # B3LYP/6-311++G(d,p) empiricaldispersion=gd3bj scf=xqc pop=npa geom=c
 heck
 ----------------------------------------------------------------------

 --------------------------------------
 CID_54965752_JID_8472_Energie_neutraal
 --------------------------------------
 Structure from the checkpoint file:  "JID_8472.chk"
 Charge =  0 Multiplicity = 1

 SCF Done:  E(RB3LYP) =  -1094.06177536     A.U. after   16 cycles
 Normal termination of Gaussian 16 at Fri Dec 11 21:20:38 2020.

 ----------------------------------------------------------------------
 # B3LYP/6-311++G(d,p) empiricaldispersion=gd3bj scf=xqc pop=npa geom=c
 heck
 ----------------------------------------------------------------------

 ------------------------------------
 CID_54965752_JID_8472_Energie_kation
 ------------------------------------
 Structure from the checkpoint file:  "JID_8472.chk"
 Charge =  1 Multiplicity = 2

 SCF Done:  E(UB3LYP) =  -1093.77602111     A.U. after   28 cycles
 Normal termination of Gaussian 16 at Fri Dec 11 21:42:36 2020.
 Gaussian 16:  ES64L-G16RevA.03 25-Dec-2016

 ----------------------------------------------------------------------
 # B3LYP/6-311++G(d,p) empiricaldispersion=gd3bj scf=xqc pop=npa geom=c
 heck
 ----------------------------------------------------------------------

 -----------------------------------
 CID_54965752_JID_8472_Energie_anion
 -----------------------------------
 Structure from the checkpoint file:  "JID_8472.chk"
 Charge = -1 Multiplicity = 2

                         Standard orientation:
 ---------------------------------------------------------------------
 Center     Atomic      Atomic             Coordinates (Angstroms)
 Number     Number       Type             X           Y           Z
 ---------------------------------------------------------------------
      1          6           0       -4.633655   -0.584282   -0.492220
      2          6           0       -3.518370    0.400302   -0.079327
      3          6           0       -3.366529    1.490743   -1.162820
      4          6           0       -3.938274    1.081285    1.233487
      5          6           0       -2.191369   -0.356227    0.055772
      6          6           0       -1.662955   -1.045479   -1.046896
      7          6           0       -0.437757   -1.703365   -0.981978
      8          6           0        0.303687   -1.702918    0.204582
      9          6           0       -0.233728   -1.066824    1.328113
     10          6           0       -1.452624   -0.392029    1.246604
     11         16           0        1.912728   -2.482381    0.262039
     12          6           0        2.975212   -1.046001    0.742209
     13          6           0        3.622487   -0.285211   -0.418317
     14          6           0        2.682088    0.328970   -1.463895
     15          6           0        1.582361    1.267059   -0.925751
     16          6           0        2.079921    2.273656    0.098780
     17          7           0        2.985506    3.163877   -0.081172
     18          7           0        1.513461    2.127522    1.354662
     19          1           0       -5.587558   -0.054658   -0.598955
     20          1           0       -4.759580   -1.368357    0.262320
     21          1           0       -4.412786   -1.070747   -1.447409
     22          1           0       -4.304081    2.047114   -1.278087
     23          1           0       -2.577990    2.201624   -0.891469
     24          1           0       -3.109350    1.061360   -2.136215
     25          1           0       -4.083940    0.354255    2.039961
     26          1           0       -3.197888    1.818448    1.563914
     27          1           0       -4.886713    1.608881    1.087255
     28          1           0       -2.204637   -1.051553   -1.988094
     29          1           0       -0.035314   -2.194476   -1.862590
     30          1           0        0.308661   -1.086546    2.268487
     31          1           0       -1.831449    0.096282    2.137610
     32          1           0        2.377133   -0.376564    1.363888
     33          1           0        3.756538   -1.469415    1.380758
     34          1           0        4.225718    0.516173    0.029209
     35          1           0        4.320268   -0.952688   -0.938686
     36          1           0        3.304843    0.879195   -2.180861
     37          1           0        2.192364   -0.469890   -2.032540
     38          1           0        1.148923    1.818025   -1.769715
     39          1           0        0.774320    0.673211   -0.497242
     40          1           0        3.349388    3.099288   -1.034286
     41          1           0        0.578543    1.744250    1.397537
     42          1           0        1.695217    2.897017    1.988097
 ---------------------------------------------------------------------

 SCF Done:  E(UB3LYP) =  -1094.05373121     A.U. after   33 cycles
 SCF Done:  E(UB3LYP) =  -1094.05373121     a.u. after    1 cycles

 The electronic state is 2-A.
 Alpha  occ. eigenvalues --  -88.75333 -14.22826 -14.18005 -10.14953 -10.11257
 Alpha  occ. eigenvalues --  -10.10980 -10.09935 -10.09296 -10.08875 -10.08629
 Alpha  occ. eigenvalues --  -10.08623 -10.08579 -10.08426 -10.08362 -10.08280
 Alpha  occ. eigenvalues --  -10.06732 -10.06484 -10.06400  -7.83943  -5.80335
 Alpha  occ. eigenvalues --   -5.79972  -5.79322  -0.85313  -0.78081  -0.75653
 Alpha  occ. eigenvalues --   -0.73888  -0.72091  -0.68480  -0.66169  -0.65103
 Alpha  occ. eigenvalues --   -0.60596  -0.59549  -0.59401  -0.56248  -0.51922
 Alpha  occ. eigenvalues --   -0.51503  -0.49315  -0.47205  -0.46180  -0.42922
 Alpha  occ. eigenvalues --   -0.41022  -0.39136  -0.38732  -0.37835  -0.36252
 Alpha  occ. eigenvalues --   -0.35917  -0.35469  -0.34939  -0.33919  -0.33530
 Alpha  occ. eigenvalues --   -0.33041  -0.32570  -0.31364  -0.30474  -0.29139
 Alpha  occ. eigenvalues --   -0.28692  -0.28198  -0.27529  -0.27311  -0.26828
 Alpha  occ. eigenvalues --   -0.25791  -0.24977  -0.24548  -0.23861  -0.23663
 Alpha  occ. eigenvalues --   -0.22897  -0.22297  -0.17367  -0.17106  -0.16969
 Alpha  occ. eigenvalues --   -0.15231  -0.13166   0.03846
 Alpha virt. eigenvalues --    0.05932   0.06141   0.06412   0.06906   0.07486
 Alpha virt. eigenvalues --    0.07516   0.08151   0.08668   0.09159   0.09366
 Alpha virt. eigenvalues --    0.09730   0.10034   0.10301   0.10978   0.11490

  Beta  occ. eigenvalues --  -88.75331 -14.22802 -14.17993 -10.14944 -10.11253
  Beta  occ. eigenvalues --  -10.10971 -10.09931 -10.09294 -10.08871 -10.08625
  Beta  occ. eigenvalues --  -10.08569 -10.08568 -10.08409 -10.08350 -10.08232
  Beta  occ. eigenvalues --  -10.06705 -10.06453 -10.06364  -7.83942  -5.80334
  Beta  occ. eigenvalues --   -5.79968  -5.79321  -0.85283  -0.78032  -0.75619
  Beta  occ. eigenvalues --   -0.73863  -0.72068  -0.68451  -0.66092  -0.65064
  Beta  occ. eigenvalues --   -0.60564  -0.59486  -0.59344  -0.56214  -0.51829
  Beta  occ. eigenvalues --   -0.51465  -0.49269  -0.47168  -0.46123  -0.42891
  Beta  occ. eigenvalues --   -0.40980  -0.39118  -0.38701  -0.37795  -0.36194
  Beta  occ. eigenvalues --   -0.35888  -0.35442  -0.34892  -0.33889  -0.33500
  Beta  occ. eigenvalues --   -0.33005  -0.32539  -0.31329  -0.30436  -0.29105
  Beta  occ. eigenvalues --   -0.28654  -0.28158  -0.27486  -0.27261  -0.26789
  Beta  occ. eigenvalues --   -0.25772  -0.24950  -0.24514  -0.23833  -0.23625
  Beta  occ. eigenvalues --   -0.22865  -0.22261  -0.17320  -0.17058  -0.16791
  Beta  occ. eigenvalues --   -0.15197  -0.13114
  Beta virt. eigenvalues --    0.05869   0.06193   0.06553   0.07132   0.07140
  Beta virt. eigenvalues --    0.07760   0.07998   0.08502   0.08824   0.09479
  Beta virt. eigenvalues --    0.09517   0.10043   0.10250   0.10408   0.11151

 Mulliken charges and spin densities:
               1          2
     1  C    0.349450  -0.994759
     2  C   -0.206161   0.575319
     3  C    0.121401  -0.714441
     4  C    0.146188  -0.675218
     5  C    0.274817   0.039663
     6  C   -0.723024   0.340667
     7  C   -0.383195  -0.218413
     8  C    1.872247  -1.127782
     9  C   -0.187837  -0.284880
    10  C   -0.822205   0.523284
    11  S    0.448538  -0.547702
    12  C   -0.144336  -0.090375
    13  C   -0.385393   0.042788
    14  C   -0.405959  -0.137733
    15  C    0.320615  -0.139741
    16  C   -0.568889   0.377463
    17  N   -0.332352  -0.004989
    18  N   -0.368916  -0.022379
    19  H   -0.182559   0.332157
    20  H    0.073271   0.073566
    21  H   -0.169507   0.312588
    22  H   -0.179244   0.334733
    23  H   -0.022750   0.172516
    24  H   -0.221314   0.371856
    25  H   -0.099667   0.230098
    26  H   -0.298300   0.447729
    27  H   -0.158463   0.330531
    28  H   -0.121600   0.297409
    29  H   -0.161777   0.348324
    30  H   -0.263385   0.459273
    31  H   -0.268478   0.467309
    32  H    0.229465  -0.040465
    33  H    0.113183   0.134768
    34  H    0.102997   0.028880
    35  H    0.090042   0.055453
    36  H   -0.030782   0.214269
    37  H    0.080760   0.069364
    38  H   -0.094941   0.330389
    39  H    1.155131  -1.299885
    40  H    0.136915   0.068666
    41  H    0.209972   0.093180
    42  H    0.076041   0.226520
 Sum of Mulliken charges =  -1.00000   1.00000

 Dipole moment (field-independent basis, Debye):
    X=              4.3214    Y=             -3.5996    Z=             -0.7012  Tot=              5.6678
 Quadrupole moment (field-independent basis, Debye-Ang):
   XX=           -198.8371   YY=           -177.1557   ZZ=           -161.2298
   XY=             -1.5734   XZ=             -3.0923   YZ=             -2.7254

 Summary of Natural Population Analysis:

                                       Natural Population
                Natural  -----------------------------------------------
    Atom  No    Charge         Core      Valence    Rydberg      Total
 -----------------------------------------------------------------------
      C    1   -0.27918      0.99963     2.27263    0.00692     3.27918
      C    2   -0.05507      0.99956     2.04323    0.01229     3.05507
      C    3   -0.27895      0.99963     2.27225    0.00706     3.27895
      C    4   -0.28678      0.99964     2.27931    0.00783     3.28678
      C    5   -0.00301      0.99948     1.99039    0.01314     3.00301
      C    6   -0.09019      0.99950     2.08195    0.00874     3.09019
      C    7   -0.10324      0.99949     2.09260    0.01116     3.10324
      C    8   -0.09780      0.99939     2.08494    0.01347     3.09780
      C    9   -0.09911      0.99949     2.08817    0.01146     3.09911
      C   10   -0.10552      0.99950     2.09648    0.00954     3.10552
      S   11    0.09724      4.99954     2.88569    0.01752     7.90276
      C   12   -0.24868      0.99957     2.23952    0.00959     3.24868
      C   13   -0.19755      0.99961     2.18953    0.00841     3.19755
      C   14   -0.18993      0.99962     2.18051    0.00980     3.18993
      C   15   -0.22899      0.99956     2.22009    0.00934     3.22899
      C   16    0.22799      0.99966     1.75330    0.01905     2.77201
      N   17   -0.37181      0.99970     2.86447    0.00764     3.87181
      N   18   -0.40379      0.99970     2.89409    0.01000     3.90379
      H   19    0.09966      0.00000     0.39942    0.00092     0.40034
      H   20    0.10042      0.00000     0.39874    0.00084     0.39958
      H   21    0.10061      0.00000     0.39831    0.00108     0.39939
      H   22    0.09973      0.00000     0.39917    0.00110     0.40027
      H   23    0.10262      0.00000     0.39597    0.00141     0.39738
      H   24    0.10000      0.00000     0.39868    0.00132     0.40000
      H   25    0.10025      0.00000     0.39859    0.00117     0.39975
      H   26    0.10388      0.00000     0.39447    0.00165     0.39612
      H   27    0.10245      0.00000     0.39647    0.00108     0.39755
      H   28    0.10294      0.00000     0.39542    0.00164     0.39706
      H   29    0.10496      0.00000     0.39388    0.00116     0.39504
      H   30    0.10487      0.00000     0.39348    0.00165     0.39513
      H   31    0.10746      0.00000     0.39061    0.00193     0.39254
      H   32    0.11262      0.00000     0.38525    0.00213     0.38738
      H   33    0.10294      0.00000     0.39614    0.00093     0.39706
      H   34    0.10401      0.00000     0.39472    0.00127     0.39599
      H   35    0.09754      0.00000     0.40129    0.00117     0.40246
      H   36    0.09611      0.00000     0.40284    0.00105     0.40389
      H   37    0.10450      0.00000     0.39420    0.00130     0.39550
      H   38    0.11087      0.00000     0.38787    0.00126     0.38913
      H   39    0.10856      0.00000     0.38763    0.00381     0.39144
      H   40    0.16206      0.00000     0.33596    0.00198     0.33794
      H   41    0.19392      0.00000     0.30309    0.00299     0.30608
      H   42    0.19140      0.00000     0.30677    0.00183     0.30860
 =======================================================================
   * Total *    0.00000     21.99225    49.77812    0.22962    72.00000

 Normal termination of Gaussian 16 at Fri Dec 11 22:08:40 2020.
