 Gaussian 16, Revision A.03,

 -----------------------------------------------------------
 # opt freq B3LYP/6-31G(d) empiricaldispersion=gd3bj scf=xqc
 -----------------------------------------------------------

 ------------------------------
 CID_63181580_JID_2697_neutraal
 ------------------------------
 Symbolic Z-matrix:
 Charge =  0 Multiplicity = 1

 SCF Done:  E(RB3LYP) =  -502.671089794     A.U. after   13 cycles
 SCF Done:  E(RB3LYP) =  -502.673684688     A.U. after   12 cycles
 SCF Done:  E(RB3LYP) =  -502.674294266     A.U. after   12 cycles
 SCF Done:  E(RB3LYP) =  -502.674500122     A.U. after   10 cycles
 SCF Done:  E(RB3LYP) =  -502.674547481     A.U. after   10 cycles
 SCF Done:  E(RB3LYP) =  -502.674555623     A.U. after   10 cycles
 SCF Done:  E(RB3LYP) =  -502.674557981     A.U. after    8 cycles
 SCF Done:  E(RB3LYP) =  -502.674558042     A.U. after    8 cycles
 SCF Done:  E(RB3LYP) =  -502.674558053     A.U. after    6 cycles
 Optimization completed.
    -- Stationary point found.
 Normal termination of Gaussian 16 at Wed Dec  9 17:51:55 2020.

 --------------------------------------------------------------------
 #N Geom=AllCheck Guess=TCheck SCRF=Check GenChk RB3LYP/6-31G(d) Freq
 --------------------------------------------------------------------

 Structure from the checkpoint file:  "JID_2697.chk"
 ------------------------------
 CID_63181580_JID_2697_neutraal
 ------------------------------
 Charge =  0 Multiplicity = 1

 SCF Done:  E(RB3LYP) =  -502.674558053     A.U. after    1 cycles

  Exact polarizability: 148.511  -0.449  99.420  -5.374   0.014 103.975
 Approx polarizability: 175.542  -1.811 140.029 -12.774  -0.525 168.748

                      1                      2                      3
                      A                      A                      A
 Frequencies --     33.0281                65.8535                86.5643
 Red. masses --      3.3872                 3.1747                 2.6884
 Frc consts  --      0.0022                 0.0081                 0.0119
 IR Inten    --      0.6586                 0.1506                 1.1010

                      4                      5                      6
                      A                      A                      A
 Frequencies --    122.8075               184.3227               195.4028
 Red. masses --      3.4614                 2.5093                 1.4180
 Frc consts  --      0.0308                 0.0502                 0.0319
 IR Inten    --      2.3724                 1.7094                 0.0900

                      7                      8                      9
                      A                      A                      A
 Frequencies --    219.5345               233.1484               236.1797
 Red. masses --      1.9325                 1.4368                 1.6052
 Frc consts  --      0.0549                 0.0460                 0.0528
 IR Inten    --      0.3733                 0.4835                 0.2262

                     10                     11                     12
                      A                      A                      A
 Frequencies --    289.8155               327.2793               349.7723
 Red. masses --      2.7767                 2.4429                 2.1409
 Frc consts  --      0.1374                 0.1542                 0.1543
 IR Inten    --      2.9002                 2.3598                 3.9079

                     13                     14                     15
                      A                      A                      A
 Frequencies --    374.6377               398.3006               416.6590
 Red. masses --      1.8748                 1.7519                 1.3103
 Frc consts  --      0.1550                 0.1637                 0.1340
 IR Inten    --      0.0478                 6.1913                11.8172

                     16                     17                     18
                      A                      A                      A
 Frequencies --    460.0994               470.5432               475.1933
 Red. masses --      2.5238                 1.5079                 2.3193
 Frc consts  --      0.3148                 0.1967                 0.3086
 IR Inten    --     24.4544               155.4799                42.9625

                     19                     20                     21
                      A                      A                      A
 Frequencies --    516.4494               609.5708               678.5591
 Red. masses --      2.4946                 2.5457                 2.1650
 Frc consts  --      0.3920                 0.5573                 0.5873
 IR Inten    --      9.4169                 3.2489                 3.8150

                     22                     23                     24
                      A                      A                      A
 Frequencies --    726.6615               770.2620               801.2777
 Red. masses --      8.0376                 2.8462                 1.4940
 Frc consts  --      2.5006                 0.9949                 0.5652
 IR Inten    --      9.4007                 0.3004                 0.1852

                     25                     26                     27
                      A                      A                      A
 Frequencies --    817.0168               837.5691               876.3856
 Red. masses --      1.3597                 1.7973                 2.6434
 Frc consts  --      0.5347                 0.7429                 1.1962
 IR Inten    --      0.5574                 0.6778                 5.0141

                     28                     29                     30
                      A                      A                      A
 Frequencies --    899.8367               934.9742               959.5157
 Red. masses --      2.0605                 2.3040                 1.4400
 Frc consts  --      0.9830                 1.1867                 0.7811
 IR Inten    --      0.1054                 4.9761                 0.7187

                     31                     32                     33
                      A                      A                      A
 Frequencies --    970.7362               999.4209              1013.2868
 Red. masses --      2.1251                 1.6474                 1.5820
 Frc consts  --      1.1799                 0.9695                 0.9570
 IR Inten    --      0.6334                 0.6077                 1.7937

                     34                     35                     36
                      A                      A                      A
 Frequencies --   1020.1163              1056.6119              1077.0904
 Red. masses --      2.3328                 2.4876                 1.6632
 Frc consts  --      1.4303                 1.6363                 1.1368
 IR Inten    --      0.1589                 8.2588                 2.6078

                     37                     38                     39
                      A                      A                      A
 Frequencies --   1088.1529              1107.5045              1116.0915
 Red. masses --      2.4251                 1.6997                 1.1832
 Frc consts  --      1.6919                 1.2283                 0.8684
 IR Inten    --      0.9026                15.3313                 0.6178

                     40                     41                     42
                      A                      A                      A
 Frequencies --   1138.3777              1175.4426              1204.8671
 Red. masses --      1.8545                 1.9636                 1.6854
 Frc consts  --      1.4160                 1.5985                 1.4415
 IR Inten    --      5.4273                 0.2511                 3.1056

                     43                     44                     45
                      A                      A                      A
 Frequencies --   1207.6036              1217.8981              1273.6983
 Red. masses --      1.5016                 1.5840                 1.3345
 Frc consts  --      1.2902                 1.3843                 1.2756
 IR Inten    --      1.3587                 1.5550                 0.7174

                     46                     47                     48
                      A                      A                      A
 Frequencies --   1298.1135              1313.5992              1337.6316
 Red. masses --      1.2812                 1.1769                 1.2999
 Frc consts  --      1.2720                 1.1965                 1.3704
 IR Inten    --      6.4468                 0.2119                14.2826

                     49                     50                     51
                      A                      A                      A
 Frequencies --   1347.8413              1362.0518              1366.3795
 Red. masses --      1.2746                 2.5033                 1.6123
 Frc consts  --      1.3643                 2.7362                 1.7736
 IR Inten    --      0.7857                40.3258                 0.0265

                     52                     53                     54
                      A                      A                      A
 Frequencies --   1384.5022              1389.5015              1392.4242
 Red. masses --      1.4108                 1.5946                 1.3622
 Frc consts  --      1.5933                 1.8139                 1.5561
 IR Inten    --     25.2811                12.2329                 6.6987

                     55                     56                     57
                      A                      A                      A
 Frequencies --   1399.6604              1404.3283              1421.8102
 Red. masses --      1.3624                 1.3888                 1.5186
 Frc consts  --      1.5725                 1.6137                 1.8088
 IR Inten    --      0.8007                 4.4690                 2.5547

                     58                     59                     60
                      A                      A                      A
 Frequencies --   1432.3107              1442.5358              1509.5477
 Red. masses --      1.2411                 1.2772                 1.0822
 Frc consts  --      1.5001                 1.5659                 1.4530
 IR Inten    --      3.5243                10.6245                 0.1100

                     61                     62                     63
                      A                      A                      A
 Frequencies --   1514.0291              1516.9269              1519.9810
 Red. masses --      1.0688                 1.0892                 1.0439
 Frc consts  --      1.4435                 1.4766                 1.4210
 IR Inten    --      2.5908                 4.8660                 4.0424

                     64                     65                     66
                      A                      A                      A
 Frequencies --   1531.6211              1532.5897              1535.3806
 Red. masses --      1.0519                 1.0883                 1.0628
 Frc consts  --      1.4539                 1.5061                 1.4762
 IR Inten    --      2.6927                 0.6413                 9.9851

                     67                     68                     69
                      A                      A                      A
 Frequencies --   1538.6592              1557.7054              1682.7949
 Red. masses --      1.0594                 1.1015                 1.1858
 Frc consts  --      1.4777                 1.5748                 1.9784
 IR Inten    --      0.7800                 9.3259                80.5262

                     70                     71                     72
                      A                      A                      A
 Frequencies --   1744.1571              2969.7108              3019.4465
 Red. masses --      6.2240                 1.0733                 1.0757
 Frc consts  --     11.1556                 5.5769                 5.7785
 IR Inten    --    273.9217                68.9441                 7.8957

                     73                     74                     75
                      A                      A                      A
 Frequencies --   3023.9464              3028.6876              3039.0554
 Red. masses --      1.0673                 1.0612                 1.0654
 Frc consts  --      5.7504                 5.7353                 5.7974
 IR Inten    --     22.4649                21.4816                73.9052

                     76                     77                     78
                      A                      A                      A
 Frequencies --   3041.0204              3044.4960              3049.1272
 Red. masses --      1.0625                 1.0373                 1.0456
 Frc consts  --      5.7892                 5.6649                 5.7274
 IR Inten    --     21.3042                26.2525                18.0516

                     79                     80                     81
                      A                      A                      A
 Frequencies --   3066.3432              3068.7523              3069.6167
 Red. masses --      1.0879                 1.0989                 1.0928
 Frc consts  --      6.0269                 6.0972                 6.0667
 IR Inten    --     30.6515                52.5027                24.1363

                     82                     83                     84
                      A                      A                      A
 Frequencies --   3072.3773              3081.5336              3091.9393
 Red. masses --      1.0923                 1.0977                 1.0982
 Frc consts  --      6.0752                 6.1417                 6.1860
 IR Inten    --     23.5915                33.1667                66.7176

                     85                     86                     87
                      A                      A                      A
 Frequencies --   3108.4801              3109.3678              3116.0845
 Red. masses --      1.1012                 1.1024                 1.1002
 Frc consts  --      6.2692                 6.2797                 6.2942
 IR Inten    --     75.6320                35.5539                54.2640

                     88                     89                     90
                      A                      A                      A
 Frequencies --   3128.4555              3591.3362              3692.1436
 Red. masses --      1.1020                 1.0469                 1.0995
 Frc consts  --      6.3549                 7.9553                 8.8309
 IR Inten    --     28.2677                 9.2568                14.7338

 - Thermochemistry -
 -------------------
 Temperature   298.150 Kelvin.  Pressure   1.00000 Atm.
 Atom     1 has atomic number  6 and mass  12.00000

 Molecular mass:   168.16265 amu.
 Principal axes and moments of inertia in atomic units:
                           1         2         3
     Eigenvalues --   820.312184233.864554338.85271
           X            0.99999   0.00534   0.00066
           Y           -0.00535   0.99977   0.02091
           Z           -0.00055  -0.02091   0.99978
 This molecule is an asymmetric top.
 Rotational symmetry number  1.
 Warning -- assumption of classical behavior for rotation
           may cause significant error
 Rotational temperatures (Kelvin)      0.10559     0.02046     0.01996
 Rotational constants (GHZ):           2.20007     0.42626     0.41595
 Zero-point vibrational energy     777106.9 (Joules/Mol)
                                  185.73300 (Kcal/Mol)
 Warning -- explicit consideration of  20 degrees of freedom as
           vibrations may cause significant error
 Vibrational temperatures:     47.52    94.75   124.55   176.69   265.20
          (Kelvin)            281.14   315.86   335.45   339.81   416.98
                              470.88   503.24   539.02   573.07   599.48
                              661.98   677.01   683.70   743.06   877.04
                              976.30  1045.50  1108.24  1152.86  1175.50
                             1205.08  1260.92  1294.66  1345.22  1380.53
                             1396.67  1437.94  1457.89  1467.72  1520.23
                             1549.69  1565.61  1593.45  1605.81  1637.87
                             1691.20  1733.54  1737.47  1752.28  1832.57
                             1867.70  1889.98  1924.55  1939.24  1959.69
                             1965.92  1991.99  1999.18  2003.39  2013.80
                             2020.52  2045.67  2060.78  2075.49  2171.90
                             2178.35  2182.52  2186.91  2203.66  2205.05
                             2209.07  2213.79  2241.19  2421.17  2509.45
                             4272.75  4344.31  4350.78  4357.61  4372.52
                             4375.35  4380.35  4387.01  4411.78  4415.25
                             4416.49  4420.47  4433.64  4448.61  4472.41
                             4473.69  4483.35  4501.15  5167.13  5312.17

 Zero-point correction=                           0.295984 (Hartree/Particle)
 Thermal correction to Energy=                    0.309149
 Thermal correction to Enthalpy=                  0.310093
 Thermal correction to Gibbs Free Energy=         0.256606
 Sum of electronic and zero-point Energies=           -502.378574
 Sum of electronic and thermal Energies=              -502.365409
 Sum of electronic and thermal Enthalpies=            -502.364465
 Sum of electronic and thermal Free Energies=         -502.417952

                     E (Thermal)             CV                S
                      KCal/Mol        Cal/Mol-Kelvin    Cal/Mol-Kelvin
 Total                  193.994             51.006            112.573
 Electronic               0.000              0.000              0.000
 Translational            0.889              2.981             41.267
 Rotational               0.889              2.981             31.089
 Vibrational            192.217             45.044             40.217
 Vibration     1          0.594              1.983              5.639
 Vibration     2          0.597              1.971              4.274
 Vibration     3          0.601              1.959              3.736
 Vibration     4          0.610              1.930              3.056
 Vibration     5          0.631              1.861              2.284
 Vibration     6          0.636              1.846              2.176
 Vibration     7          0.647              1.811              1.963
 Vibration     8          0.654              1.790              1.855
 Vibration     9          0.655              1.785              1.831
 Vibration    10          0.686              1.693              1.475
 Vibration    11          0.711              1.621              1.273
 Vibration    12          0.727              1.576              1.167
 Vibration    13          0.746              1.524              1.061
 Vibration    14          0.765              1.474              0.969
 Vibration    15          0.780              1.434              0.903
 Vibration    16          0.818              1.339              0.766
 Vibration    17          0.828              1.315              0.736
 Vibration    18          0.832              1.305              0.723
 Vibration    19          0.871              1.214              0.618
 Vibration    20          0.969              1.012              0.433

                           ! Non-Optimized Parameters !
 Normal termination of Gaussian 16 at Wed Dec  9 18:00:18 2020.

 ----------------------------------------------------------------------
 # B3LYP/6-311++G(d,p) empiricaldispersion=gd3bj scf=xqc pop=npa geom=c
 heck
 ----------------------------------------------------------------------

 --------------------------------------
 CID_63181580_JID_2697_Energie_neutraal
 --------------------------------------
 Structure from the checkpoint file:  "JID_2697.chk"
 Charge =  0 Multiplicity = 1

 SCF Done:  E(RB3LYP) =  -502.819994722     A.U. after   14 cycles
 Normal termination of Gaussian 16 at Wed Dec  9 18:04:19 2020.

 ----------------------------------------------------------------------
 # B3LYP/6-311++G(d,p) empiricaldispersion=gd3bj scf=xqc pop=npa geom=c
 heck
 ----------------------------------------------------------------------

 ------------------------------------
 CID_63181580_JID_2697_Energie_kation
 ------------------------------------
 Structure from the checkpoint file:  "JID_2697.chk"
 Charge =  1 Multiplicity = 2

 SCF Done:  E(UB3LYP) =  -502.512784470     A.U. after   24 cycles
 Normal termination of Gaussian 16 at Wed Dec  9 18:13:35 2020.
 Gaussian 16:  ES64L-G16RevA.03 25-Dec-2016

 ----------------------------------------------------------------------
 # B3LYP/6-311++G(d,p) empiricaldispersion=gd3bj scf=xqc pop=npa geom=c
 heck
 ----------------------------------------------------------------------

 -----------------------------------
 CID_63181580_JID_2697_Energie_anion
 -----------------------------------
 Structure from the checkpoint file:  "JID_2697.chk"
 Charge = -1 Multiplicity = 2

                         Standard orientation:
 ---------------------------------------------------------------------
 Center     Atomic      Atomic             Coordinates (Angstroms)
 Number     Number       Type             X           Y           Z
 ---------------------------------------------------------------------
      1          6           0        4.252161    0.900680    0.053648
      2          6           0        3.643508   -0.473691   -0.258096
      3          7           0        2.284115   -0.356946   -0.769800
      4          6           0        1.314417   -0.291726    0.066000
      5          6           0       -0.097072   -0.154856   -0.470229
      6          6           0       -1.013373   -1.320487   -0.048455
      7          6           0       -2.413011   -1.169782   -0.660414
      8          6           0       -3.075203    0.178730   -0.314683
      9          6           0       -2.136447    1.336735   -0.707356
     10          6           0       -0.735265    1.198588   -0.096574
     11          6           0       -3.506335    0.253529    1.157062
     12          7           0        1.414356   -0.385445    1.451376
     13          1           0        4.207234    1.538545   -0.834733
     14          1           0        5.299167    0.809341    0.365006
     15          1           0        3.702262    1.412961    0.852818
     16          1           0        4.248017   -0.957344   -1.034252
     17          1           0        3.710820   -1.125777    0.630353
     18          1           0        0.016284   -0.184341   -1.559457
     19          1           0       -0.563760   -2.269429   -0.362810
     20          1           0       -1.086388   -1.364710    1.046116
     21          1           0       -3.056392   -1.997250   -0.334637
     22          1           0       -2.327150   -1.250867   -1.752991
     23          1           0       -3.986487    0.268681   -0.922073
     24          1           0       -2.581369    2.296605   -0.414936
     25          1           0       -2.038189    1.356729   -1.801595
     26          1           0       -0.799954    1.298500    0.996411
     27          1           0       -0.089779    2.014402   -0.443086
     28          1           0       -4.005324    1.206209    1.369930
     29          1           0       -4.206131   -0.554645    1.399593
     30          1           0       -2.658047    0.167353    1.844609
     31          1           0        2.302760   -0.156206    1.872638
     32          1           0        0.622846   -0.058336    1.986647
 ---------------------------------------------------------------------

 SCF Done:  E(UB3LYP) =  -502.808344067     A.U. after   30 cycles

 The electronic state is 2-A.
 Alpha  occ. eigenvalues --  -14.21384 -14.17000 -10.12795 -10.08574 -10.07161
 Alpha  occ. eigenvalues --  -10.07051 -10.06497 -10.06397 -10.06386 -10.06340
 Alpha  occ. eigenvalues --  -10.05862 -10.05312  -0.84291  -0.75627  -0.73694
 Alpha  occ. eigenvalues --   -0.67115  -0.64282  -0.63834  -0.58334  -0.53631
 Alpha  occ. eigenvalues --   -0.51202  -0.49551  -0.45405  -0.43569  -0.42092
 Alpha  occ. eigenvalues --   -0.38964  -0.37336  -0.35079  -0.34224  -0.33549
 Alpha  occ. eigenvalues --   -0.32037  -0.31655  -0.30443  -0.29605  -0.28032
 Alpha  occ. eigenvalues --   -0.27558  -0.26979  -0.26404  -0.24549  -0.24185
 Alpha  occ. eigenvalues --   -0.23789  -0.22714  -0.21281  -0.20345  -0.19551
 Alpha  occ. eigenvalues --   -0.14167  -0.12909   0.04356
 Alpha virt. eigenvalues --    0.06270   0.07545   0.08007   0.08727   0.09238
 Alpha virt. eigenvalues --    0.09392   0.10261   0.10794   0.10892   0.11392
 Alpha virt. eigenvalues --    0.11735   0.12549   0.12894   0.13118   0.13893

  Beta  occ. eigenvalues --  -14.21314 -14.17003 -10.12774 -10.08560 -10.07153
  Beta  occ. eigenvalues --  -10.07051 -10.06488 -10.06381 -10.06375 -10.06317
  Beta  occ. eigenvalues --  -10.05829 -10.05271  -0.84239  -0.75566  -0.73664
  Beta  occ. eigenvalues --   -0.67080  -0.64251  -0.63794  -0.58277  -0.53563
  Beta  occ. eigenvalues --   -0.51157  -0.49502  -0.45306  -0.43515  -0.42025
  Beta  occ. eigenvalues --   -0.38918  -0.37299  -0.35052  -0.34187  -0.33520
  Beta  occ. eigenvalues --   -0.31996  -0.31618  -0.30408  -0.29566  -0.28001
  Beta  occ. eigenvalues --   -0.27521  -0.26937  -0.26368  -0.24518  -0.24149
  Beta  occ. eigenvalues --   -0.23762  -0.22660  -0.21248  -0.20315  -0.19520
  Beta  occ. eigenvalues --   -0.14158  -0.12871
  Beta virt. eigenvalues --    0.06620   0.07160   0.08241   0.08388   0.09208
  Beta virt. eigenvalues --    0.09544   0.09727   0.10576   0.11051   0.11214
  Beta virt. eigenvalues --    0.11883   0.11999   0.12760   0.13130   0.13483

 Mulliken charges and spin densities:
               1          2
     1  C    0.315251  -0.669338
     2  C   -0.417487   0.050489
     3  N   -0.012993   0.015217
     4  C   -1.155980   1.261262
     5  C    0.762348  -1.282068
     6  C   -0.015722  -0.132034
     7  C    0.330234  -0.924713
     8  C   -1.358782   1.785628
     9  C    0.624648  -1.210848
    10  C   -0.093755  -0.081073
    11  C    1.723806  -2.473632
    12  N   -0.062285  -0.280811
    13  H    0.071510   0.058215
    14  H   -0.194381   0.318068
    15  H   -0.278193   0.413266
    16  H    0.037394   0.111287
    17  H   -0.018151   0.134750
    18  H    0.251463  -0.034180
    19  H    0.111147   0.064405
    20  H   -0.022790   0.191963
    21  H   -0.068925   0.242280
    22  H    0.081840   0.034283
    23  H   -0.403524   0.604030
    24  H   -0.148076   0.326028
    25  H    0.059278   0.060574
    26  H   -0.162890   0.319525
    27  H    0.137965   0.036563
    28  H   -0.240347   0.379206
    29  H   -0.220916   0.355535
    30  H   -0.254404   0.414871
    31  H   -0.286625   0.559575
    32  H   -0.090658   0.351676
 Sum of Mulliken charges =  -1.00000   1.00000

 Dipole moment (field-independent basis, Debye):
    X=              0.2801    Y=             -1.3746    Z=             -4.5895  Tot=              4.7991
 Quadrupole moment (field-independent basis, Debye-Ang):
   XX=           -157.1707   YY=           -107.7007   ZZ=           -117.8614
   XY=              0.9068   XZ=              0.1856   YZ=             -2.5556

 Summary of Natural Population Analysis:

                                       Natural Population
                Natural  -----------------------------------------------
    Atom  No    Charge         Core      Valence    Rydberg      Total
 -----------------------------------------------------------------------
      C    1   -0.28959      0.99966     2.28508    0.00485     3.28959
      C    2   -0.10399      0.99963     2.09185    0.01251     3.10399
      N    3   -0.28473      0.99965     2.77540    0.00967     3.78473
      C    4    0.23828      0.99956     1.74287    0.01930     2.76172
      C    5   -0.13185      0.99954     2.12094    0.01137     3.13185
      C    6   -0.18784      0.99961     2.17983    0.00840     3.18784
      C    7   -0.18622      0.99961     2.17793    0.00868     3.18622
      C    8   -0.11140      0.99960     2.10172    0.01008     3.11140
      C    9   -0.18609      0.99961     2.17759    0.00888     3.18609
      C   10   -0.18790      0.99961     2.17944    0.00885     3.18790
      C   11   -0.28709      0.99965     2.28128    0.00617     3.28709
      N   12   -0.41158      0.99970     2.90181    0.01007     3.91158
      H   13    0.09813      0.00000     0.40086    0.00101     0.40187
      H   14    0.09590      0.00000     0.40303    0.00107     0.40410
      H   15    0.09740      0.00000     0.40110    0.00150     0.40260
      H   16    0.08902      0.00000     0.40963    0.00135     0.41098
      H   17    0.08127      0.00000     0.41700    0.00173     0.41873
      H   18    0.10663      0.00000     0.39127    0.00211     0.39337
      H   19    0.10088      0.00000     0.39825    0.00087     0.39912
      H   20    0.09735      0.00000     0.40106    0.00159     0.40265
      H   21    0.09845      0.00000     0.40068    0.00087     0.40155
      H   22    0.09342      0.00000     0.40546    0.00112     0.40658
      H   23    0.09445      0.00000     0.40394    0.00161     0.40555
      H   24    0.09989      0.00000     0.39915    0.00096     0.40011
      H   25    0.09344      0.00000     0.40538    0.00118     0.40656
      H   26    0.09538      0.00000     0.40264    0.00197     0.40462
      H   27    0.10191      0.00000     0.39705    0.00104     0.39809
      H   28    0.09993      0.00000     0.39876    0.00131     0.40007
      H   29    0.09864      0.00000     0.40015    0.00121     0.40136
      H   30    0.09858      0.00000     0.39969    0.00173     0.40142
      H   31    0.19438      0.00000     0.30117    0.00445     0.30562
      H   32    0.19497      0.00000     0.30114    0.00389     0.30503
 =======================================================================
   * Total *    0.00000     11.99543    34.85314    0.15142    47.00000

 Normal termination of Gaussian 16 at Wed Dec  9 18:23:56 2020.
