 Gaussian 16, Revision A.03,

 -----------------------------------------------------------
 # opt freq B3LYP/6-31G(d) empiricaldispersion=gd3bj scf=xqc
 -----------------------------------------------------------

 -------------------------------
 CID_113715164_JID_8737_neutraal
 -------------------------------
 Symbolic Z-matrix:
 Charge =  0 Multiplicity = 1

 SCF Done:  E(RB3LYP) =  -841.400020022     A.U. after   15 cycles
 SCF Done:  E(RB3LYP) =  -841.407867988     A.U. after   13 cycles
 SCF Done:  E(RB3LYP) =  -841.409152587     A.U. after   14 cycles
 SCF Done:  E(RB3LYP) =  -841.412019760     A.U. after   13 cycles
 SCF Done:  E(RB3LYP) =  -841.415411087     A.U. after   13 cycles
 SCF Done:  E(RB3LYP) =  -841.415018558     A.U. after   14 cycles
 SCF Done:  E(RB3LYP) =  -841.418120192     A.U. after   12 cycles
 SCF Done:  E(RB3LYP) =  -841.419014312     A.U. after   13 cycles
 SCF Done:  E(RB3LYP) =  -841.419879236     A.U. after   13 cycles
 SCF Done:  E(RB3LYP) =  -841.420548193     A.U. after   13 cycles
 SCF Done:  E(RB3LYP) =  -841.421994445     A.U. after    9 cycles
 SCF Done:  E(RB3LYP) =  -841.421994627     A.U. after    8 cycles
 SCF Done:  E(RB3LYP) =  -841.421994706     A.U. after    8 cycles
 SCF Done:  E(RB3LYP) =  -841.421994761     A.U. after    7 cycles
 SCF Done:  E(RB3LYP) =  -841.421994797     A.U. after    7 cycles
 Optimization completed.
    -- Stationary point found.
 Normal termination of Gaussian 16 at Fri Dec 11 21:32:08 2020.

 --------------------------------------------------------------------
 #N Geom=AllCheck Guess=TCheck SCRF=Check GenChk RB3LYP/6-31G(d) Freq
 --------------------------------------------------------------------

 Structure from the checkpoint file:  "JID_8737.chk"
 -------------------------------
 CID_113715164_JID_8737_neutraal
 -------------------------------
 Charge =  0 Multiplicity = 1

 SCF Done:  E(RB3LYP) =  -841.421994797     A.U. after    1 cycles

  Exact polarizability: 202.119   8.346 156.245  20.872  -4.016 110.329
 Approx polarizability: 256.411  18.131 254.076  40.574  -6.410 174.480

                      1                      2                      3
                      A                      A                      A
 Frequencies --     17.0612                21.9192                37.1885
 Red. masses --      4.7750                 5.5365                 4.7147
 Frc consts  --      0.0008                 0.0016                 0.0038
 IR Inten    --      0.8197                 0.8558                 0.5806

                      4                      5                      6
                      A                      A                      A
 Frequencies --     49.4317                52.9751                65.9905
 Red. masses --      5.0042                 4.6065                 4.6576
 Frc consts  --      0.0072                 0.0076                 0.0120
 IR Inten    --      0.4300                 1.7535                 0.4192

                      7                      8                      9
                      A                      A                      A
 Frequencies --     80.9412               119.8227               144.2839
 Red. masses --      3.4484                 4.3824                 4.3704
 Frc consts  --      0.0133                 0.0371                 0.0536
 IR Inten    --      4.4552                 1.5316                 0.3703

                     10                     11                     12
                      A                      A                      A
 Frequencies --    182.8863               218.7546               229.3424
 Red. masses --      3.3069                 3.2055                 3.3184
 Frc consts  --      0.0652                 0.0904                 0.1028
 IR Inten    --      3.0567                 3.0989                 2.6469

                     13                     14                     15
                      A                      A                      A
 Frequencies --    286.2439               314.3129               336.1470
 Red. masses --      2.5684                 3.6171                 3.2831
 Frc consts  --      0.1240                 0.2105                 0.2186
 IR Inten    --      4.9760                10.4116                16.5317

                     16                     17                     18
                      A                      A                      A
 Frequencies --    361.0957               394.4496               404.1772
 Red. masses --      1.1753                 4.4289                 2.9053
 Frc consts  --      0.0903                 0.4060                 0.2796
 IR Inten    --     42.4662                 3.1979                 1.0016

                     19                     20                     21
                      A                      A                      A
 Frequencies --    431.2448               455.9972               477.1109
 Red. masses --      2.9853                 2.8603                 3.4156
 Frc consts  --      0.3271                 0.3504                 0.4581
 IR Inten    --      3.3096                 6.9387                17.4881

                     22                     23                     24
                      A                      A                      A
 Frequencies --    508.8399               526.6789               547.2279
 Red. masses --      2.6843                 2.6455                 2.3521
 Frc consts  --      0.4095                 0.4324                 0.4150
 IR Inten    --      5.5105                20.1998                14.7794

                     25                     26                     27
                      A                      A                      A
 Frequencies --    576.2331               596.2244               649.4729
 Red. masses --      4.3613                 1.7482                 4.1835
 Frc consts  --      0.8532                 0.3661                 1.0397
 IR Inten    --      2.8468                51.4741                30.8688

                     28                     29                     30
                      A                      A                      A
 Frequencies --    670.2772               711.0163               740.6012
 Red. masses --      1.4809                 3.5128                 3.1703
 Frc consts  --      0.3920                 1.0463                 1.0245
 IR Inten    --    218.0826                26.0904                26.0446

                     31                     32                     33
                      A                      A                      A
 Frequencies --    757.2344               762.7373               787.3716
 Red. masses --      2.8449                 1.3174                 2.7675
 Frc consts  --      0.9611                 0.4516                 1.0109
 IR Inten    --     23.5285                65.3624                 2.5118

                     34                     35                     36
                      A                      A                      A
 Frequencies --    836.2766               859.7797               864.0373
 Red. masses --      2.8129                 1.6164                 3.0128
 Frc consts  --      1.1591                 0.7040                 1.3252
 IR Inten    --      2.1134                 6.2264                 7.9820

                     37                     38                     39
                      A                      A                      A
 Frequencies --    878.9917               891.6268               899.8291
 Red. masses --      1.7770                 1.8131                 2.9661
 Frc consts  --      0.8089                 0.8492                 1.4150
 IR Inten    --      7.6562                 6.5332                 3.6903

                     40                     41                     42
                      A                      A                      A
 Frequencies --    931.1079               939.5663               956.9532
 Red. masses --      1.6279                 2.2860                 2.4432
 Frc consts  --      0.8315                 1.1890                 1.3182
 IR Inten    --      1.6348                10.4497                21.5969

                     43                     44                     45
                      A                      A                      A
 Frequencies --    967.8174              1002.6773              1036.0048
 Red. masses --      1.2571                 2.8180                 6.1127
 Frc consts  --      0.6937                 1.6692                 3.8655
 IR Inten    --      0.2789                 2.2571                80.8960

                     46                     47                     48
                      A                      A                      A
 Frequencies --   1060.6830              1063.9340              1079.2859
 Red. masses --      2.6454                 2.0603                 2.4589
 Frc consts  --      1.7536                 1.3741                 1.6876
 IR Inten    --     12.6438                 3.9157                22.9598

                     49                     50                     51
                      A                      A                      A
 Frequencies --   1088.6901              1092.2258              1120.4404
 Red. masses --      2.0500                 2.0233                 2.0859
 Frc consts  --      1.4316                 1.4221                 1.5428
 IR Inten    --     10.8747                 3.8672                 6.1510

                     52                     53                     54
                      A                      A                      A
 Frequencies --   1135.1776              1164.7025              1171.3717
 Red. masses --      2.4773                 1.3689                 1.2576
 Frc consts  --      1.8809                 1.0941                 1.0167
 IR Inten    --     97.9720                45.5560                 6.8012

                     55                     56                     57
                      A                      A                      A
 Frequencies --   1172.8728              1195.0804              1206.1375
 Red. masses --      1.1994                 1.1021                 1.4759
 Frc consts  --      0.9721                 0.9274                 1.2650
 IR Inten    --     10.6262                 7.5675                29.1333

                     58                     59                     60
                      A                      A                      A
 Frequencies --   1222.0163              1245.9637              1260.8093
 Red. masses --      1.8181                 2.2893                 1.2852
 Frc consts  --      1.5996                 2.0939                 1.2037
 IR Inten    --    136.9756                47.5587                 4.0560

                     61                     62                     63
                      A                      A                      A
 Frequencies --   1290.3182              1314.3796              1321.4715
 Red. masses --      1.4590                 1.7092                 1.3388
 Frc consts  --      1.4312                 1.7397                 1.3775
 IR Inten    --      0.3310                53.6884                 5.1297

                     64                     65                     66
                      A                      A                      A
 Frequencies --   1323.1060              1343.2295              1347.6891
 Red. masses --      1.5952                 1.3455                 2.1696
 Frc consts  --      1.6453                 1.4303                 2.3217
 IR Inten    --     17.2125                76.9015                51.0783

                     67                     68                     69
                      A                      A                      A
 Frequencies --   1363.2463              1374.3408              1381.8671
 Red. masses --      1.2694                 3.6980                 1.6517
 Frc consts  --      1.3899                 4.1154                 1.8583
 IR Inten    --     24.1673                12.4869                69.3526

                     70                     71                     72
                      A                      A                      A
 Frequencies --   1412.8283              1426.0695              1460.0043
 Red. masses --      1.4883                 1.5370                 1.8666
 Frc consts  --      1.7503                 1.8416                 2.3443
 IR Inten    --     14.6957                81.7665                48.7925

                     73                     74                     75
                      A                      A                      A
 Frequencies --   1466.2153              1507.0813              1512.0653
 Red. masses --      1.5202                 1.0937                 2.5172
 Frc consts  --      1.9255                 1.4636                 3.3908
 IR Inten    --     17.2131                 2.1398                12.2500

                     76                     77                     78
                      A                      A                      A
 Frequencies --   1518.0637              1533.4106              1544.6141
 Red. masses --      1.1435                 1.0822                 1.0925
 Frc consts  --      1.5526                 1.4993                 1.5357
 IR Inten    --     18.1197                 1.4117                21.6826

                     79                     80                     81
                      A                      A                      A
 Frequencies --   1555.9682              1561.3025              1642.9711
 Red. masses --      2.7884                 1.1171                 5.4126
 Frc consts  --      3.9775                 1.6044                 8.6083
 IR Inten    --     78.7874                 5.0364                 3.5584

                     82                     83                     84
                      A                      A                      A
 Frequencies --   1658.2828              1688.5024              1766.7289
 Red. masses --      2.3673                 1.7433                 7.3432
 Frc consts  --      3.8354                 2.9284                13.5045
 IR Inten    --      4.7732               109.0834               473.8978

                     85                     86                     87
                      A                      A                      A
 Frequencies --   2995.2735              3019.1292              3037.2251
 Red. masses --      1.0688                 1.0850                 1.0541
 Frc consts  --      5.6499                 5.8268                 5.7289
 IR Inten    --     53.5196                53.6392                95.3475

                     88                     89                     90
                      A                      A                      A
 Frequencies --   3051.7502              3054.7450              3078.0466
 Red. masses --      1.0630                 1.0607                 1.0942
 Frc consts  --      5.8330                 5.8317                 6.1081
 IR Inten    --     32.7118                28.3934                 6.2147

                     91                     92                     93
                      A                      A                      A
 Frequencies --   3086.4150              3091.0841              3102.3334
 Red. masses --      1.1120                 1.0708                 1.0915
 Frc consts  --      6.2409                 6.0281                 6.1896
 IR Inten    --     67.7822                 9.4126                33.9618

                     94                     95                     96
                      A                      A                      A
 Frequencies --   3116.7053              3143.9542              3179.3029
 Red. masses --      1.1078                 1.1041                 1.0873
 Frc consts  --      6.3404                 6.4299                 6.4756
 IR Inten    --     21.7694                12.6203                11.3587

                     97                     98                     99
                      A                      A                      A
 Frequencies --   3196.2105              3204.2320              3219.1003
 Red. masses --      1.0884                 1.0918                 1.0970
 Frc consts  --      6.5509                 6.6045                 6.6978
 IR Inten    --      4.0241                27.0755                14.6868

                    100                    101                    102
                      A                      A                      A
 Frequencies --   3542.8105              3546.4746              3650.5925
 Red. masses --      1.0743                 1.0482                 1.0981
 Frc consts  --      7.9444                 7.7675                 8.6219
 IR Inten    --     28.0715                16.2095                18.9936

 - Thermochemistry -
 -------------------
 Temperature   298.150 Kelvin.  Pressure   1.00000 Atm.
 Atom     1 has atomic number  6 and mass  12.00000

 Molecular mass:   250.13174 amu.
 Principal axes and moments of inertia in atomic units:
                           1         2         3
     Eigenvalues --  1791.60739********************
           X            0.99998  -0.00369   0.00419
           Y            0.00377   0.99980  -0.01966
           Z           -0.00412   0.01968   0.99980
 This molecule is an asymmetric top.
 Rotational symmetry number  1.
 Warning -- assumption of classical behavior for rotation
           may cause significant error
 Rotational temperatures (Kelvin)      0.04834     0.00817     0.00753
 Rotational constants (GHZ):           1.00733     0.17026     0.15696
 Zero-point vibrational energy     798438.5 (Joules/Mol)
                                  190.83138 (Kcal/Mol)
 Warning -- explicit consideration of  26 degrees of freedom as
           vibrations may cause significant error
 Vibrational temperatures:     24.55    31.54    53.51    71.12    76.22
          (Kelvin)             94.95   116.46   172.40   207.59   263.13
                              314.74   329.97   411.84   452.23   483.64
                              519.54   567.53   581.52   620.47   656.08
                              686.46   732.11   757.77   787.34   829.07
                              857.83   934.45   964.38  1022.99  1065.56
                             1089.49  1097.41  1132.85  1203.22  1237.03
                             1243.16  1264.67  1282.85  1294.65  1339.66
                             1351.83  1376.84  1392.47  1442.63  1490.58
                             1526.09  1530.76  1552.85  1566.38  1571.47
                             1612.06  1633.27  1675.75  1685.34  1687.50
                             1719.45  1735.36  1758.21  1792.66  1814.02
                             1856.48  1891.10  1901.30  1903.65  1932.61
                             1939.02  1961.41  1977.37  1988.20  2032.74
                             2051.80  2100.62  2109.56  2168.35  2175.52
                             2184.16  2206.24  2222.36  2238.69  2246.37
                             2363.87  2385.90  2429.38  2541.93  4309.53
                             4343.85  4369.89  4390.79  4395.10  4428.62
                             4440.66  4447.38  4463.57  4484.24  4523.45
                             4574.31  4598.63  4610.18  4631.57  5097.31
                             5102.59  5252.39

 Zero-point correction=                           0.304109 (Hartree/Particle)
 Thermal correction to Energy=                    0.321550
 Thermal correction to Enthalpy=                  0.322494
 Thermal correction to Gibbs Free Energy=         0.255230
 Sum of electronic and zero-point Energies=           -841.117886
 Sum of electronic and thermal Energies=              -841.100445
 Sum of electronic and thermal Enthalpies=            -841.099501
 Sum of electronic and thermal Free Energies=         -841.166765

                     E (Thermal)             CV                S
                      KCal/Mol        Cal/Mol-Kelvin    Cal/Mol-Kelvin
 Total                  201.775             65.293            141.570
 Electronic               0.000              0.000              0.000
 Translational            0.889              2.981             42.451
 Rotational               0.889              2.981             33.745
 Vibrational            199.998             59.332             65.374
 Vibration     1          0.593              1.986              6.950
 Vibration     2          0.593              1.985              6.452
 Vibration     3          0.594              1.982              5.403
 Vibration     4          0.595              1.978              4.840
 Vibration     5          0.596              1.976              4.703
 Vibration     6          0.597              1.970              4.270
 Vibration     7          0.600              1.962              3.868
 Vibration     8          0.609              1.933              3.103
 Vibration     9          0.616              1.909              2.746
 Vibration    10          0.630              1.863              2.299
 Vibration    11          0.647              1.813              1.969
 Vibration    12          0.652              1.796              1.884
 Vibration    13          0.684              1.699              1.496
 Vibration    14          0.702              1.646              1.340
 Vibration    15          0.717              1.603              1.230
 Vibration    16          0.735              1.552              1.117
 Vibration    17          0.761              1.482              0.983
 Vibration    18          0.769              1.461              0.947
 Vibration    19          0.792              1.402              0.855
 Vibration    20          0.814              1.348              0.778
 Vibration    21          0.834              1.301              0.718
 Vibration    22          0.864              1.230              0.636
 Vibration    23          0.882              1.191              0.595
 Vibration    24          0.902              1.146              0.550
 Vibration    25          0.933              1.083              0.492
 Vibration    26          0.954              1.040              0.456

 Optimization completed.
    -- Stationary point found.
 Normal termination of Gaussian 16 at Fri Dec 11 21:45:48 2020.

 ----------------------------------------------------------------------
 # B3LYP/6-311++G(d,p) empiricaldispersion=gd3bj scf=xqc pop=npa geom=c
 heck
 ----------------------------------------------------------------------

 ---------------------------------------
 CID_113715164_JID_8737_Energie_neutraal
 ---------------------------------------
 Structure from the checkpoint file:  "JID_8737.chk"
 Charge =  0 Multiplicity = 1

 SCF Done:  E(RB3LYP) =  -841.669669402     A.U. after   15 cycles
 Normal termination of Gaussian 16 at Fri Dec 11 21:51:10 2020.

 ----------------------------------------------------------------------
 # B3LYP/6-311++G(d,p) empiricaldispersion=gd3bj scf=xqc pop=npa geom=c
 heck
 ----------------------------------------------------------------------

 -------------------------------------
 CID_113715164_JID_8737_Energie_kation
 -------------------------------------
 Structure from the checkpoint file:  "JID_8737.chk"
 Charge =  1 Multiplicity = 2

 SCF Done:  E(UB3LYP) =  -841.382370200     A.U. after   31 cycles
 Normal termination of Gaussian 16 at Fri Dec 11 22:06:30 2020.
 Gaussian 16:  ES64L-G16RevA.03 25-Dec-2016

 ----------------------------------------------------------------------
 # B3LYP/6-311++G(d,p) empiricaldispersion=gd3bj scf=xqc pop=npa geom=c
 heck
 ----------------------------------------------------------------------

 ------------------------------------
 CID_113715164_JID_8737_Energie_anion
 ------------------------------------
 Structure from the checkpoint file:  "JID_8737.chk"
 Charge = -1 Multiplicity = 2

                         Standard orientation:
 ---------------------------------------------------------------------
 Center     Atomic      Atomic             Coordinates (Angstroms)
 Number     Number       Type             X           Y           Z
 ---------------------------------------------------------------------
      1          6           0       -4.135915   -0.891049   -0.564348
      2          6           0       -4.213902    0.525793    0.049707
      3          6           0       -4.999072   -0.156898    1.176157
      4          8           0       -4.935212   -1.438757    0.516095
      5          8           0       -3.006012    1.081248    0.508343
      6          6           0       -2.176978    1.568372   -0.540843
      7          6           0       -0.770302    1.733751    0.018709
      8          6           0       -0.149587    0.405157    0.497941
      9          6           0        0.145912   -0.546574   -0.646050
     10          8           0       -0.740927   -1.087587   -1.301752
     11          7           0        1.467450   -0.814813   -0.933082
     12          6           0        2.639546   -0.206854   -0.399452
     13          6           0        2.895039    1.155381   -0.562259
     14          6           0        4.047848    1.733129   -0.034922
     15          6           0        4.966495    0.923638    0.637002
     16          6           0        4.731623   -0.439082    0.792320
     17          6           0        3.562950   -1.027088    0.284020
     18          7           0        3.323006   -2.393760    0.390607
     19          1           0       -3.120832   -1.300938   -0.594764
     20          1           0       -4.625300   -1.028854   -1.536679
     21          1           0       -4.779483    1.257898   -0.544851
     22          1           0       -6.032302    0.179936    1.327939
     23          1           0       -4.462482   -0.147255    2.133349
     24          1           0       -2.165492    0.861656   -1.378819
     25          1           0       -2.562025    2.534624   -0.905497
     26          1           0       -0.136959    2.202936   -0.744583
     27          1           0       -0.809695    2.422435    0.870554
     28          1           0        0.749018    0.605941    1.084745
     29          1           0       -0.880680   -0.092776    1.141787
     30          1           0        1.580594   -1.481200   -1.691795
     31          1           0        2.176006    1.754210   -1.112765
     32          1           0        4.233258    2.794972   -0.159932
     33          1           0        5.874729    1.356005    1.047133
     34          1           0        5.451217   -1.061716    1.318261
     35          1           0        3.831726   -2.859856    1.130996
     36          1           0        2.340787   -2.643292    0.382863
 ---------------------------------------------------------------------

 SCF Done:  E(UB3LYP) =  -841.660320456     A.U. after   33 cycles
 SCF Done:  E(UB3LYP) =  -841.660320456     a.u. after    1 cycles

 The electronic state is 2-A.
 Alpha  occ. eigenvalues --  -19.04853 -19.03896 -19.00300 -14.25651 -14.22667
 Alpha  occ. eigenvalues --  -10.18920 -10.14810 -10.14010 -10.13101 -10.13005
 Alpha  occ. eigenvalues --  -10.12807 -10.12113 -10.09277 -10.08921 -10.08830
 Alpha  occ. eigenvalues --  -10.08604 -10.07994 -10.07935  -0.97623  -0.95456
 Alpha  occ. eigenvalues --   -0.94949  -0.85761  -0.81740  -0.75006  -0.71651
 Alpha  occ. eigenvalues --   -0.66200  -0.65629  -0.64106  -0.61574  -0.60920
 Alpha  occ. eigenvalues --   -0.54528  -0.52640  -0.51983  -0.48754  -0.47644
 Alpha  occ. eigenvalues --   -0.45443  -0.44161  -0.42896  -0.42660  -0.41208
 Alpha  occ. eigenvalues --   -0.40180  -0.39373  -0.36896  -0.36519  -0.36167
 Alpha  occ. eigenvalues --   -0.35340  -0.34652  -0.34266  -0.33103  -0.32982
 Alpha  occ. eigenvalues --   -0.31780  -0.30215  -0.29432  -0.28234  -0.28048
 Alpha  occ. eigenvalues --   -0.27174  -0.26663  -0.26121  -0.24527  -0.23256
 Alpha  occ. eigenvalues --   -0.22858  -0.19720  -0.18231  -0.17833  -0.17029
 Alpha  occ. eigenvalues --   -0.15789  -0.12250   0.03896
 Alpha virt. eigenvalues --    0.05263   0.06055   0.06650   0.06952   0.07297
 Alpha virt. eigenvalues --    0.07870   0.08255   0.08751   0.09001   0.09184
 Alpha virt. eigenvalues --    0.09969   0.10176   0.10639   0.10923   0.11059

  Beta  occ. eigenvalues --  -19.04847 -19.03896 -19.00286 -14.25648 -14.22602
  Beta  occ. eigenvalues --  -10.18906 -10.14802 -10.14005 -10.13088 -10.13002
  Beta  occ. eigenvalues --  -10.12800 -10.12097 -10.09262 -10.08907 -10.08822
  Beta  occ. eigenvalues --  -10.08585 -10.07968 -10.07927  -0.97617  -0.95431
  Beta  occ. eigenvalues --   -0.94943  -0.85726  -0.81679  -0.74962  -0.71628
  Beta  occ. eigenvalues --   -0.66178  -0.65590  -0.64043  -0.61563  -0.60893
  Beta  occ. eigenvalues --   -0.54484  -0.52598  -0.51921  -0.48730  -0.47610
  Beta  occ. eigenvalues --   -0.45394  -0.44140  -0.42878  -0.42586  -0.41149
  Beta  occ. eigenvalues --   -0.40149  -0.39355  -0.36857  -0.36477  -0.36141
  Beta  occ. eigenvalues --   -0.35305  -0.34615  -0.34220  -0.33079  -0.32966
  Beta  occ. eigenvalues --   -0.31747  -0.30171  -0.29401  -0.28214  -0.28010
  Beta  occ. eigenvalues --   -0.27150  -0.26622  -0.26094  -0.24506  -0.23237
  Beta  occ. eigenvalues --   -0.22802  -0.19678  -0.18217  -0.17819  -0.17015
  Beta  occ. eigenvalues --   -0.15741  -0.12183
  Beta virt. eigenvalues --    0.05672   0.06334   0.06805   0.06950   0.07376
  Beta virt. eigenvalues --    0.07522   0.08192   0.08296   0.08881   0.09448
  Beta virt. eigenvalues --    0.09635   0.10165   0.10302   0.10728   0.11032

 Mulliken charges and spin densities:
               1          2
     1  C   -0.135432  -0.083103
     2  C   -0.174161   0.003675
     3  C    0.041246  -0.228197
     4  O   -0.218196   0.008496
     5  O   -0.049119   0.013211
     6  C    0.139784  -0.567755
     7  C   -0.375769   0.026731
     8  C    0.093709  -0.042219
     9  C    0.103415  -0.349336
    10  O   -0.342922   0.034538
    11  N   -0.120496  -0.067048
    12  C    1.351787  -1.480507
    13  C    0.216320  -0.159789
    14  C   -0.192358  -0.199381
    15  C    1.508904  -1.845117
    16  C   -0.846127   0.792047
    17  C   -0.876196   0.895249
    18  N   -0.234841  -0.076211
    19  H    0.293022   0.004963
    20  H    0.061879   0.060624
    21  H    0.017797   0.113950
    22  H    0.032854   0.102060
    23  H    0.133578   0.012435
    24  H    0.194813  -0.013138
    25  H   -0.432985   0.603959
    26  H    0.004776   0.088002
    27  H   -0.035698   0.244052
    28  H    0.275417  -0.088955
    29  H    0.070824   0.144628
    30  H    0.221902   0.117917
    31  H   -0.039371   0.195905
    32  H   -0.354648   0.528772
    33  H   -0.050138   0.203217
    34  H   -0.885262   1.065002
    35  H   -0.445048   0.716189
    36  H    0.046736   0.225137
 Sum of Mulliken charges =  -1.00000   1.00000

 Dipole moment (field-independent basis, Debye):
    X=             -6.5808    Y=              2.9738    Z=             -2.0784  Tot=              7.5147
 Quadrupole moment (field-independent basis, Debye-Ang):
   XX=           -218.1629   YY=           -163.6516   ZZ=           -137.8633
   XY=              9.9034   XZ=            -12.9433   YZ=              7.7605

 Summary of Natural Population Analysis:

                                       Natural Population
                Natural  -----------------------------------------------
    Atom  No    Charge         Core      Valence    Rydberg      Total
 -----------------------------------------------------------------------
      C    1   -0.02383      0.99962     2.01364    0.01056     3.02383
      C    2    0.04293      0.99955     1.94401    0.01351     2.95707
      C    3   -0.00939      0.99963     1.99861    0.01115     3.00939
      O    4   -0.30537      0.99991     3.29740    0.00805     4.30537
      O    5   -0.30356      0.99987     3.29336    0.01033     4.30356
      C    6   -0.01543      0.99956     2.00341    0.01246     3.01543
      C    7   -0.19303      0.99962     2.18399    0.00942     3.19303
      C    8   -0.23839      0.99958     2.23087    0.00794     3.23839
      C    9    0.35200      0.99966     1.62659    0.02175     2.64800
      O   10   -0.33162      0.99987     3.32553    0.00621     4.33162
      N   11   -0.32226      0.99965     2.81159    0.01103     3.82226
      C   12    0.04238      0.99942     1.94637    0.01183     2.95762
      C   13   -0.09478      0.99952     2.08673    0.00853     3.09478
      C   14   -0.12203      0.99956     2.11208    0.01039     3.12203
      C   15   -0.08815      0.99957     2.07893    0.00966     3.08815
      C   16   -0.11951      0.99952     2.10935    0.01063     3.11951
      C   17    0.08639      0.99945     1.90186    0.01229     2.91361
      N   18   -0.39288      0.99971     2.88307    0.01009     3.89288
      H   19    0.10540      0.00000     0.39292    0.00168     0.39460
      H   20    0.08122      0.00000     0.41756    0.00122     0.41878
      H   21    0.08220      0.00000     0.41624    0.00156     0.41780
      H   22    0.08128      0.00000     0.41717    0.00155     0.41872
      H   23    0.08849      0.00000     0.40976    0.00175     0.41151
      H   24    0.09267      0.00000     0.40562    0.00171     0.40733
      H   25    0.08160      0.00000     0.41690    0.00150     0.41840
      H   26    0.09999      0.00000     0.39853    0.00149     0.40001
      H   27    0.10264      0.00000     0.39612    0.00124     0.39736
      H   28    0.11133      0.00000     0.38730    0.00137     0.38867
      H   29    0.11726      0.00000     0.38109    0.00165     0.38274
      H   30    0.19819      0.00000     0.29918    0.00263     0.30181
      H   31    0.10253      0.00000     0.39574    0.00173     0.39747
      H   32    0.10180      0.00000     0.39709    0.00111     0.39820
      H   33    0.10103      0.00000     0.39794    0.00103     0.39897
      H   34    0.10505      0.00000     0.39267    0.00228     0.39495
      H   35    0.19334      0.00000     0.29769    0.00897     0.30666
      H   36    0.19049      0.00000     0.30685    0.00265     0.30951
 =======================================================================
   * Total *    0.00000     17.99328    48.77376    0.23296    67.00000

 Normal termination of Gaussian 16 at Fri Dec 11 22:23:03 2020.
