 Gaussian 16, Revision A.03,

 -----------------------------------------------------------
 # opt freq B3LYP/6-31G(d) empiricaldispersion=gd3bj scf=xqc
 -----------------------------------------------------------

 -------------------------------
 CID_150395554_JID_5928_neutraal
 -------------------------------
 Symbolic Z-matrix:
 Charge =  0 Multiplicity = 1

 SCF Done:  E(RB3LYP) =  -665.214662635     A.U. after   16 cycles
 SCF Done:  E(RB3LYP) =  -665.218080267     A.U. after   15 cycles
 SCF Done:  E(RB3LYP) =  -665.219377662     A.U. after   13 cycles
 SCF Done:  E(RB3LYP) =  -665.220264553     A.U. after   13 cycles
 SCF Done:  E(RB3LYP) =  -665.221408487     A.U. after   16 cycles
 SCF Done:  E(RB3LYP) =  -665.223718715     A.U. after   16 cycles
 SCF Done:  E(RB3LYP) =  -665.226822506     A.U. after   16 cycles
 SCF Done:  E(RB3LYP) =  -665.227952501     A.U. after   15 cycles
 SCF Done:  E(RB3LYP) =  -665.227845871     A.U. after   14 cycles
 SCF Done:  E(RB3LYP) =  -665.228186240     A.U. after   13 cycles
 SCF Done:  E(RB3LYP) =  -665.228313891     A.U. after   12 cycles
 SCF Done:  E(RB3LYP) =  -665.228332354     A.U. after   12 cycles
 SCF Done:  E(RB3LYP) =  -665.228336575     A.U. after   10 cycles
 SCF Done:  E(RB3LYP) =  -665.228337185     A.U. after    9 cycles
 SCF Done:  E(RB3LYP) =  -665.228337243     A.U. after    8 cycles
 Optimization completed.
    -- Stationary point found.
 Normal termination of Gaussian 16 at Thu Dec 10 17:39:25 2020.

 --------------------------------------------------------------------
 #N Geom=AllCheck Guess=TCheck SCRF=Check GenChk RB3LYP/6-31G(d) Freq
 --------------------------------------------------------------------

 Structure from the checkpoint file:  "JID_5928.chk"
 -------------------------------
 CID_150395554_JID_5928_neutraal
 -------------------------------
 Charge =  0 Multiplicity = 1

 SCF Done:  E(RB3LYP) =  -665.228337243     A.U. after    1 cycles

  Exact polarizability: 178.187 -13.720 153.575  14.785  -3.287  75.407
 Approx polarizability: 245.788 -36.489 309.671  31.591  -9.353 113.340

                      1                      2                      3
                      A                      A                      A
 Frequencies --     20.5707                46.3895                61.2920
 Red. masses --      6.4130                 4.0047                 3.2257
 Frc consts  --      0.0016                 0.0051                 0.0071
 IR Inten    --      0.3582                 0.6941                 0.5386

                      4                      5                      6
                      A                      A                      A
 Frequencies --     80.0538               101.0004               137.8540
 Red. masses --      5.8695                 8.9264                 5.1655
 Frc consts  --      0.0222                 0.0537                 0.0578
 IR Inten    --      0.4436                 0.0681                 2.1094

                      7                      8                      9
                      A                      A                      A
 Frequencies --    173.6339               219.3781               245.1177
 Red. masses --      4.1777                 5.6275                 4.8809
 Frc consts  --      0.0742                 0.1596                 0.1728
 IR Inten    --      0.1040                 5.2388                 0.4898

                     10                     11                     12
                      A                      A                      A
 Frequencies --    292.4493               329.6238               400.7787
 Red. masses --      3.7285                 3.0786                 2.9014
 Frc consts  --      0.1879                 0.1971                 0.2746
 IR Inten    --      0.9437                 1.9145                 1.8096

                     13                     14                     15
                      A                      A                      A
 Frequencies --    413.8575               443.1859               453.8555
 Red. masses --      5.8076                 3.1809                 6.2400
 Frc consts  --      0.5861                 0.3681                 0.7573
 IR Inten    --      1.0353                 0.2061                 0.5350

                     16                     17                     18
                      A                      A                      A
 Frequencies --    513.1390               537.0189               546.2120
 Red. masses --      4.2978                 6.0826                 8.7694
 Frc consts  --      0.6668                 1.0335                 1.5415
 IR Inten    --      0.7213                 1.2549                10.0776

                     19                     20                     21
                      A                      A                      A
 Frequencies --    607.4067               673.7278               691.2938
 Red. masses --      4.0318                 7.3600                 2.9946
 Frc consts  --      0.8764                 1.9683                 0.8432
 IR Inten    --     29.6698                18.1221                 7.0307

                     22                     23                     24
                      A                      A                      A
 Frequencies --    719.5671               757.1349               780.3014
 Red. masses --      4.0672                 3.4978                 1.1605
 Frc consts  --      1.2408                 1.1814                 0.4163
 IR Inten    --     11.7701                23.3079                 8.3201

                     25                     26                     27
                      A                      A                      A
 Frequencies --    804.3457               829.3853               847.5342
 Red. masses --      1.5606                 1.4864                 1.9616
 Frc consts  --      0.5949                 0.6024                 0.8302
 IR Inten    --     24.2379                 3.9325                23.4194

                     28                     29                     30
                      A                      A                      A
 Frequencies --    894.8059               917.2244               920.5940
 Red. masses --      5.7939                 1.4821                 1.5187
 Frc consts  --      2.7332                 0.7346                 0.7583
 IR Inten    --     10.8635                 0.0043                 3.7447

                     31                     32                     33
                      A                      A                      A
 Frequencies --    939.8498               961.7303               982.8500
 Red. masses --      1.4793                 2.8549                 1.2900
 Frc consts  --      0.7699                 1.5558                 0.7342
 IR Inten    --     11.5056                 4.1339                 0.4462

                     34                     35                     36
                      A                      A                      A
 Frequencies --   1005.1296              1020.8615              1066.2705
 Red. masses --      2.3704                 6.0338                 1.3931
 Frc consts  --      1.4110                 3.7049                 0.9332
 IR Inten    --      3.9724                 1.6183                 9.1619

                     37                     38                     39
                      A                      A                      A
 Frequencies --   1075.9742              1085.1474              1117.7653
 Red. masses --      2.0663                 1.4050                 1.6939
 Frc consts  --      1.4094                 0.9748                 1.2470
 IR Inten    --      3.6787                 7.6361                 0.5605

                     40                     41                     42
                      A                      A                      A
 Frequencies --   1138.8517              1152.4004              1171.9900
 Red. masses --      1.5891                 1.1710                 2.4015
 Frc consts  --      1.2143                 0.9162                 1.9435
 IR Inten    --     10.7723                 0.5911                 2.2730

                     43                     44                     45
                      A                      A                      A
 Frequencies --   1206.0741              1210.0508              1228.2540
 Red. masses --      1.1579                 1.4077                 1.8204
 Frc consts  --      0.9923                 1.2144                 1.6180
 IR Inten    --      0.5142                 0.7117                46.2666

                     46                     47                     48
                      A                      A                      A
 Frequencies --   1247.4668              1302.2342              1326.4066
 Red. masses --      2.0098                 1.5970                 1.7724
 Frc consts  --      1.8427                 1.5956                 1.8373
 IR Inten    --     61.1278                62.8498                48.7894

                     49                     50                     51
                      A                      A                      A
 Frequencies --   1329.1202              1362.9609              1384.3290
 Red. masses --      1.4945                 6.7956                 5.7100
 Frc consts  --      1.5555                 7.4378                 6.4471
 IR Inten    --     18.0637               114.1293               102.2236

                     52                     53                     54
                      A                      A                      A
 Frequencies --   1417.9479              1477.1480              1496.7332
 Red. masses --      1.6072                 3.0965                 1.0884
 Frc consts  --      1.9039                 3.9808                 1.4366
 IR Inten    --      8.5007                54.9594                 1.7423

                     55                     56                     57
                      A                      A                      A
 Frequencies --   1513.4103              1533.8852              1539.2057
 Red. masses --      1.2070                 1.9360                 1.4706
 Frc consts  --      1.6288                 2.6837                 2.0527
 IR Inten    --     37.2010                40.0200                 0.9513

                     58                     59                     60
                      A                      A                      A
 Frequencies --   1643.5008              1649.1621              1770.3364
 Red. masses --      5.7554                 5.9390                11.4778
 Frc consts  --      9.1594                 9.5168                21.1943
 IR Inten    --     34.6979                51.3021               121.1157

                     61                     62                     63
                      A                      A                      A
 Frequencies --   2270.8211              3074.3139              3118.7906
 Red. masses --     13.9879                 1.0585                 1.1046
 Frc consts  --     42.4979                 5.8942                 6.3301
 IR Inten    --    698.8267                14.7380                12.4706

                     64                     65                     66
                      A                      A                      A
 Frequencies --   3145.2933              3153.9220              3168.2305
 Red. masses --      1.0530                 1.0566                 1.0900
 Frc consts  --      6.1376                 6.1923                 6.4463
 IR Inten    --     22.4991                10.6145                 7.7821

                     67                     68                     69
                      A                      A                      A
 Frequencies --   3201.3102              3217.8605              3220.5146
 Red. masses --      1.0879                 1.0900                 1.1186
 Frc consts  --      6.5690                 6.6497                 6.8358
 IR Inten    --      8.1184                 5.4836                 1.1532

                     70                     71                     72
                      A                      A                      A
 Frequencies --   3223.1767              3233.2078              3236.9507
 Red. masses --      1.0932                 1.0985                 1.1093
 Frc consts  --      6.6915                 6.7656                 6.8483
 IR Inten    --      8.0450                11.4045                21.5663

 - Thermochemistry -
 -------------------
 Temperature   298.150 Kelvin.  Pressure   1.00000 Atm.
 Atom     1 has atomic number  6 and mass  12.00000

 Molecular mass:   201.09021 amu.
 Principal axes and moments of inertia in atomic units:
                           1         2         3
     Eigenvalues --  1565.334565589.253926499.78677
           X            0.99996   0.00524  -0.00711
           Y           -0.00527   0.99998  -0.00367
           Z            0.00709   0.00371   0.99997
 This molecule is an asymmetric top.
 Rotational symmetry number  1.
 Warning -- assumption of classical behavior for rotation
           may cause significant error
 Rotational temperatures (Kelvin)      0.05533     0.01550     0.01333
 Rotational constants (GHZ):           1.15294     0.32289     0.27766
 Zero-point vibrational energy     538799.1 (Joules/Mol)
                                  128.77607 (Kcal/Mol)
 Warning -- explicit consideration of  19 degrees of freedom as
           vibrations may cause significant error
 Vibrational temperatures:     29.60    66.74    88.19   115.18   145.32
          (Kelvin)            198.34   249.82   315.64   352.67   420.77
                              474.26   576.63   595.45   637.65   653.00
                              738.29   772.65   785.88   873.92   969.34
                              994.62  1035.30  1089.35  1122.68  1157.27
                             1193.30  1219.41  1287.43  1319.68  1324.53
                             1352.23  1383.72  1414.10  1446.16  1468.79
                             1534.13  1548.09  1561.29  1608.21  1638.55
                             1658.05  1686.23  1735.27  1740.99  1767.18
                             1794.83  1873.62  1908.40  1912.31  1961.00
                             1991.74  2040.11  2125.29  2153.47  2177.46
                             2206.92  2214.57  2364.63  2372.78  2547.12
                             3267.21  4423.25  4487.24  4525.38  4537.79
                             4558.38  4605.97  4629.78  4633.60  4637.43
                             4651.86  4657.25

 Zero-point correction=                           0.205218 (Hartree/Particle)
 Thermal correction to Energy=                    0.218511
 Thermal correction to Enthalpy=                  0.219455
 Thermal correction to Gibbs Free Energy=         0.163161
 Sum of electronic and zero-point Energies=           -665.023120
 Sum of electronic and thermal Energies=              -665.009826
 Sum of electronic and thermal Enthalpies=            -665.008882
 Sum of electronic and thermal Free Energies=         -665.065176

                     E (Thermal)             CV                S
                      KCal/Mol        Cal/Mol-Kelvin    Cal/Mol-Kelvin
 Total                  137.118             49.747            118.480
 Electronic               0.000              0.000              0.000
 Translational            0.889              2.981             41.800
 Rotational               0.889              2.981             32.408
 Vibrational            135.340             43.785             44.272
 Vibration     1          0.593              1.986              6.578
 Vibration     2          0.595              1.979              4.966
 Vibration     3          0.597              1.973              4.415
 Vibration     4          0.600              1.963              3.890
 Vibration     5          0.604              1.948              3.435
 Vibration     6          0.614              1.916              2.833
 Vibration     7          0.627              1.875              2.396
 Vibration     8          0.647              1.812              1.964
 Vibration     9          0.660              1.771              1.765
 Vibration    10          0.688              1.688              1.460
 Vibration    11          0.712              1.616              1.262
 Vibration    12          0.767              1.468              0.960
 Vibration    13          0.777              1.440              0.913
 Vibration    14          0.803              1.376              0.817
 Vibration    15          0.812              1.352              0.784
 Vibration    16          0.868              1.221              0.626
 Vibration    17          0.892              1.168              0.572
 Vibration    18          0.901              1.148              0.552
 Vibration    19          0.966              1.016              0.437

 Optimization completed.
    -- Stationary point found.
 Normal termination of Gaussian 16 at Thu Dec 10 17:47:22 2020.

 ----------------------------------------------------------------------
 # B3LYP/6-311++G(d,p) empiricaldispersion=gd3bj scf=xqc pop=npa geom=c
 heck
 ----------------------------------------------------------------------

 ---------------------------------------
 CID_150395554_JID_5928_Energie_neutraal
 ---------------------------------------
 Structure from the checkpoint file:  "JID_5928.chk"
 Charge =  0 Multiplicity = 1

 SCF Done:  E(RB3LYP) =  -665.406058114     A.U. after   16 cycles
 Normal termination of Gaussian 16 at Thu Dec 10 17:50:32 2020.

 ----------------------------------------------------------------------
 # B3LYP/6-311++G(d,p) empiricaldispersion=gd3bj scf=xqc pop=npa geom=c
 heck
 ----------------------------------------------------------------------

 -------------------------------------
 CID_150395554_JID_5928_Energie_kation
 -------------------------------------
 Structure from the checkpoint file:  "JID_5928.chk"
 Charge =  1 Multiplicity = 2

 SCF Done:  E(UB3LYP) =  -665.092895503     A.U. after   29 cycles
 Normal termination of Gaussian 16 at Thu Dec 10 17:57:07 2020.
 Gaussian 16:  ES64L-G16RevA.03 25-Dec-2016

 ----------------------------------------------------------------------
 # B3LYP/6-311++G(d,p) empiricaldispersion=gd3bj scf=xqc pop=npa geom=c
 heck
 ----------------------------------------------------------------------

 ------------------------------------
 CID_150395554_JID_5928_Energie_anion
 ------------------------------------
 Structure from the checkpoint file:  "JID_5928.chk"
 Charge = -1 Multiplicity = 2

                         Standard orientation:
 ---------------------------------------------------------------------
 Center     Atomic      Atomic             Coordinates (Angstroms)
 Number     Number       Type             X           Y           Z
 ---------------------------------------------------------------------
      1          6           0       -3.232054    0.484486    1.372053
      2          6           0       -4.513458    0.097026    0.674640
      3          6           0       -3.252324   -0.690163    0.425097
      4          6           0       -2.554036   -0.618701   -0.925749
      5          6           0       -1.082461   -0.967334   -0.751625
      6          8           0       -0.740874   -2.140879   -0.734081
      7          6           0       -0.069333    0.115838   -0.520601
      8          6           0        1.229144   -0.292346   -0.190153
      9          6           0        2.225275    0.654698    0.043060
     10          6           0        1.932346    2.021912   -0.056873
     11          6           0        0.644962    2.426829   -0.390976
     12          6           0       -0.357167    1.483423   -0.623233
     13          7           0        3.562972    0.330845    0.387282
     14          7           0        3.859504   -0.867747    0.485355
     15          7           0        4.264590   -1.926028    0.608493
     16          1           0       -3.139178    0.283666    2.435301
     17          1           0       -2.729553    1.392544    1.051134
     18          1           0       -5.303210   -0.366998    1.258508
     19          1           0       -4.873066    0.741571   -0.123567
     20          1           0       -3.194232   -1.675185    0.882566
     21          1           0       -2.983669   -1.363839   -1.602961
     22          1           0       -2.702134    0.368749   -1.372926
     23          1           0        1.426067   -1.357427   -0.122720
     24          1           0        2.721649    2.742814    0.128084
     25          1           0        0.420493    3.485996   -0.472621
     26          1           0       -1.351007    1.821654   -0.889898
 ---------------------------------------------------------------------

 SCF Done:  E(UB3LYP) =  -665.424312894     A.U. after   33 cycles
 SCF Done:  E(UB3LYP) =  -665.424312894     a.u. after    1 cycles

 The electronic state is 2-A.
 Alpha  occ. eigenvalues --  -18.91677 -14.37555 -14.27587 -14.25507 -10.08330
 Alpha  occ. eigenvalues --  -10.06430 -10.06353 -10.06207 -10.05997 -10.03712
 Alpha  occ. eigenvalues --  -10.03423 -10.02698 -10.02238 -10.02040 -10.01712
 Alpha  occ. eigenvalues --   -1.03504  -0.87754  -0.85987  -0.74888  -0.71691
 Alpha  occ. eigenvalues --   -0.63461  -0.61187  -0.59863  -0.51915  -0.49494
 Alpha  occ. eigenvalues --   -0.48867  -0.45702  -0.43418  -0.40403  -0.40004
 Alpha  occ. eigenvalues --   -0.39155  -0.36612  -0.36011  -0.34929  -0.34678
 Alpha  occ. eigenvalues --   -0.31219  -0.30347  -0.28950  -0.27601  -0.26037
 Alpha  occ. eigenvalues --   -0.25331  -0.24971  -0.23872  -0.23349  -0.21319
 Alpha  occ. eigenvalues --   -0.20635  -0.19406  -0.18787  -0.17630  -0.17284
 Alpha  occ. eigenvalues --   -0.11646  -0.09855  -0.08139   0.04229
 Alpha virt. eigenvalues --    0.07029   0.07934   0.08967   0.09192   0.09813
 Alpha virt. eigenvalues --    0.10672   0.11162   0.11620   0.12657   0.13156
 Alpha virt. eigenvalues --    0.13584   0.14373   0.14727   0.15561   0.16299

  Beta  occ. eigenvalues --  -18.91124 -14.37565 -14.27624 -14.25484 -10.08414
  Beta  occ. eigenvalues --  -10.06423 -10.06315 -10.05996 -10.05861 -10.03743
  Beta  occ. eigenvalues --  -10.03454 -10.02568 -10.01879 -10.01834 -10.01545
  Beta  occ. eigenvalues --   -1.03532  -0.87761  -0.84977  -0.74840  -0.71350
  Beta  occ. eigenvalues --   -0.63145  -0.60754  -0.59620  -0.51655  -0.49441
  Beta  occ. eigenvalues --   -0.48143  -0.45606  -0.43145  -0.40472  -0.39935
  Beta  occ. eigenvalues --   -0.39032  -0.36327  -0.35758  -0.34871  -0.34536
  Beta  occ. eigenvalues --   -0.30999  -0.30111  -0.28817  -0.27179  -0.25991
  Beta  occ. eigenvalues --   -0.24778  -0.24389  -0.23597  -0.23077  -0.20876
  Beta  occ. eigenvalues --   -0.19525  -0.19246  -0.18589  -0.17217  -0.16458
  Beta  occ. eigenvalues --   -0.09934  -0.08766  -0.07632
  Beta virt. eigenvalues --    0.06996   0.07874   0.09092   0.09160   0.09670
  Beta virt. eigenvalues --    0.10489   0.10891   0.11304   0.11567   0.12645
  Beta virt. eigenvalues --    0.13131   0.13542   0.14375   0.14979   0.15561

 Mulliken charges and spin densities:
               1          2
     1  C   -0.471759   0.011662
     2  C   -0.358954   0.001220
     3  C    0.241760  -0.035197
     4  C   -0.083643   0.033764
     5  C   -0.430150   0.170874
     6  O   -0.378281   0.203351
     7  C    1.905734   0.108501
     8  C    0.813381   0.208185
     9  C   -1.858100  -0.084681
    10  C   -0.080317   0.288035
    11  C   -0.227425  -0.023666
    12  C   -1.577489   0.099954
    13  N    0.211205   0.026902
    14  N    0.184030  -0.018325
    15  N   -0.284091  -0.015497
    16  H    0.122743   0.001574
    17  H    0.119497  -0.000996
    18  H    0.116046   0.002733
    19  H    0.101496   0.007051
    20  H    0.215782  -0.003630
    21  H    0.123774   0.045015
    22  H    0.113435   0.004383
    23  H    0.194291  -0.015110
    24  H    0.131472  -0.023391
    25  H    0.135354   0.002117
    26  H    0.020210   0.005174
 Sum of Mulliken charges =  -1.00000   1.00000

 Dipole moment (field-independent basis, Debye):
    X=             -2.3442    Y=              3.1772    Z=              1.3872  Tot=              4.1850
 Quadrupole moment (field-independent basis, Debye-Ang):
   XX=           -122.5387   YY=           -113.6991   ZZ=            -97.8812
   XY=             -0.3703   XZ=             -1.7601   YZ=             -3.5724

 Summary of Natural Population Analysis:

                                       Natural Population
                Natural  -----------------------------------------------
    Atom  No    Charge         Core      Valence    Rydberg      Total
 -----------------------------------------------------------------------
      C    1   -0.19916      0.99963     2.19256    0.00697     3.19916
      C    2   -0.20504      0.99963     2.19890    0.00652     3.20504
      C    3   -0.09879      0.99959     2.09042    0.00878     3.09879
      C    4   -0.22724      0.99959     2.21859    0.00906     3.22724
      C    5    0.31507      0.99963     1.66386    0.02144     2.68493
      O    6   -0.25478      0.99988     3.24805    0.00686     4.25478
      C    7   -0.02931      0.99948     2.02008    0.00975     3.02931
      C    8   -0.05978      0.99949     2.05164    0.00866     3.05978
      C    9    0.03137      0.99942     1.95781    0.01140     2.96863
      C   10   -0.04060      0.99953     2.03194    0.00913     3.04060
      C   11   -0.11959      0.99958     2.11066    0.00934     3.11959
      C   12   -0.07240      0.99954     2.06495    0.00791     3.07240
      N   13   -0.15694      0.99965     2.64366    0.01363     3.65694
      N   14    0.11766      0.99971     2.36612    0.01651     3.38234
      N   15   -0.06964      0.99982     2.55610    0.01372     3.56964
      H   16    0.09682      0.00000     0.40218    0.00100     0.40318
      H   17    0.10463      0.00000     0.39425    0.00112     0.39537
      H   18    0.09430      0.00000     0.40464    0.00106     0.40570
      H   19    0.09575      0.00000     0.40322    0.00104     0.40425
      H   20    0.10291      0.00000     0.39580    0.00129     0.39709
      H   21    0.10254      0.00000     0.39484    0.00262     0.39746
      H   22    0.09328      0.00000     0.40550    0.00123     0.40672
      H   23    0.10883      0.00000     0.38942    0.00175     0.39117
      H   24    0.09133      0.00000     0.40756    0.00111     0.40867
      H   25    0.08929      0.00000     0.40909    0.00162     0.41071
      H   26    0.08950      0.00000     0.40914    0.00136     0.41050
 =======================================================================
   * Total *   -0.00000     14.99415    37.83097    0.17488    53.00000

 Normal termination of Gaussian 16 at Thu Dec 10 18:04:36 2020.
