 Gaussian 16, Revision A.03,

 -----------------------------------------------------------
 # opt freq B3LYP/6-31G(d) empiricaldispersion=gd3bj scf=xqc
 -----------------------------------------------------------

 -----------------------------
 CID_6304702_JID_6648_neutraal
 -----------------------------
 Symbolic Z-matrix:
 Charge =  0 Multiplicity = 1

 SCF Done:  E(RB3LYP) =  -1082.14690676     A.U. after   16 cycles
 SCF Done:  E(RB3LYP) =  -1082.17455376     A.U. after   14 cycles
 SCF Done:  E(RB3LYP) =  -1082.17668532     A.U. after   13 cycles
 SCF Done:  E(RB3LYP) =  -1082.17748320     A.U. after   13 cycles
 SCF Done:  E(RB3LYP) =  -1082.17812222     A.U. after   13 cycles
 SCF Done:  E(RB3LYP) =  -1082.17843303     A.U. after   13 cycles
 SCF Done:  E(RB3LYP) =  -1082.17848395     A.U. after   13 cycles
 SCF Done:  E(RB3LYP) =  -1082.17856558     A.U. after   11 cycles
 SCF Done:  E(RB3LYP) =  -1082.17859465     A.U. after   11 cycles
 SCF Done:  E(RB3LYP) =  -1082.17860379     A.U. after   11 cycles
 SCF Done:  E(RB3LYP) =  -1082.17860724     A.U. after   10 cycles
 SCF Done:  E(RB3LYP) =  -1082.17860800     A.U. after    9 cycles
 SCF Done:  E(RB3LYP) =  -1082.17860866     A.U. after   10 cycles
 SCF Done:  E(RB3LYP) =  -1082.17860882     A.U. after    8 cycles
 SCF Done:  E(RB3LYP) =  -1082.17860884     A.U. after    7 cycles
 Optimization completed.
    -- Stationary point found.
 Normal termination of Gaussian 16 at Fri Dec 11 00:03:20 2020.

 --------------------------------------------------------------------
 #N Geom=AllCheck Guess=TCheck SCRF=Check GenChk RB3LYP/6-31G(d) Freq
 --------------------------------------------------------------------

 Structure from the checkpoint file:  "JID_6648.chk"
 -----------------------------
 CID_6304702_JID_6648_neutraal
 -----------------------------
 Charge =  0 Multiplicity = 1

 SCF Done:  E(RB3LYP) =  -1082.17860884     A.U. after    1 cycles

  Exact polarizability: 287.014   4.446 173.522  -0.001   0.002  53.453
 Approx polarizability: 401.866  24.352 352.026  -0.001   0.004  84.305

                      1                      2                      3
                      A                      A                      A
 Frequencies --     18.8507                43.7086                51.1393
 Red. masses --      5.9879                 7.1319                 6.6399
 Frc consts  --      0.0013                 0.0080                 0.0102
 IR Inten    --      0.1580                 0.0086                12.4494

                      4                      5                      6
                      A                      A                      A
 Frequencies --     69.3398                83.5822               145.6190
 Red. masses --      6.6438                 9.0661                 5.9875
 Frc consts  --      0.0188                 0.0373                 0.0748
 IR Inten    --      0.6208                 0.0040                 0.3111

                      7                      8                      9
                      A                      A                      A
 Frequencies --    154.8263               167.6439               226.5689
 Red. masses --     12.2661                10.3688                 7.7179
 Frc consts  --      0.1732                 0.1717                 0.2334
 IR Inten    --      8.1682                 1.6418                 5.4189

                     10                     11                     12
                      A                      A                      A
 Frequencies --    252.0971               310.1521               340.9160
 Red. masses --      6.5519                 5.7204                 3.7671
 Frc consts  --      0.2453                 0.3242                 0.2580
 IR Inten    --      0.5365                 9.3388                 1.2620

                     13                     14                     15
                      A                      A                      A
 Frequencies --    375.1253               393.6303               414.2423
 Red. masses --     10.0282                 1.2330                 2.9510
 Frc consts  --      0.8314                 0.1126                 0.2984
 IR Inten    --     13.9318               203.4869                 2.6039

                     16                     17                     18
                      A                      A                      A
 Frequencies --    429.5232               479.2795               487.6840
 Red. masses --      4.9348                 3.3480                 5.2434
 Frc consts  --      0.5364                 0.4531                 0.7348
 IR Inten    --      2.0548                 4.3440                 1.0144

                     19                     20                     21
                      A                      A                      A
 Frequencies --    504.2822               557.1295               558.4574
 Red. masses --      6.5252                 9.3334                 3.1607
 Frc consts  --      0.9777                 1.7069                 0.5808
 IR Inten    --      7.4781                 4.4439                33.0646

                     22                     23                     24
                      A                      A                      A
 Frequencies --    614.9141               617.9317               640.6781
 Red. masses --      1.2249                 1.3255                 5.2547
 Frc consts  --      0.2729                 0.2982                 1.2708
 IR Inten    --     12.7070                35.5222                43.2351

                     25                     26                     27
                      A                      A                      A
 Frequencies --    648.3760               695.4265               715.1449
 Red. masses --      6.7776                 7.0028                 2.9680
 Frc consts  --      1.6787                 1.9954                 0.8943
 IR Inten    --      3.5755                 4.2398                70.2375

                     28                     29                     30
                      A                      A                      A
 Frequencies --    758.1317               781.2946               796.9959
 Red. masses --      4.8308                 3.8739                 6.7728
 Frc consts  --      1.6359                 1.3932                 2.5347
 IR Inten    --     51.6978                33.8527                 3.5322

                     31                     32                     33
                      A                      A                      A
 Frequencies --    857.7152               861.4933               873.7275
 Red. masses --      1.2750                 5.2975                 1.7099
 Frc consts  --      0.5526                 2.3165                 0.7691
 IR Inten    --      0.1934                 3.4218                13.0279

                     34                     35                     36
                      A                      A                      A
 Frequencies --    918.9339               985.9239               991.2534
 Red. masses --      3.1890                 1.3657                 1.3411
 Frc consts  --      1.5866                 0.7822                 0.7764
 IR Inten    --     45.7516                 3.5494                 4.1129

                     37                     38                     39
                      A                      A                      A
 Frequencies --   1009.7189              1038.8757              1093.2098
 Red. masses --      1.4045                 3.0617                 2.6745
 Frc consts  --      0.8437                 1.9469                 1.8832
 IR Inten    --      3.7291                13.8419                29.4618

                     40                     41                     42
                      A                      A                      A
 Frequencies --   1128.1248              1159.5495              1209.0293
 Red. masses --      4.2770                 1.4065                 1.4987
 Frc consts  --      3.2070                 1.1142                 1.2908
 IR Inten    --    143.1169                 2.0039               239.9837

                     43                     44                     45
                      A                      A                      A
 Frequencies --   1237.5769              1255.9440              1312.2594
 Red. masses --      1.4147                 2.3788                 2.4947
 Frc consts  --      1.2766                 2.2108                 2.5311
 IR Inten    --    130.4428                19.6483               211.8994

                     46                     47                     48
                      A                      A                      A
 Frequencies --   1357.1141              1367.2908              1399.8511
 Red. masses --      1.5066                 6.0164                 2.7731
 Frc consts  --      1.6349                 6.6269                 3.2017
 IR Inten    --     26.4733                60.2687               185.7841

                     49                     50                     51
                      A                      A                      A
 Frequencies --   1403.2440              1424.4214              1462.8483
 Red. masses --      2.5960                 2.5005                 2.6362
 Frc consts  --      3.0118                 2.9892                 3.3238
 IR Inten    --     42.8248                80.2796                49.2506

                     52                     53                     54
                      A                      A                      A
 Frequencies --   1558.5424              1612.2364              1652.4483
 Red. masses --      2.3917                 6.5402                 5.2468
 Frc consts  --      3.4230                10.0162                 8.4412
 IR Inten    --      9.3838                 1.6213                64.6264

                     55                     56                     57
                      A                      A                      A
 Frequencies --   1669.1640              1674.1397              1824.1227
 Red. masses --      1.5587                 3.4257                10.0072
 Frc consts  --      2.5587                 5.6570                19.6188
 IR Inten    --    141.2094               212.9989               349.1886

                     58                     59                     60
                      A                      A                      A
 Frequencies --   2319.3949              3167.9716              3202.1160
 Red. masses --     12.6667                 1.0875                 1.0899
 Frc consts  --     40.1480                 6.4304                 6.5844
 IR Inten    --     33.2779                 5.1638                 3.1614

                     61                     62                     63
                      A                      A                      A
 Frequencies --   3234.7270              3236.4825              3259.7001
 Red. masses --      1.0930                 1.0900                 1.0923
 Frc consts  --      6.7382                 6.7271                 6.8382
 IR Inten    --      0.9333                 0.4400                 1.0838

                     64                     65                     66
                      A                      A                      A
 Frequencies --   3560.9318              3693.8667              3699.3599
 Red. masses --      1.0471                 1.1032                 1.0642
 Frc consts  --      7.8232                 8.8690                 8.5809
 IR Inten    --     79.2466                82.6195               100.9268

 - Thermochemistry -
 -------------------
 Temperature   298.150 Kelvin.  Pressure   1.00000 Atm.
 Atom     1 has atomic number  6 and mass  12.00000

 Molecular mass:   232.03065 amu.
 Principal axes and moments of inertia in atomic units:
                           1         2         3
     Eigenvalues --  1471.597649412.38359**********
           X            1.00000   0.00213   0.00000
           Y           -0.00213   1.00000   0.00000
           Z           -0.00000  -0.00000   1.00000
 This molecule is an asymmetric top.
 Rotational symmetry number  1.
 Warning -- assumption of classical behavior for rotation
           may cause significant error
 Rotational temperatures (Kelvin)      0.05886     0.00920     0.00796
 Rotational constants (GHZ):           1.22638     0.19174     0.16582
 Zero-point vibrational energy     454856.1 (Joules/Mol)
                                  108.71322 (Kcal/Mol)
 Warning -- explicit consideration of  23 degrees of freedom as
           vibrations may cause significant error
 Vibrational temperatures:     27.12    62.89    73.58    99.76   120.26
          (Kelvin)            209.51   222.76   241.20   325.98   362.71
                              446.24   490.50   539.72   566.35   596.00
                              617.99   689.58   701.67   725.55   801.59
                              803.50   884.72   889.07   921.79   932.87
                             1000.56  1028.93  1090.78  1124.11  1146.70
                             1234.06  1239.50  1257.10  1322.14  1418.52
                             1426.19  1452.76  1494.71  1572.89  1623.12
                             1668.33  1739.52  1780.60  1807.02  1888.05
                             1952.58  1967.23  2014.07  2018.96  2049.42
                             2104.71  2242.39  2319.65  2377.50  2401.55
                             2408.71  2624.51  3337.09  4558.00  4607.13
                             4654.05  4656.58  4689.98  5123.39  5314.65
                             5322.55

 Zero-point correction=                           0.173246 (Hartree/Particle)
 Thermal correction to Energy=                    0.187810
 Thermal correction to Enthalpy=                  0.188754
 Thermal correction to Gibbs Free Energy=         0.129167
 Sum of electronic and zero-point Energies=          -1082.005363
 Sum of electronic and thermal Energies=             -1081.990799
 Sum of electronic and thermal Enthalpies=           -1081.989855
 Sum of electronic and thermal Free Energies=        -1082.049442

                     E (Thermal)             CV                S
                      KCal/Mol        Cal/Mol-Kelvin    Cal/Mol-Kelvin
 Total                  117.852             53.786            125.411
 Electronic               0.000              0.000              0.000
 Translational            0.889              2.981             42.227
 Rotational               0.889              2.981             33.377
 Vibrational            116.075             47.825             49.807
 Vibration     1          0.593              1.986              6.752
 Vibration     2          0.595              1.980              5.083
 Vibration     3          0.595              1.977              4.773
 Vibration     4          0.598              1.969              4.172
 Vibration     5          0.600              1.960              3.805
 Vibration     6          0.617              1.907              2.729
 Vibration     7          0.620              1.897              2.612
 Vibration     8          0.624              1.882              2.462
 Vibration     9          0.650              1.801              1.906
 Vibration    10          0.664              1.759              1.716
 Vibration    11          0.699              1.654              1.362
 Vibration    12          0.720              1.594              1.208
 Vibration    13          0.746              1.523              1.059
 Vibration    14          0.761              1.484              0.986
 Vibration    15          0.778              1.439              0.912
 Vibration    16          0.791              1.406              0.860
 Vibration    17          0.836              1.296              0.712
 Vibration    18          0.844              1.277              0.690
 Vibration    19          0.860              1.241              0.648
 Vibration    20          0.913              1.124              0.530
 Vibration    21          0.914              1.121              0.527
 Vibration    22          0.974              1.000              0.425
 Vibration    23          0.978              0.994              0.420

 Optimization completed.
    -- Stationary point found.
 Normal termination of Gaussian 16 at Fri Dec 11 00:09:35 2020.

 ----------------------------------------------------------------------
 # B3LYP/6-311++G(d,p) empiricaldispersion=gd3bj scf=xqc pop=npa geom=c
 heck
 ----------------------------------------------------------------------

 -------------------------------------
 CID_6304702_JID_6648_Energie_neutraal
 -------------------------------------
 Structure from the checkpoint file:  "JID_6648.chk"
 Charge =  0 Multiplicity = 1

 SCF Done:  E(RB3LYP) =  -1082.40297428     A.U. after   17 cycles
 Normal termination of Gaussian 16 at Fri Dec 11 00:12:14 2020.

 ----------------------------------------------------------------------
 # B3LYP/6-311++G(d,p) empiricaldispersion=gd3bj scf=xqc pop=npa geom=c
 heck
 ----------------------------------------------------------------------

 -----------------------------------
 CID_6304702_JID_6648_Energie_kation
 -----------------------------------
 Structure from the checkpoint file:  "JID_6648.chk"
 Charge =  1 Multiplicity = 2

 SCF Done:  E(UB3LYP) =  -1082.09092080     A.U. after   29 cycles
 Normal termination of Gaussian 16 at Fri Dec 11 00:18:44 2020.
 Gaussian 16:  ES64L-G16RevA.03 25-Dec-2016

 ----------------------------------------------------------------------
 # B3LYP/6-311++G(d,p) empiricaldispersion=gd3bj scf=xqc pop=npa geom=c
 heck
 ----------------------------------------------------------------------

 ----------------------------------
 CID_6304702_JID_6648_Energie_anion
 ----------------------------------
 Structure from the checkpoint file:  "JID_6648.chk"
 Charge = -1 Multiplicity = 2

                         Standard orientation:
 ---------------------------------------------------------------------
 Center     Atomic      Atomic             Coordinates (Angstroms)
 Number     Number       Type             X           Y           Z
 ---------------------------------------------------------------------
      1          6           0       -1.002315   -1.482200   -0.000087
      2          6           0       -2.386540   -1.407354   -0.000095
      3          6           0       -3.015704   -0.157055   -0.000003
      4          6           0       -2.242618    1.012621    0.000116
      5          6           0       -0.856881    0.937855    0.000137
      6          6           0       -0.207544   -0.314949    0.000022
      7          6           0        1.230799   -0.515123    0.000036
      8          6           0        2.266171    0.366251    0.000037
      9          6           0        2.089165    1.783559   -0.000019
     10          7           0        2.042025    2.948129   -0.000130
     11          6           0        3.685760   -0.117831    0.000025
     12         16           0        4.112379   -1.731903   -0.000057
     13          7           0        4.612015    0.858366    0.000097
     14          6           0       -4.502575   -0.125890    0.000013
     15          8           0       -5.212971   -1.110239    0.000214
     16          8           0       -5.003221    1.133677   -0.000228
     17          1           0       -0.513689   -2.452142   -0.000172
     18          1           0       -2.999513   -2.301700   -0.000168
     19          1           0       -2.733432    1.978660    0.000195
     20          1           0       -0.283992    1.855497    0.000245
     21          1           0        1.554523   -1.554417    0.000015
     22          1           0        4.369035    1.841498    0.000114
     23          1           0        5.587261    0.595255    0.000089
     24          1           0       -5.973318    1.035509   -0.000155
 ---------------------------------------------------------------------

 SCF Done:  E(UB3LYP) =  -1082.47682124     A.U. after   21 cycles

 The electronic state is 2-A.
 Alpha  occ. eigenvalues --  -88.67363 -19.07121 -19.00287 -14.23458 -14.19387
 Alpha  occ. eigenvalues --  -10.19345 -10.14567 -10.09679 -10.07981 -10.07125
 Alpha  occ. eigenvalues --  -10.06817 -10.06745 -10.06413 -10.06189 -10.05810
 Alpha  occ. eigenvalues --  -10.05768  -7.76166  -5.72547  -5.72032  -5.71707
 Alpha  occ. eigenvalues --   -1.00844  -0.91546  -0.84150  -0.79380  -0.75366
 Alpha  occ. eigenvalues --   -0.70228  -0.65745  -0.63980  -0.61110  -0.57300
 Alpha  occ. eigenvalues --   -0.52580  -0.50240  -0.48224  -0.46265  -0.44240
 Alpha  occ. eigenvalues --   -0.42482  -0.39699  -0.38683  -0.35499  -0.35179
 Alpha  occ. eigenvalues --   -0.34257  -0.33463  -0.31613  -0.30082  -0.29751
 Alpha  occ. eigenvalues --   -0.28621  -0.26614  -0.26369  -0.25818  -0.24544
 Alpha  occ. eigenvalues --   -0.24248  -0.23419  -0.22922  -0.21554  -0.19251
 Alpha  occ. eigenvalues --   -0.17990  -0.15227  -0.13900  -0.11027  -0.09887
 Alpha  occ. eigenvalues --   -0.02008
 Alpha virt. eigenvalues --    0.07028   0.07057   0.08060   0.09241   0.09729
 Alpha virt. eigenvalues --    0.10279   0.10621   0.11640   0.11879   0.13152
 Alpha virt. eigenvalues --    0.13351   0.13906   0.14522   0.15052   0.15222

  Beta  occ. eigenvalues --  -88.67343 -19.07088 -19.00139 -14.23355 -14.19264
  Beta  occ. eigenvalues --  -10.19286 -10.14427 -10.09695 -10.07867 -10.07115
  Beta  occ. eigenvalues --  -10.06813 -10.06578 -10.06425 -10.06069 -10.05616
  Beta  occ. eigenvalues --  -10.05385  -7.76148  -5.72541  -5.71961  -5.71698
  Beta  occ. eigenvalues --   -1.00716  -0.91331  -0.83888  -0.79197  -0.75073
  Beta  occ. eigenvalues --   -0.69649  -0.65359  -0.63724  -0.60844  -0.56788
  Beta  occ. eigenvalues --   -0.52219  -0.50133  -0.47981  -0.46008  -0.44144
  Beta  occ. eigenvalues --   -0.42364  -0.39413  -0.38522  -0.35313  -0.34609
  Beta  occ. eigenvalues --   -0.34115  -0.33297  -0.31538  -0.29929  -0.28777
  Beta  occ. eigenvalues --   -0.28407  -0.26173  -0.25873  -0.25596  -0.24446
  Beta  occ. eigenvalues --   -0.23689  -0.23257  -0.22307  -0.21458  -0.17819
  Beta  occ. eigenvalues --   -0.17657  -0.14484  -0.12873  -0.10162  -0.09810
  Beta virt. eigenvalues --    0.03147   0.07035   0.08070   0.08623   0.09696
  Beta virt. eigenvalues --    0.09725   0.10623   0.11411   0.11645   0.11899
  Beta virt. eigenvalues --    0.13200   0.13353   0.14030   0.14536   0.15185

 Mulliken charges and spin densities:
               1          2
     1  C   -0.064468   0.105741
     2  C   -0.238596   0.016905
     3  C    0.593883   0.143860
     4  C   -0.682341  -0.031092
     5  C   -0.746022   0.127864
     6  C    0.400412  -0.020997
     7  C    0.116758   0.323591
     8  C    1.736923   0.072359
     9  C   -1.440971  -0.029710
    10  N   -0.266354   0.062430
    11  C   -0.588898   0.061884
    12  S   -0.734774   0.055749
    13  N   -0.145108   0.050876
    14  C    0.305204   0.039961
    15  O   -0.364779   0.053427
    16  O   -0.208287   0.008356
    17  H    0.165819  -0.002637
    18  H    0.171336  -0.000253
    19  H    0.193067   0.002895
    20  H    0.058884  -0.008973
    21  H   -0.076684  -0.027792
    22  H    0.285279  -0.002004
    23  H    0.251146  -0.001944
    24  H    0.278571  -0.000496
 Sum of Mulliken charges =  -1.00000   1.00000

 Dipole moment (field-independent basis, Debye):
    X=             -2.2544    Y=              1.7997    Z=              0.0002  Tot=              2.8846
 Quadrupole moment (field-independent basis, Debye-Ang):
   XX=           -156.4037   YY=           -127.1861   ZZ=           -109.0045
   XY=              0.7574   XZ=              0.0028   YZ=              0.0025

 Summary of Natural Population Analysis:

                                       Natural Population
                Natural  -----------------------------------------------
    Atom  No    Charge         Core      Valence    Rydberg      Total
 -----------------------------------------------------------------------
      C    1   -0.06009      0.99957     2.05145    0.00906     3.06009
      C    2   -0.08366      0.99943     2.07556    0.00867     3.08366
      C    3   -0.04182      0.99946     2.03215    0.01021     3.04182
      C    4   -0.09956      0.99955     2.09164    0.00837     3.09956
      C    5   -0.05681      0.99953     2.04969    0.00759     3.05681
      C    6   -0.04025      0.99952     2.03265    0.00808     3.04025
      C    7    0.07233      0.99942     1.92060    0.00765     2.92767
      C    8   -0.12470      0.99934     2.11480    0.01056     3.12470
      C    9    0.14454      0.99963     1.83607    0.01976     2.85546
      N   10   -0.19115      0.99979     2.68018    0.01118     3.69115
      C   11    0.08463      0.99963     1.89764    0.01809     2.91537
      S   12   -0.12982      4.99955     3.11604    0.01424     8.12982
      N   13   -0.37041      0.99967     2.85994    0.01081     3.87041
      C   14    0.40280      0.99966     1.57285    0.02469     2.59720
      O   15   -0.30603      0.99987     3.29845    0.00771     4.30603
      O   16   -0.34767      0.99988     3.34200    0.00580     4.34767
      H   17    0.09649      0.00000     0.40220    0.00131     0.40351
      H   18    0.10671      0.00000     0.39216    0.00113     0.39329
      H   19    0.10490      0.00000     0.39401    0.00109     0.39510
      H   20    0.10649      0.00000     0.39145    0.00206     0.39351
      H   21    0.10615      0.00000     0.39229    0.00156     0.39385
      H   22    0.19852      0.00000     0.29918    0.00230     0.30148
      H   23    0.19397      0.00000     0.30441    0.00163     0.30603
      H   24    0.23447      0.00000     0.26254    0.00299     0.26553
 =======================================================================
   * Total *    0.00004     19.99350    39.80993    0.19653    59.99996

 Normal termination of Gaussian 16 at Fri Dec 11 00:23:20 2020.
