 Gaussian 16, Revision A.03,

 -----------------------------------------------------------
 # opt freq B3LYP/6-31G(d) empiricaldispersion=gd3bj scf=xqc
 -----------------------------------------------------------

 ------------------------------
 CID_60696240_JID_7755_neutraal
 ------------------------------
 Symbolic Z-matrix:
 Charge =  0 Multiplicity = 1

 SCF Done:  E(RB3LYP) =  -785.916152097     A.U. after   14 cycles
 SCF Done:  E(RB3LYP) =  -785.920429307     A.U. after   14 cycles
 SCF Done:  E(RB3LYP) =  -785.918601953     A.U. after   14 cycles
 SCF Done:  E(RB3LYP) =  -785.919582756     A.U. after   12 cycles
 SCF Done:  E(RB3LYP) =  -785.921932650     A.U. after   10 cycles
 SCF Done:  E(RB3LYP) =  -785.922981403     A.U. after   12 cycles
 SCF Done:  E(RB3LYP) =  -785.923286079     A.U. after   12 cycles
 SCF Done:  E(RB3LYP) =  -785.923765192     A.U. after   11 cycles
 SCF Done:  E(RB3LYP) =  -785.923903002     A.U. after   11 cycles
 SCF Done:  E(RB3LYP) =  -785.924004020     A.U. after   11 cycles
 SCF Done:  E(RB3LYP) =  -785.924072895     A.U. after    9 cycles
 SCF Done:  E(RB3LYP) =  -785.924075554     A.U. after    9 cycles
 SCF Done:  E(RB3LYP) =  -785.924078193     A.U. after    8 cycles
 SCF Done:  E(RB3LYP) =  -785.924080152     A.U. after    9 cycles
 SCF Done:  E(RB3LYP) =  -785.924080266     A.U. after    7 cycles
 Optimization completed.
    -- Stationary point found.
 Normal termination of Gaussian 16 at Mon Dec 14 13:27:08 2020.

 --------------------------------------------------------------------
 #N Geom=AllCheck Guess=TCheck SCRF=Check GenChk RB3LYP/6-31G(d) Freq
 --------------------------------------------------------------------

 Structure from the checkpoint file:  "JID_7755.chk"
 ------------------------------
 CID_60696240_JID_7755_neutraal
 ------------------------------
 Charge =  0 Multiplicity = 1

 SCF Done:  E(RB3LYP) =  -785.924080266     A.U. after    1 cycles

  Exact polarizability: 181.061   3.000 146.923  -2.147  -4.573 121.410
 Approx polarizability: 227.959   5.180 219.461   1.162 -14.975 180.989

                      1                      2                      3
                      A                      A                      A
 Frequencies --     18.3714                33.9176                45.4765
 Red. masses --      4.0752                 3.9395                 3.6953
 Frc consts  --      0.0008                 0.0027                 0.0045
 IR Inten    --      0.1965                 1.8394                 2.1764

                      4                      5                      6
                      A                      A                      A
 Frequencies --     55.0361                69.7353                85.7160
 Red. masses --      4.6240                 4.1215                 4.0597
 Frc consts  --      0.0083                 0.0118                 0.0176
 IR Inten    --      0.9774                 0.4472                 1.7407

                      7                      8                      9
                      A                      A                      A
 Frequencies --    113.8947               136.7231               148.8449
 Red. masses --      2.8597                 4.0753                 4.1952
 Frc consts  --      0.0219                 0.0449                 0.0548
 IR Inten    --      1.8430                 1.8951                 2.0812

                     10                     11                     12
                      A                      A                      A
 Frequencies --    191.7651               217.1984               244.3650
 Red. masses --      2.6475                 1.3978                 1.3457
 Frc consts  --      0.0574                 0.0389                 0.0473
 IR Inten    --      2.1711                 0.5063                 1.0802

                     13                     14                     15
                      A                      A                      A
 Frequencies --    258.1596               263.1861               271.2259
 Red. masses --      1.8016                 2.0392                 2.2460
 Frc consts  --      0.0707                 0.0832                 0.0973
 IR Inten    --      1.7115                 0.3741                 0.5984

                     16                     17                     18
                      A                      A                      A
 Frequencies --    285.3171               313.5745               379.7243
 Red. masses --      2.4684                 2.3939                 3.3638
 Frc consts  --      0.1184                 0.1387                 0.2858
 IR Inten    --      6.6349                 2.8901                 2.8628

                     19                     20                     21
                      A                      A                      A
 Frequencies --    395.6575               404.2874               421.2968
 Red. masses --      2.8518                 3.0095                 2.7801
 Frc consts  --      0.2630                 0.2898                 0.2907
 IR Inten    --     20.2128                 2.0473                 9.3568

                     22                     23                     24
                      A                      A                      A
 Frequencies --    433.8385               446.9484               498.8104
 Red. masses --      1.9254                 3.0917                 3.8477
 Frc consts  --      0.2135                 0.3639                 0.5641
 IR Inten    --      1.5833                 7.4833                17.0161

                     25                     26                     27
                      A                      A                      A
 Frequencies --    536.2751               551.2346               578.1151
 Red. masses --      2.0126                 2.5973                 3.6942
 Frc consts  --      0.3410                 0.4650                 0.7274
 IR Inten    --      2.3420                 0.4626                 4.8409

                     28                     29                     30
                      A                      A                      A
 Frequencies --    611.0365               638.0950               651.2661
 Red. masses --      2.5792                 2.3217                 1.8231
 Frc consts  --      0.5674                 0.5570                 0.4556
 IR Inten    --     36.1105                 1.6291                31.2392

                     31                     32                     33
                      A                      A                      A
 Frequencies --    710.5702               756.4738               770.9207
 Red. masses --      2.1234                 3.8966                 2.2163
 Frc consts  --      0.6317                 1.3138                 0.7761
 IR Inten    --     90.7821                26.0553                28.7609

                     34                     35                     36
                      A                      A                      A
 Frequencies --    817.8780               825.6670               830.4392
 Red. masses --      2.3505                 1.5260                 1.5237
 Frc consts  --      0.9264                 0.6129                 0.6191
 IR Inten    --     18.6452                 0.7096                31.8270

                     37                     38                     39
                      A                      A                      A
 Frequencies --    845.2315               868.9706               900.2588
 Red. masses --      2.6529                 1.4407                 2.1201
 Frc consts  --      1.1167                 0.6409                 1.0124
 IR Inten    --     14.1960                 6.5826                 5.0004

                     40                     41                     42
                      A                      A                      A
 Frequencies --    901.9582               945.5269               951.9921
 Red. masses --      2.0727                 1.9830                 2.8086
 Frc consts  --      0.9935                 1.0445                 1.4997
 IR Inten    --      4.5764                 9.8341                 3.8052

                     43                     44                     45
                      A                      A                      A
 Frequencies --    978.6265               995.6063              1029.8874
 Red. masses --      1.3236                 2.1758                 2.2645
 Frc consts  --      0.7469                 1.2707                 1.4152
 IR Inten    --      2.8053                12.1012                29.3108

                     46                     47                     48
                      A                      A                      A
 Frequencies --   1041.7286              1047.3015              1082.5002
 Red. masses --      1.9065                 2.2391                 2.7114
 Frc consts  --      1.2190                 1.4470                 1.8719
 IR Inten    --     17.4015                21.3917                 6.6519

                     49                     50                     51
                      A                      A                      A
 Frequencies --   1084.5545              1102.8632              1140.5470
 Red. masses --      1.6949                 1.9259                 1.7930
 Frc consts  --      1.1746                 1.3801                 1.3742
 IR Inten    --      0.0869                 7.0931                12.5592

                     52                     53                     54
                      A                      A                      A
 Frequencies --   1150.5966              1162.2173              1173.3961
 Red. masses --      2.1857                 1.8303                 1.9855
 Frc consts  --      1.7049                 1.4566                 1.6107
 IR Inten    --     17.2710                 0.4168                49.6201

                     55                     56                     57
                      A                      A                      A
 Frequencies --   1186.3701              1189.3890              1198.0248
 Red. masses --      2.9408                 2.4249                 1.3158
 Frc consts  --      2.4387                 2.0211                 1.1127
 IR Inten    --     40.8196                19.8905                 0.6612

                     58                     59                     60
                      A                      A                      A
 Frequencies --   1259.5575              1281.1488              1290.0887
 Red. masses --      1.6173                 1.6143                 1.7531
 Frc consts  --      1.5118                 1.5611                 1.7191
 IR Inten    --     92.2712                24.1123                49.5601

                     61                     62                     63
                      A                      A                      A
 Frequencies --   1300.6013              1323.6698              1339.3783
 Red. masses --      1.2554                 1.2316                 1.3204
 Frc consts  --      1.2512                 1.2714                 1.3956
 IR Inten    --     10.7182                17.6931                47.4696

                     64                     65                     66
                      A                      A                      A
 Frequencies --   1347.3898              1365.5846              1370.7208
 Red. masses --      1.3411                 1.3632                 1.2877
 Frc consts  --      1.4345                 1.4978                 1.4255
 IR Inten    --     10.7206                 5.8314                 0.7218

                     67                     68                     69
                      A                      A                      A
 Frequencies --   1389.0870              1396.7816              1399.3179
 Red. masses --      1.6519                 1.3129                 1.5139
 Frc consts  --      1.8780                 1.5092                 1.7466
 IR Inten    --     57.7273                 2.0273                 0.8965

                     70                     71                     72
                      A                      A                      A
 Frequencies --   1402.4909              1408.5882              1420.3515
 Red. masses --      1.4591                 1.2229                 1.3514
 Frc consts  --      1.6909                 1.4296                 1.6063
 IR Inten    --      2.1516                 5.7491                15.1260

                     73                     74                     75
                      A                      A                      A
 Frequencies --   1426.0603              1436.9732              1443.4583
 Red. masses --      1.3068                 1.3157                 1.3753
 Frc consts  --      1.5658                 1.6006                 1.6884
 IR Inten    --     13.0902                22.3328                19.7324

                     76                     77                     78
                      A                      A                      A
 Frequencies --   1484.9841              1503.4169              1506.2143
 Red. masses --      1.9426                 1.1911                 1.3232
 Frc consts  --      2.5239                 1.5862                 1.7686
 IR Inten    --    107.7428                37.0796                22.1051

                     79                     80                     81
                      A                      A                      A
 Frequencies --   1508.3585              1514.1922              1515.9510
 Red. masses --      1.1332                 1.0900                 1.1374
 Frc consts  --      1.5191                 1.4725                 1.5401
 IR Inten    --     11.2413                 2.8382                21.2989

                     82                     83                     84
                      A                      A                      A
 Frequencies --   1520.8617              1522.9584              1525.2894
 Red. masses --      1.0853                 1.1041                 1.1348
 Frc consts  --      1.4791                 1.5088                 1.5555
 IR Inten    --     34.3173                37.6105                 1.1092

                     85                     86                     87
                      A                      A                      A
 Frequencies --   1525.9972              1534.3628              1536.8599
 Red. masses --      1.1317                 1.0828                 1.1449
 Frc consts  --      1.5527                 1.5020                 1.5933
 IR Inten    --      5.1374                 2.9001                 3.7283

                     88                     89                     90
                      A                      A                      A
 Frequencies --   1545.6337              1555.3918              1731.5953
 Red. masses --      1.1173                 1.1088                 9.8404
 Frc consts  --      1.5726                 1.5804                17.3842
 IR Inten    --     15.6578                21.4096               345.0819

                     91                     92                     93
                      A                      A                      A
 Frequencies --   1781.6140              3022.6352              3026.9668
 Red. masses --      7.5222                 1.0701                 1.0692
 Frc consts  --     14.0678                 5.7603                 5.7718
 IR Inten    --    346.7637                35.8361                11.8568

                     94                     95                     96
                      A                      A                      A
 Frequencies --   3027.3051              3033.4066              3041.3813
 Red. masses --      1.0735                 1.0733                 1.0622
 Frc consts  --      5.7967                 5.8189                 5.7892
 IR Inten    --     17.5878                47.9656                35.6642

                     97                     98                     99
                      A                      A                      A
 Frequencies --   3047.0738              3048.7521              3049.6186
 Red. masses --      1.0615                 1.0703                 1.0385
 Frc consts  --      5.8065                 5.8612                 5.6907
 IR Inten    --     31.8818                41.1934                27.4116

                    100                    101                    102
                      A                      A                      A
 Frequencies --   3055.1377              3078.5313              3085.2248
 Red. masses --      1.0423                 1.0849                 1.0934
 Frc consts  --      5.7321                 6.0578                 6.1321
 IR Inten    --     18.5506                14.2305                52.3672

                    103                    104                    105
                      A                      A                      A
 Frequencies --   3088.3893              3094.1181              3101.4055
 Red. masses --      1.1024                 1.1048                 1.0927
 Frc consts  --      6.1952                 6.2317                 6.1926
 IR Inten    --     37.7282                80.8498                12.0037

                    106                    107                    108
                      A                      A                      A
 Frequencies --   3110.3491              3113.5674              3130.0394
 Red. masses --      1.1002                 1.1014                 1.1018
 Frc consts  --      6.2712                 6.2909                 6.3599
 IR Inten    --     39.4208                33.2258                36.0658

                    109                    110                    111
                      A                      A                      A
 Frequencies --   3160.6377              3164.0342              3172.3759
 Red. masses --      1.0948                 1.0897                 1.0920
 Frc consts  --      6.4438                 6.4272                 6.4748
 IR Inten    --      2.6795                17.0056                 3.2996

                    112                    113                    114
                      A                      A                      A
 Frequencies --   3176.9965              3551.6339              3566.2311
 Red. masses --      1.0960                 1.0722                 1.0748
 Frc consts  --      6.5175                 7.9683                 8.0534
 IR Inten    --     13.0173                 4.9872                11.7269

 - Thermochemistry -
 -------------------
 Temperature   298.150 Kelvin.  Pressure   1.00000 Atm.
 Atom     1 has atomic number  6 and mass  12.00000

 Molecular mass:   241.17903 amu.
 Principal axes and moments of inertia in atomic units:
                           1         2         3
     Eigenvalues --  2081.515947777.174828450.47472
           X            0.99978   0.02041  -0.00489
           Y           -0.02026   0.99933   0.03042
           Z            0.00551  -0.03031   0.99953
 This molecule is an asymmetric top.
 Rotational symmetry number  1.
 Warning -- assumption of classical behavior for rotation
           may cause significant error
 Rotational temperatures (Kelvin)      0.04161     0.01114     0.01025
 Rotational constants (GHZ):           0.86703     0.23206     0.21357
 Zero-point vibrational energy     941158.0 (Joules/Mol)
                                  224.94216 (Kcal/Mol)
 Warning -- explicit consideration of  28 degrees of freedom as
           vibrations may cause significant error
 Vibrational temperatures:     26.43    48.80    65.43    79.18   100.33
          (Kelvin)            123.33   163.87   196.71   214.15   275.91
                              312.50   351.59   371.43   378.67   390.23
                              410.51   451.16   546.34   569.26   581.68
                              606.15   624.20   643.06   717.68   771.58
                              793.10   831.78   879.15   918.08   937.03
                             1022.35  1088.40  1109.18  1176.74  1187.95
                             1194.82  1216.10  1250.25  1295.27  1297.72
                             1360.40  1369.70  1408.03  1432.46  1481.78
                             1498.82  1506.83  1557.48  1560.43  1586.77
                             1640.99  1655.45  1672.17  1688.26  1706.92
                             1711.27  1723.69  1812.22  1843.29  1856.15
                             1871.28  1904.47  1927.07  1938.59  1964.77
                             1972.16  1998.59  2009.66  2013.31  2017.87
                             2026.64  2043.57  2051.78  2067.48  2076.81
                             2136.56  2163.08  2167.11  2170.19  2178.58
                             2181.12  2188.18  2191.20  2194.55  2195.57
                             2207.61  2211.20  2223.82  2237.86  2491.38
                             2563.35  4348.90  4355.13  4355.62  4364.40
                             4375.87  4384.06  4386.47  4387.72  4395.66
                             4429.32  4438.95  4443.50  4451.75  4462.23
                             4475.10  4479.73  4503.43  4547.45  4552.34
                             4564.34  4570.99  5110.01  5131.01

 Zero-point correction=                           0.358468 (Hartree/Particle)
 Thermal correction to Energy=                    0.376591
 Thermal correction to Enthalpy=                  0.377535
 Thermal correction to Gibbs Free Energy=         0.310711
 Sum of electronic and zero-point Energies=           -785.565612
 Sum of electronic and thermal Energies=              -785.547489
 Sum of electronic and thermal Enthalpies=            -785.546545
 Sum of electronic and thermal Free Energies=         -785.613369

                     E (Thermal)             CV                S
                      KCal/Mol        Cal/Mol-Kelvin    Cal/Mol-Kelvin
 Total                  236.315             68.234            140.644
 Electronic               0.000              0.000              0.000
 Translational            0.889              2.981             42.342
 Rotational               0.889              2.981             33.281
 Vibrational            234.537             62.272             65.021
 Vibration     1          0.593              1.986              6.803
 Vibration     2          0.594              1.983              5.586
 Vibration     3          0.595              1.979              5.005
 Vibration     4          0.596              1.976              4.628
 Vibration     5          0.598              1.969              4.161
 Vibration     6          0.601              1.959              3.756
 Vibration     7          0.607              1.938              3.201
 Vibration     8          0.614              1.917              2.849
 Vibration     9          0.618              1.904              2.687
 Vibration    10          0.634              1.851              2.211
 Vibration    11          0.646              1.815              1.982
 Vibration    12          0.660              1.772              1.771
 Vibration    13          0.667              1.749              1.674
 Vibration    14          0.670              1.740              1.641
 Vibration    15          0.675              1.726              1.588
 Vibration    16          0.683              1.701              1.502
 Vibration    17          0.701              1.648              1.343
 Vibration    18          0.750              1.513              1.040
 Vibration    19          0.762              1.479              0.979
 Vibration    20          0.769              1.461              0.947
 Vibration    21          0.784              1.424              0.888
 Vibration    22          0.795              1.396              0.846
 Vibration    23          0.806              1.368              0.805
 Vibration    24          0.854              1.253              0.661
 Vibration    25          0.891              1.170              0.573
 Vibration    26          0.907              1.137              0.542
 Vibration    27          0.935              1.079              0.489
 Vibration    28          0.970              1.008              0.431

                           ! Non-Optimized Parameters !
 Normal termination of Gaussian 16 at Mon Dec 14 13:42:53 2020.

 ----------------------------------------------------------------------
 # B3LYP/6-311++G(d,p) empiricaldispersion=gd3bj scf=xqc pop=npa geom=c
 heck
 ----------------------------------------------------------------------

 --------------------------------------
 CID_60696240_JID_7755_Energie_neutraal
 --------------------------------------
 Structure from the checkpoint file:  "JID_7755.chk"
 Charge =  0 Multiplicity = 1

 SCF Done:  E(RB3LYP) =  -786.154490760     A.U. after   14 cycles
 Normal termination of Gaussian 16 at Mon Dec 14 13:51:02 2020.

 ----------------------------------------------------------------------
 # B3LYP/6-311++G(d,p) empiricaldispersion=gd3bj scf=xqc pop=npa geom=c
 heck
 ----------------------------------------------------------------------

 ------------------------------------
 CID_60696240_JID_7755_Energie_kation
 ------------------------------------
 Structure from the checkpoint file:  "JID_7755.chk"
 Charge =  1 Multiplicity = 2

 SCF Done:  E(UB3LYP) =  -785.858048345     A.U. after   28 cycles
 Normal termination of Gaussian 16 at Mon Dec 14 14:14:18 2020.
 Gaussian 16:  ES64L-G16RevA.03 25-Dec-2016

 ----------------------------------------------------------------------
 # B3LYP/6-311++G(d,p) empiricaldispersion=gd3bj scf=xqc pop=npa geom=c
 heck
 ----------------------------------------------------------------------

 -----------------------------------
 CID_60696240_JID_7755_Energie_anion
 -----------------------------------
 Structure from the checkpoint file:  "JID_7755.chk"
 Charge = -1 Multiplicity = 2

                         Standard orientation:
 ---------------------------------------------------------------------
 Center     Atomic      Atomic             Coordinates (Angstroms)
 Number     Number       Type             X           Y           Z
 ---------------------------------------------------------------------
      1          6           0        3.376959    2.506423    0.595993
      2          6           0        3.128454    1.465747   -0.498812
      3          7           0        3.764254    0.183030   -0.207827
      4          6           0        3.258095   -0.973094    0.332144
      5          8           0        4.012274   -1.829224    0.780227
      6          6           0        1.738056   -1.192636    0.349049
      7          6           0        1.051434   -0.306712    1.414344
      8          7           0        1.210521   -1.159706   -1.024830
      9          6           0       -0.228701   -1.280515   -1.123378
     10          6           0       -0.952183    0.076970   -0.994345
     11          8           0       -0.302760    1.121719   -1.081241
     12          7           0       -2.306825    0.078408   -0.834703
     13          6           0       -2.999461    1.342375   -0.573605
     14          6           0       -3.489032    1.382133    0.878977
     15          6           0       -4.353414    0.154644    1.202618
     16          6           0       -3.623897   -1.148454    0.844600
     17          6           0       -3.130748   -1.106662   -0.607816
     18          1           0        2.954926    2.174538    1.550173
     19          1           0        2.915334    3.463011    0.326252
     20          1           0        4.450049    2.676729    0.742814
     21          1           0        2.056861    1.326811   -0.641516
     22          1           0        3.524231    1.831194   -1.455021
     23          1           0        4.775976    0.201247   -0.134399
     24          1           0        1.645070   -2.228455    0.690195
     25          1           0        1.053337    0.752934    1.157815
     26          1           0        0.006596   -0.609871    1.549226
     27          1           0        1.556614   -0.442346    2.377185
     28          1           0        1.481133   -0.301279   -1.494272
     29          1           0       -0.496845   -1.710462   -2.099871
     30          1           0       -0.574374   -1.991724   -0.367125
     31          1           0       -3.851596    1.418742   -1.263565
     32          1           0       -2.301602    2.149788   -0.791081
     33          1           0       -4.052220    2.306773    1.053276
     34          1           0       -2.612531    1.405727    1.539762
     35          1           0       -4.637584    0.153334    2.261143
     36          1           0       -5.287869    0.210020    0.625249
     37          1           0       -2.757927   -1.285381    1.506517
     38          1           0       -4.282518   -2.013863    0.986067
     39          1           0       -2.577433   -2.007728   -0.869713
     40          1           0       -3.992757   -1.053133   -1.288100
 ---------------------------------------------------------------------

 SCF Done:  E(UB3LYP) =  -786.145888807     A.U. after   33 cycles
 SCF Done:  E(UB3LYP) =  -786.145888807     a.u. after    1 cycles

 The electronic state is 2-A.
 Alpha  occ. eigenvalues --  -19.00068 -19.00010 -14.25421 -14.25127 -14.21441
 Alpha  occ. eigenvalues --  -10.18612 -10.18173 -10.12695 -10.12257 -10.11926
 Alpha  occ. eigenvalues --  -10.11735 -10.10875 -10.08652 -10.07851 -10.07843
 Alpha  occ. eigenvalues --  -10.07708 -10.07525  -0.95314  -0.95165  -0.85445
 Alpha  occ. eigenvalues --   -0.84017  -0.82296  -0.71117  -0.68389  -0.67602
 Alpha  occ. eigenvalues --   -0.67117  -0.62294  -0.58445  -0.56387  -0.54991
 Alpha  occ. eigenvalues --   -0.53697  -0.50069  -0.49961  -0.45155  -0.43226
 Alpha  occ. eigenvalues --   -0.41709  -0.40999  -0.39271  -0.37472  -0.36775
 Alpha  occ. eigenvalues --   -0.36648  -0.36525  -0.35345  -0.35031  -0.34436
 Alpha  occ. eigenvalues --   -0.33748  -0.32904  -0.32336  -0.31713  -0.30625
 Alpha  occ. eigenvalues --   -0.30394  -0.30363  -0.29709  -0.28290  -0.27751
 Alpha  occ. eigenvalues --   -0.27428  -0.26751  -0.25768  -0.24901  -0.23960
 Alpha  occ. eigenvalues --   -0.23534  -0.17861  -0.17466  -0.16837  -0.15585
 Alpha  occ. eigenvalues --   -0.14350   0.03800
 Alpha virt. eigenvalues --    0.05133   0.06631   0.06792   0.07593   0.07744
 Alpha virt. eigenvalues --    0.08301   0.08817   0.09071   0.09598   0.10149
 Alpha virt. eigenvalues --    0.10293   0.10298   0.10949   0.11197   0.11925

  Beta  occ. eigenvalues --  -19.00066 -18.99993 -14.25430 -14.25118 -14.21440
  Beta  occ. eigenvalues --  -10.18612 -10.18154 -10.12688 -10.12252 -10.11910
  Beta  occ. eigenvalues --  -10.11706 -10.10860 -10.08630 -10.07826 -10.07819
  Beta  occ. eigenvalues --  -10.07694 -10.07496  -0.95295  -0.95150  -0.85434
  Beta  occ. eigenvalues --   -0.84004  -0.82286  -0.71074  -0.68365  -0.67570
  Beta  occ. eigenvalues --   -0.67089  -0.62256  -0.58402  -0.56348  -0.54943
  Beta  occ. eigenvalues --   -0.53649  -0.50050  -0.49901  -0.45092  -0.43197
  Beta  occ. eigenvalues --   -0.41683  -0.40978  -0.39236  -0.37431  -0.36744
  Beta  occ. eigenvalues --   -0.36615  -0.36500  -0.35320  -0.35010  -0.34403
  Beta  occ. eigenvalues --   -0.33712  -0.32879  -0.32301  -0.31685  -0.30598
  Beta  occ. eigenvalues --   -0.30366  -0.30327  -0.29670  -0.28266  -0.27735
  Beta  occ. eigenvalues --   -0.27392  -0.26705  -0.25750  -0.24851  -0.23903
  Beta  occ. eigenvalues --   -0.23485  -0.17849  -0.17452  -0.16824  -0.15557
  Beta  occ. eigenvalues --   -0.14338
  Beta virt. eigenvalues --    0.05544   0.06340   0.07161   0.07385   0.07953
  Beta virt. eigenvalues --    0.08135   0.08611   0.09128   0.09476   0.09673
  Beta virt. eigenvalues --    0.10394   0.10595   0.10701   0.11199   0.11405

 Mulliken charges and spin densities:
               1          2
     1  C    0.143428  -0.683863
     2  C   -0.431540   0.217829
     3  N   -0.192479   0.000394
     4  C   -0.361019   0.169102
     5  O   -0.336946   0.007131
     6  C   -0.194500   0.179692
     7  C   -0.106962  -0.395349
     8  N    0.077217   0.008121
     9  C    0.457941  -1.016312
    10  C   -0.322742   0.038133
    11  O   -0.334362   0.008319
    12  N    0.078451   0.121477
    13  C    0.155111  -0.319008
    14  C   -0.431880   0.228831
    15  C    1.178743  -1.713879
    16  C    0.080941  -0.212166
    17  C    0.386465  -0.666217
    18  H    0.051272   0.099594
    19  H   -0.035041   0.180090
    20  H   -0.135552   0.271379
    21  H    0.497726  -0.305665
    22  H   -0.106614   0.264727
    23  H    0.223021   0.077805
    24  H    0.095248   0.135314
    25  H    0.019770   0.143500
    26  H    0.436827  -0.271075
    27  H    0.029396   0.151159
    28  H    0.194943   0.037451
    29  H    0.051954   0.178100
    30  H    0.187843   0.023186
    31  H   -0.237082   0.407029
    32  H    0.115731   0.080125
    33  H   -0.264099   0.444155
    34  H    0.047243   0.086968
    35  H   -0.483560   0.648410
    36  H   -0.047845   0.191677
    37  H   -0.216050   0.357967
    38  H   -0.547066   0.731666
    39  H   -0.252698   0.433029
    40  H   -0.471234   0.661172
 Sum of Mulliken charges =  -1.00000   1.00000

 Dipole moment (field-independent basis, Debye):
    X=              4.9786    Y=              2.4070    Z=             -1.4953  Tot=              5.7285
 Quadrupole moment (field-independent basis, Debye-Ang):
   XX=           -219.8306   YY=           -156.9979   ZZ=           -140.7248
   XY=              0.2216   XZ=              2.0093   YZ=              1.3830

 Summary of Natural Population Analysis:

                                       Natural Population
                Natural  -----------------------------------------------
    Atom  No    Charge         Core      Valence    Rydberg      Total
 -----------------------------------------------------------------------
      C    1   -0.28797      0.99966     2.28443    0.00388     3.28797
      C    2   -0.10317      0.99962     2.09296    0.01059     3.10317
      N    3   -0.32006      0.99967     2.81068    0.00972     3.82006
      C    4    0.34904      0.99964     1.62790    0.02342     2.65096
      O    5   -0.32417      0.99988     3.31854    0.00576     4.32417
      C    6   -0.04537      0.99956     2.03395    0.01186     3.04537
      C    7   -0.30072      0.99964     2.29486    0.00621     3.30072
      N    8   -0.33641      0.99974     2.82597    0.01069     3.83641
      C    9   -0.13295      0.99959     2.12212    0.01123     3.13295
      C   10    0.34303      0.99964     1.63479    0.02255     2.65697
      O   11   -0.34207      0.99988     3.33665    0.00554     4.34207
      N   12   -0.25441      0.99964     2.74327    0.01150     3.75441
      C   13   -0.08725      0.99960     2.07707    0.01057     3.08725
      C   14   -0.19470      0.99963     2.18704    0.00803     3.19470
      C   15   -0.18996      0.99963     2.18218    0.00815     3.18996
      C   16   -0.19466      0.99962     2.18626    0.00877     3.19466
      C   17   -0.08310      0.99960     2.07244    0.01106     3.08310
      H   18    0.10040      0.00000     0.39864    0.00096     0.39960
      H   19    0.10220      0.00000     0.39682    0.00098     0.39780
      H   20    0.09566      0.00000     0.40293    0.00141     0.40434
      H   21    0.11381      0.00000     0.38417    0.00203     0.38619
      H   22    0.09236      0.00000     0.40665    0.00099     0.40764
      H   23    0.18956      0.00000     0.30772    0.00272     0.31044
      H   24    0.10331      0.00000     0.39485    0.00184     0.39669
      H   25    0.10541      0.00000     0.39344    0.00115     0.39459
      H   26    0.10096      0.00000     0.39768    0.00136     0.39904
      H   27    0.10318      0.00000     0.39592    0.00091     0.39682
      H   28    0.18172      0.00000     0.31495    0.00332     0.31828
      H   29    0.10634      0.00000     0.39250    0.00115     0.39366
      H   30    0.10384      0.00000     0.39489    0.00127     0.39616
      H   31    0.09305      0.00000     0.40566    0.00128     0.40695
      H   32    0.11596      0.00000     0.38290    0.00115     0.38404
      H   33    0.10191      0.00000     0.39699    0.00110     0.39809
      H   34    0.09627      0.00000     0.40219    0.00154     0.40373
      H   35    0.10226      0.00000     0.39626    0.00148     0.39774
      H   36    0.09616      0.00000     0.40177    0.00207     0.40384
      H   37    0.09361      0.00000     0.40455    0.00184     0.40639
      H   38    0.10607      0.00000     0.39143    0.00250     0.39393
      H   39    0.10373      0.00000     0.39471    0.00156     0.39627
      H   40    0.09712      0.00000     0.40090    0.00198     0.40288
 =======================================================================
   * Total *    0.00000     16.99423    48.78963    0.21614    66.00000

 Normal termination of Gaussian 16 at Mon Dec 14 14:40:19 2020.
