 Gaussian 16, Revision A.03,

 -----------------------------------------------------------
 # opt freq B3LYP/6-31G(d) empiricaldispersion=gd3bj scf=xqc
 -----------------------------------------------------------

 -------------------------------
 CID_82065105_JID_10412_neutraal
 -------------------------------
 Symbolic Z-matrix:
 Charge =  0 Multiplicity = 1

 SCF Done:  E(RB3LYP) =  -1240.67860679     A.U. after   16 cycles
 SCF Done:  E(RB3LYP) =  -1240.68666010     A.U. after   13 cycles
 SCF Done:  E(RB3LYP) =  -1240.68672602     A.U. after   13 cycles
 SCF Done:  E(RB3LYP) =  -1240.68779070     A.U. after   13 cycles
 SCF Done:  E(RB3LYP) =  -1240.68836355     A.U. after   12 cycles
 SCF Done:  E(RB3LYP) =  -1240.68864466     A.U. after   12 cycles
 SCF Done:  E(RB3LYP) =  -1240.68891638     A.U. after   13 cycles
 SCF Done:  E(RB3LYP) =  -1240.68905326     A.U. after   12 cycles
 SCF Done:  E(RB3LYP) =  -1240.68928862     A.U. after   13 cycles
 SCF Done:  E(RB3LYP) =  -1240.68949349     A.U. after   12 cycles
 SCF Done:  E(RB3LYP) =  -1240.69030050     A.U. after    7 cycles
 SCF Done:  E(RB3LYP) =  -1240.69030093     A.U. after    8 cycles
 SCF Done:  E(RB3LYP) =  -1240.69030099     A.U. after    7 cycles
 SCF Done:  E(RB3LYP) =  -1240.69030100     A.U. after    6 cycles
 SCF Done:  E(RB3LYP) =  -1240.69030102     A.U. after    7 cycles
 Optimization completed.
    -- Stationary point found.
 Normal termination of Gaussian 16 at Sun Dec 13 13:16:21 2020.

 --------------------------------------------------------------------
 #N Geom=AllCheck Guess=TCheck SCRF=Check GenChk RB3LYP/6-31G(d) Freq
 --------------------------------------------------------------------

 Structure from the checkpoint file:  "JID_10412.chk"
 -------------------------------
 CID_82065105_JID_10412_neutraal
 -------------------------------
 Charge =  0 Multiplicity = 1

 SCF Done:  E(RB3LYP) =  -1240.69030102     A.U. after    1 cycles

  Exact polarizability: 242.547  29.447 169.821 -10.843  -2.667 166.453
 Approx polarizability: 319.198  49.905 288.977 -18.870 -21.900 274.504

                      1                      2                      3
                      A                      A                      A
 Frequencies --     18.3103                22.8187                29.3137
 Red. masses --      5.9043                 3.7360                 6.6076
 Frc consts  --      0.0012                 0.0011                 0.0033
 IR Inten    --      0.5377                 0.2351                 1.8830

                      4                      5                      6
                      A                      A                      A
 Frequencies --     32.6378                35.6974                46.3425
 Red. masses --      1.1908                 3.5232                 4.0530
 Frc consts  --      0.0007                 0.0026                 0.0051
 IR Inten    --      0.1758                 0.2201                 0.0199

                      7                      8                      9
                      A                      A                      A
 Frequencies --     61.1346                84.2079               103.0903
 Red. masses --      3.1668                 1.2428                 1.3543
 Frc consts  --      0.0070                 0.0052                 0.0085
 IR Inten    --      0.3397                 0.1897                 0.4599

                     10                     11                     12
                      A                      A                      A
 Frequencies --    118.3764               145.2293               156.8858
 Red. masses --      2.5084                 1.1205                 5.7253
 Frc consts  --      0.0207                 0.0139                 0.0830
 IR Inten    --      0.0710                 0.2090                 0.9173

                     13                     14                     15
                      A                      A                      A
 Frequencies --    184.8277               191.4734               214.5234
 Red. masses --      2.6414                 4.2293                 4.5554
 Frc consts  --      0.0532                 0.0914                 0.1235
 IR Inten    --      2.8192                 3.3768                 1.7195

                     16                     17                     18
                      A                      A                      A
 Frequencies --    232.7351               249.4095               277.8275
 Red. masses --      2.8678                 3.8271                 2.5229
 Frc consts  --      0.0915                 0.1403                 0.1147
 IR Inten    --      0.2422                 0.8676                 0.3240

                     19                     20                     21
                      A                      A                      A
 Frequencies --    299.4016               332.2291               340.3692
 Red. masses --      2.8630                 4.9794                 2.9511
 Frc consts  --      0.1512                 0.3238                 0.2014
 IR Inten    --      0.0998                 1.5730                 4.1654

                     22                     23                     24
                      A                      A                      A
 Frequencies --    358.3710               402.6465               427.5915
 Red. masses --      3.2654                 4.4149                 1.9764
 Frc consts  --      0.2471                 0.4217                 0.2129
 IR Inten    --     14.6926                 1.8732                55.4929

                     25                     26                     27
                      A                      A                      A
 Frequencies --    433.1433               498.1131               508.3582
 Red. masses --      2.0973                 4.6432                 3.5689
 Frc consts  --      0.2318                 0.6788                 0.5434
 IR Inten    --     71.2614                 7.0701                 3.2879

                     28                     29                     30
                      A                      A                      A
 Frequencies --    526.6234               537.4776               564.6616
 Red. masses --      3.2524                 3.8462                 4.7578
 Frc consts  --      0.5314                 0.6546                 0.8938
 IR Inten    --      0.1819                 4.0168                18.4985

                     31                     32                     33
                      A                      A                      A
 Frequencies --    570.8996               579.8969               583.4322
 Red. masses --      4.3557                 4.2603                 4.1041
 Frc consts  --      0.8364                 0.8441                 0.8231
 IR Inten    --     42.5408                 4.6400                 2.4354

                     34                     35                     36
                      A                      A                      A
 Frequencies --    593.1816               622.9425               634.8858
 Red. masses --      3.9711                 2.9965                 4.9428
 Frc consts  --      0.8233                 0.6851                 1.1739
 IR Inten    --     10.2438                23.5857                 3.8645

                     37                     38                     39
                      A                      A                      A
 Frequencies --    656.0955               676.7412               701.8520
 Red. masses --      3.7012                 2.2349                 4.1372
 Frc consts  --      0.9387                 0.6031                 1.2007
 IR Inten    --     17.0318                89.7405                24.4456

                     40                     41                     42
                      A                      A                      A
 Frequencies --    764.7080               796.2698               841.5890
 Red. masses --      4.2348                 4.5472                 3.6722
 Frc consts  --      1.4591                 1.6987                 1.5324
 IR Inten    --      9.5526                17.7643                 3.6499

                     43                     44                     45
                      A                      A                      A
 Frequencies --    875.4255               889.4357               896.9012
 Red. masses --      1.3364                 5.2107                 1.2985
 Frc consts  --      0.6034                 2.4287                 0.6154
 IR Inten    --     10.4032                 4.3903                 0.1425

                     46                     47                     48
                      A                      A                      A
 Frequencies --    902.9852               961.0058               984.1168
 Red. masses --      2.6315                 2.5403                 3.7115
 Frc consts  --      1.2642                 1.3822                 2.1178
 IR Inten    --      7.2416                 2.2842                 1.4343

                     49                     50                     51
                      A                      A                      A
 Frequencies --   1007.5244              1043.2009              1043.6075
 Red. masses --      2.4757                 1.7603                 1.6269
 Frc consts  --      1.4807                 1.1287                 1.0440
 IR Inten    --     19.0401                 7.9891                 8.3422

                     52                     53                     54
                      A                      A                      A
 Frequencies --   1048.1639              1067.2914              1074.0908
 Red. masses --      1.5326                 1.7062                 1.5132
 Frc consts  --      0.9920                 1.1451                 1.0285
 IR Inten    --      1.1435                 0.2632                 4.1151

                     55                     56                     57
                      A                      A                      A
 Frequencies --   1074.2106              1075.3072              1080.0511
 Red. masses --      1.5401                 1.5130                 1.5195
 Frc consts  --      1.0471                 1.0308                 1.0443
 IR Inten    --      5.5100                 5.5019                 4.2304

                     58                     59                     60
                      A                      A                      A
 Frequencies --   1171.9439              1185.5381              1196.7844
 Red. masses --      2.1134                 2.1804                 3.4348
 Frc consts  --      1.7102                 1.8056                 2.8986
 IR Inten    --    189.2207                42.8831                18.7982

                     61                     62                     63
                      A                      A                      A
 Frequencies --   1248.4987              1264.5271              1291.3700
 Red. masses --      2.1224                 1.3684                 1.4740
 Frc consts  --      1.9492                 1.2892                 1.4483
 IR Inten    --     44.8886                23.7697                11.6748

                     64                     65                     66
                      A                      A                      A
 Frequencies --   1316.1868              1330.1550              1340.6681
 Red. masses --      5.1796                 1.6697                 5.4730
 Frc consts  --      5.2866                 1.7406                 5.7959
 IR Inten    --    109.0350                 0.4927                 9.7002

                     67                     68                     69
                      A                      A                      A
 Frequencies --   1346.6509              1356.8772              1388.3856
 Red. masses --      3.8683                 4.9464                 2.3742
 Frc consts  --      4.1331                 5.3656                 2.6964
 IR Inten    --     50.2976                 0.3441                67.1938

                     70                     71                     72
                      A                      A                      A
 Frequencies --   1431.3633              1442.0240              1443.4011
 Red. masses --      1.6948                 1.2419                 1.2368
 Frc consts  --      2.0459                 1.5215                 1.5182
 IR Inten    --     34.6099                 0.7248                 1.9152

                     73                     74                     75
                      A                      A                      A
 Frequencies --   1444.1828              1447.9977              1467.0953
 Red. masses --      1.3010                 1.2871                 2.5529
 Frc consts  --      1.5988                 1.5900                 3.2375
 IR Inten    --     11.4705                 6.5034                 5.3452

                     76                     77                     78
                      A                      A                      A
 Frequencies --   1494.6753              1496.7466              1502.7676
 Red. masses --      1.1135                 1.7143                 1.0499
 Frc consts  --      1.4656                 2.2628                 1.3970
 IR Inten    --      6.8888                 1.5397                 6.0715

                     79                     80                     81
                      A                      A                      A
 Frequencies --   1507.8800              1516.3893              1518.2308
 Red. masses --      1.0574                 1.0467                 1.0508
 Frc consts  --      1.4165                 1.4181                 1.4271
 IR Inten    --     10.4780                 7.6815                 4.4152

                     82                     83                     84
                      A                      A                      A
 Frequencies --   1519.3311              1522.9971              1532.0634
 Red. masses --      1.1012                 1.0574                 1.2424
 Frc consts  --      1.4977                 1.4451                 1.7182
 IR Inten    --     11.2574                 0.4569                23.5644

                     85                     86                     87
                      A                      A                      A
 Frequencies --   1546.2242              1602.6570              1628.0934
 Red. masses --      1.6316                 6.6628                 6.0374
 Frc consts  --      2.2983                10.0829                 9.4289
 IR Inten    --     44.3433               465.6821                17.7459

                     88                     89                     90
                      A                      A                      A
 Frequencies --   1645.4269              1669.0259              1852.1183
 Red. masses --      6.4446                 5.6267                 9.6340
 Frc consts  --     10.2802                 9.2348                19.4713
 IR Inten    --     25.6471                31.5559               256.9939

                     91                     92                     93
                      A                      A                      A
 Frequencies --   3040.0791              3043.9940              3054.7727
 Red. masses --      1.0429                 1.0399                 1.0381
 Frc consts  --      5.6790                 5.6774                 5.7073
 IR Inten    --     27.9027                30.5030                18.1727

                     94                     95                     96
                      A                      A                      A
 Frequencies --   3055.2971              3086.9974              3096.6602
 Red. masses --      1.0384                 1.0587                 1.0944
 Frc consts  --      5.7114                 5.9444                 6.1832
 IR Inten    --     28.8630                15.0112                12.5865

                     97                     98                     99
                      A                      A                      A
 Frequencies --   3101.3516              3106.8935              3112.7204
 Red. masses --      1.0963                 1.1010                 1.0975
 Frc consts  --      6.2126                 6.2618                 6.2652
 IR Inten    --     21.3693                14.7770                15.4387

                    100                    101                    102
                      A                      A                      A
 Frequencies --   3127.6760              3135.8433              3137.8495
 Red. masses --      1.1028                 1.1013                 1.1062
 Frc consts  --      6.3560                 6.3804                 6.4171
 IR Inten    --     15.2532                17.2939                 5.3905

                    103                    104                    105
                      A                      A                      A
 Frequencies --   3138.3161              3154.9435              3175.4747
 Red. masses --      1.1033                 1.0990                 1.0899
 Frc consts  --      6.4025                 6.4450                 6.4754
 IR Inten    --     16.6215                17.7572                24.8344

                    106                    107                    108
                      A                      A                      A
 Frequencies --   3177.9482              3569.0150              3683.9646
 Red. masses --      1.0902                 1.0746                 1.0639
 Frc consts  --      6.4871                 8.0651                 8.5074
 IR Inten    --     16.6926                34.6000                45.6096

 - Thermochemistry -
 -------------------
 Temperature   298.150 Kelvin.  Pressure   1.00000 Atm.
 Atom     1 has atomic number  6 and mass  12.00000

 Molecular mass:   290.10890 amu.
 Principal axes and moments of inertia in atomic units:
                           1         2         3
     Eigenvalues --  3215.35887********************
           X            0.99981   0.01921  -0.00271
           Y           -0.01914   0.99948   0.02594
           Z            0.00321  -0.02588   0.99966
 This molecule is an asymmetric top.
 Rotational symmetry number  1.
 Warning -- assumption of classical behavior for rotation
           may cause significant error
 Rotational temperatures (Kelvin)      0.02694     0.00809     0.00751
 Rotational constants (GHZ):           0.56129     0.16865     0.15643
 Zero-point vibrational energy     808362.8 (Joules/Mol)
                                  193.20336 (Kcal/Mol)
 Warning -- explicit consideration of  34 degrees of freedom as
           vibrations may cause significant error
 Vibrational temperatures:     26.34    32.83    42.18    46.96    51.36
          (Kelvin)             66.68    87.96   121.16   148.32   170.32
                              208.95   225.72   265.93   275.49   308.65
                              334.85   358.84   399.73   430.77   478.00
                              489.72   515.62   579.32   615.21   623.20
                              716.67   731.41   757.69   773.31   812.42
                              821.40   834.34   839.43   853.46   896.28
                              913.46   943.98   973.68  1009.81  1100.24
                             1145.65  1210.86  1259.54  1279.70  1290.44
                             1299.19  1382.67  1415.92  1449.60  1500.93
                             1501.52  1508.07  1535.59  1545.38  1545.55
                             1547.13  1553.95  1686.17  1705.72  1721.91
                             1796.31  1819.37  1857.99  1893.70  1913.80
                             1928.92  1937.53  1952.24  1997.58  2059.41
                             2074.75  2076.73  2077.86  2083.35  2110.82
                             2150.50  2153.48  2162.15  2169.50  2181.75
                             2184.40  2185.98  2191.25  2204.30  2224.67
                             2305.87  2342.46  2367.40  2401.36  2664.79
                             4374.00  4379.63  4395.14  4395.89  4441.50
                             4455.40  4462.15  4470.13  4478.51  4500.03
                             4511.78  4514.67  4515.34  4539.26  4568.80
                             4572.36  5135.02  5300.40

 Zero-point correction=                           0.307889 (Hartree/Particle)
 Thermal correction to Energy=                    0.329219
 Thermal correction to Enthalpy=                  0.330164
 Thermal correction to Gibbs Free Energy=         0.253591
 Sum of electronic and zero-point Energies=          -1240.382412
 Sum of electronic and thermal Energies=             -1240.361082
 Sum of electronic and thermal Enthalpies=           -1240.360137
 Sum of electronic and thermal Free Energies=        -1240.436710

                     E (Thermal)             CV                S
                      KCal/Mol        Cal/Mol-Kelvin    Cal/Mol-Kelvin
 Total                  206.588             76.837            161.160
 Electronic               0.000              0.000              0.000
 Translational            0.889              2.981             42.893
 Rotational               0.889              2.981             34.339
 Vibrational            204.811             70.875             83.928
 Vibration     1          0.593              1.986              6.809
 Vibration     2          0.593              1.985              6.372
 Vibration     3          0.593              1.984              5.875
 Vibration     4          0.594              1.983              5.662
 Vibration     5          0.594              1.982              5.485
 Vibration     6          0.595              1.979              4.968
 Vibration     7          0.597              1.973              4.420
 Vibration     8          0.601              1.960              3.790
 Vibration     9          0.605              1.947              3.395
 Vibration    10          0.609              1.934              3.127
 Vibration    11          0.617              1.908              2.734
 Vibration    12          0.621              1.895              2.587
 Vibration    13          0.631              1.861              2.279
 Vibration    14          0.634              1.852              2.214
 Vibration    15          0.644              1.819              2.005
 Vibration    16          0.653              1.791              1.858
 Vibration    17          0.662              1.764              1.735
 Vibration    18          0.679              1.714              1.547
 Vibration    19          0.692              1.675              1.420
 Vibration    20          0.714              1.611              1.249
 Vibration    21          0.720              1.595              1.210
 Vibration    22          0.733              1.558              1.129
 Vibration    23          0.768              1.464              0.953
 Vibration    24          0.789              1.410              0.867
 Vibration    25          0.794              1.398              0.848
 Vibration    26          0.854              1.254              0.663
 Vibration    27          0.864              1.231              0.638
 Vibration    28          0.882              1.191              0.595
 Vibration    29          0.893              1.167              0.571
 Vibration    30          0.920              1.108              0.515
 Vibration    31          0.927              1.094              0.503
 Vibration    32          0.937              1.075              0.486
 Vibration    33          0.940              1.067              0.479
 Vibration    34          0.951              1.046              0.462

                           ! Non-Optimized Parameters !
 Normal termination of Gaussian 16 at Sun Dec 13 13:33:36 2020.

 ----------------------------------------------------------------------
 # B3LYP/6-311++G(d,p) empiricaldispersion=gd3bj scf=xqc pop=npa geom=c
 heck
 ----------------------------------------------------------------------

 ---------------------------------------
 CID_82065105_JID_10412_Energie_neutraal
 ---------------------------------------
 Structure from the checkpoint file:  "JID_10412.chk"
 Charge =  0 Multiplicity = 1

 SCF Done:  E(RB3LYP) =  -1240.95421555     A.U. after   16 cycles
 Normal termination of Gaussian 16 at Sun Dec 13 13:41:08 2020.

 ----------------------------------------------------------------------
 # B3LYP/6-311++G(d,p) empiricaldispersion=gd3bj scf=xqc pop=npa geom=c
 heck
 ----------------------------------------------------------------------

 -------------------------------------
 CID_82065105_JID_10412_Energie_kation
 -------------------------------------
 Structure from the checkpoint file:  "JID_10412.chk"
 Charge =  1 Multiplicity = 2

 SCF Done:  E(UB3LYP) =  -1240.68764405     A.U. after   24 cycles
 Normal termination of Gaussian 16 at Sun Dec 13 13:56:18 2020.
 Gaussian 16:  ES64L-G16RevA.03 25-Dec-2016

 ----------------------------------------------------------------------
 # B3LYP/6-311++G(d,p) empiricaldispersion=gd3bj scf=xqc pop=npa geom=c
 heck
 ----------------------------------------------------------------------

 ------------------------------------
 CID_82065105_JID_10412_Energie_anion
 ------------------------------------
 Structure from the checkpoint file:  "JID_10412.chk"
 Charge = -1 Multiplicity = 2

                         Standard orientation:
 ---------------------------------------------------------------------
 Center     Atomic      Atomic             Coordinates (Angstroms)
 Number     Number       Type             X           Y           Z
 ---------------------------------------------------------------------
      1          6           0        5.332336    1.898213   -0.339475
      2          6           0        4.183792    0.947683   -0.105544
      3          6           0        3.543230    0.893996    1.136623
      4          6           0        2.453809    0.051996    1.362014
      5          6           0        2.012397   -0.770228    0.310589
      6          6           0        2.641313   -0.751411   -0.944752
      7          6           0        3.719421    0.119131   -1.129549
      8          6           0        2.169532   -1.645484   -2.062521
      9          7           0        0.904306   -1.648884    0.519634
     10          6           0       -0.385474   -1.283650    0.226928
     11          7           0       -1.431488   -1.960929    0.609299
     12          6           0       -2.599004   -1.365333    0.158813
     13          6           0       -2.441230   -0.231326   -0.588229
     14         16           0       -0.726815    0.168526   -0.717771
     15          6           0       -3.479777    0.669353   -1.194401
     16          6           0       -3.783798    1.826126   -0.258171
     17          8           0       -3.236167    2.904619   -0.269540
     18          8           0       -4.730634    1.489586    0.653695
     19          6           0       -3.901080   -2.005109    0.534687
     20          6           0        1.754084    0.022778    2.697347
     21          1           0        4.967669    2.894353   -0.622401
     22          1           0        5.941760    2.019904    0.562207
     23          1           0        5.983578    1.547523   -1.146440
     24          1           0        3.892631    1.531676    1.945582
     25          1           0        4.214732    0.140958   -2.097565
     26          1           0        1.987284   -2.662852   -1.703198
     27          1           0        1.224622   -1.285633   -2.487007
     28          1           0        2.907960   -1.681821   -2.868639
     29          1           0        0.956089   -2.304720    1.290933
     30          1           0       -3.132018    1.093050   -2.140507
     31          1           0       -4.395206    0.102927   -1.384171
     32          1           0       -4.818730    2.258778    1.247537
     33          1           0       -3.938295   -3.040064    0.175729
     34          1           0       -4.003268   -2.036879    1.625567
     35          1           0       -4.757949   -1.459023    0.134760
     36          1           0        2.154654    0.791736    3.363561
     37          1           0        0.677531    0.193717    2.584732
     38          1           0        1.873362   -0.945411    3.201738
 ---------------------------------------------------------------------

 SCF Done:  E(UB3LYP) =  -1240.94376939     A.U. after   33 cycles
 SCF Done:  E(UB3LYP) =  -1240.94376939     a.u. after    1 cycles

 The electronic state is 2-A.
 Alpha  occ. eigenvalues --  -88.78272 -19.08172 -19.02767 -14.25555 -14.20776
 Alpha  occ. eigenvalues --  -10.21886 -10.17789 -10.12492 -10.11631 -10.10994
 Alpha  occ. eigenvalues --  -10.10933 -10.10360 -10.10348 -10.10148 -10.08602
 Alpha  occ. eigenvalues --  -10.08570 -10.08565 -10.08536 -10.08198 -10.07877
 Alpha  occ. eigenvalues --   -7.86895  -5.83196  -5.82849  -5.82430  -1.02179
 Alpha  occ. eigenvalues --   -0.93355  -0.89791  -0.84006  -0.77530  -0.72890
 Alpha  occ. eigenvalues --   -0.70464  -0.69877  -0.68025  -0.65477  -0.62185
 Alpha  occ. eigenvalues --   -0.60545  -0.60048  -0.57498  -0.53098  -0.50736
 Alpha  occ. eigenvalues --   -0.50341  -0.48623  -0.46997  -0.43171  -0.41787
 Alpha  occ. eigenvalues --   -0.41027  -0.40547  -0.39707  -0.36782  -0.36564
 Alpha  occ. eigenvalues --   -0.34929  -0.34717  -0.34467  -0.33617  -0.33327
 Alpha  occ. eigenvalues --   -0.33154  -0.32632  -0.32247  -0.32093  -0.31941
 Alpha  occ. eigenvalues --   -0.31654  -0.30909  -0.30398  -0.29268  -0.28854
 Alpha  occ. eigenvalues --   -0.26521  -0.26279  -0.26197  -0.25407  -0.23966
 Alpha  occ. eigenvalues --   -0.22073  -0.19734  -0.18747  -0.18116  -0.16192
 Alpha  occ. eigenvalues --   -0.15842  -0.11589   0.03758
 Alpha virt. eigenvalues --    0.05110   0.05949   0.06196   0.06427   0.06717
 Alpha virt. eigenvalues --    0.07028   0.07434   0.07969   0.08339   0.08518
 Alpha virt. eigenvalues --    0.09049   0.09316   0.09532   0.10109   0.10384

  Beta  occ. eigenvalues --  -88.78265 -19.08127 -19.02748 -14.25546 -14.20775
  Beta  occ. eigenvalues --  -10.21871 -10.17769 -10.12490 -10.11626 -10.10968
  Beta  occ. eigenvalues --  -10.10927 -10.10351 -10.10349 -10.10145 -10.08575
  Beta  occ. eigenvalues --  -10.08555 -10.08546 -10.08523 -10.08183 -10.07858
  Beta  occ. eigenvalues --   -7.86887  -5.83185  -5.82843  -5.82423  -1.02113
  Beta  occ. eigenvalues --   -0.93299  -0.89769  -0.83994  -0.77514  -0.72860
  Beta  occ. eigenvalues --   -0.70444  -0.69855  -0.67989  -0.65434  -0.62150
  Beta  occ. eigenvalues --   -0.60513  -0.60017  -0.57454  -0.53018  -0.50699
  Beta  occ. eigenvalues --   -0.50308  -0.48593  -0.46962  -0.43141  -0.41749
  Beta  occ. eigenvalues --   -0.40996  -0.40509  -0.39672  -0.36726  -0.36531
  Beta  occ. eigenvalues --   -0.34898  -0.34677  -0.34434  -0.33583  -0.33294
  Beta  occ. eigenvalues --   -0.33133  -0.32610  -0.32213  -0.32067  -0.31908
  Beta  occ. eigenvalues --   -0.31616  -0.30869  -0.30364  -0.29240  -0.28832
  Beta  occ. eigenvalues --   -0.26500  -0.26256  -0.26168  -0.25376  -0.23899
  Beta  occ. eigenvalues --   -0.22047  -0.19697  -0.18735  -0.18094  -0.16160
  Beta  occ. eigenvalues --   -0.15817  -0.11553
  Beta virt. eigenvalues --    0.05531   0.05925   0.06255   0.06644   0.06771
  Beta virt. eigenvalues --    0.06879   0.07243   0.07777   0.08338   0.08616
  Beta virt. eigenvalues --    0.08810   0.09257   0.09459   0.09634   0.10243

 Mulliken charges and spin densities:
               1          2
     1  C    1.530283  -2.091952
     2  C    0.055188   0.364084
     3  C   -0.236687  -0.404492
     4  C   -0.098951   0.754075
     5  C   -0.949790   0.398624
     6  C    0.039223   0.238779
     7  C   -0.447119   0.089236
     8  C    0.133222  -0.604062
     9  N   -0.050163   0.096801
    10  C   -1.475949   0.694571
    11  N    0.085079   0.055041
    12  C   -1.250132   0.090883
    13  C    0.021118   1.711570
    14  S    0.666403  -0.794113
    15  C    1.520033  -1.760663
    16  C   -0.187175   0.138818
    17  O   -0.287923   0.034683
    18  O   -0.173210   0.033935
    19  C    0.756207  -1.423354
    20  C    0.428040  -0.916765
    21  H    0.023742   0.151125
    22  H   -0.154974   0.297860
    23  H   -0.181492   0.320896
    24  H   -0.195295   0.345674
    25  H   -0.147268   0.315656
    26  H    0.038412   0.137813
    27  H   -0.010057   0.160877
    28  H   -0.099383   0.246145
    29  H    0.117764   0.181143
    30  H   -0.105482   0.311523
    31  H    0.010804   0.187431
    32  H   -0.248090   0.542265
    33  H    0.025920   0.127364
    34  H    0.015106   0.156399
    35  H   -0.020764   0.140455
    36  H   -0.119736   0.281357
    37  H    0.038301   0.161231
    38  H   -0.065203   0.229088
 Sum of Mulliken charges =  -1.00000   1.00000

 Dipole moment (field-independent basis, Debye):
    X=              1.0223    Y=             -3.0227    Z=             -1.0841  Tot=              3.3701
 Quadrupole moment (field-independent basis, Debye-Ang):
   XX=           -228.5692   YY=           -173.4816   ZZ=           -164.2524
   XY=              2.3834   XZ=              5.2887   YZ=              0.1180

 Summary of Natural Population Analysis:

                                       Natural Population
                Natural  -----------------------------------------------
    Atom  No    Charge         Core      Valence    Rydberg      Total
 -----------------------------------------------------------------------
      C    1   -0.29173      0.99964     2.28689    0.00520     3.29173
      C    2   -0.00477      0.99952     1.99674    0.00850     3.00477
      C    3   -0.10260      0.99947     2.09386    0.00927     3.10260
      C    4   -0.00604      0.99947     1.99665    0.00992     3.00604
      C    5    0.05813      0.99936     1.93069    0.01182     2.94187
      C    6   -0.00401      0.99947     1.99597    0.00857     3.00401
      C    7   -0.10292      0.99947     2.09440    0.00905     3.10292
      C    8   -0.29582      0.99963     2.29126    0.00493     3.29582
      N    9   -0.32102      0.99963     2.80812    0.01327     3.82102
      C   10    0.15013      0.99959     1.83154    0.01874     2.84987
      N   11   -0.28051      0.99962     2.76911    0.01178     3.78051
      C   12    0.07526      0.99941     1.91229    0.01305     2.92474
      C   13   -0.12335      0.99940     2.11232    0.01163     3.12335
      S   14    0.17999      4.99940     2.80287    0.01774     7.82001
      C   15   -0.24821      0.99953     2.23841    0.01028     3.24821
      C   16    0.40993      0.99972     1.56369    0.02665     2.59007
      O   17   -0.30243      0.99987     3.29613    0.00644     4.30243
      O   18   -0.34509      0.99988     3.33833    0.00688     4.34509
      C   19   -0.29242      0.99962     2.28761    0.00520     3.29242
      C   20   -0.29452      0.99963     2.28987    0.00502     3.29452
      H   21    0.10594      0.00000     0.39270    0.00136     0.39406
      H   22    0.10346      0.00000     0.39527    0.00127     0.39654
      H   23    0.10267      0.00000     0.39612    0.00121     0.39733
      H   24    0.09902      0.00000     0.39967    0.00132     0.40098
      H   25    0.09835      0.00000     0.40034    0.00131     0.40165
      H   26    0.10865      0.00000     0.39011    0.00124     0.39135
      H   27    0.11026      0.00000     0.38823    0.00150     0.38974
      H   28    0.10109      0.00000     0.39797    0.00094     0.39891
      H   29    0.19896      0.00000     0.29799    0.00305     0.30104
      H   30    0.11655      0.00000     0.38209    0.00137     0.38345
      H   31    0.11840      0.00000     0.37989    0.00171     0.38160
      H   32    0.24295      0.00000     0.24795    0.00910     0.25705
      H   33    0.10360      0.00000     0.39492    0.00148     0.39640
      H   34    0.10831      0.00000     0.39013    0.00157     0.39169
      H   35    0.10460      0.00000     0.39419    0.00121     0.39540
      H   36    0.10445      0.00000     0.39464    0.00091     0.39555
      H   37    0.11103      0.00000     0.38778    0.00120     0.38897
      H   38    0.10373      0.00000     0.39484    0.00143     0.39627
 =======================================================================
   * Total *   -0.00000     23.99134    52.76156    0.24710    77.00000

 Normal termination of Gaussian 16 at Sun Dec 13 14:17:41 2020.
