 Gaussian 16, Revision A.03,

 -----------------------------------------------------------
 # opt freq B3LYP/6-31G(d) empiricaldispersion=gd3bj scf=xqc
 -----------------------------------------------------------

 ------------------------------
 CID_64450863_JID_3585_neutraal
 ------------------------------
 Symbolic Z-matrix:
 Charge =  0 Multiplicity = 1

 SCF Done:  E(RB3LYP) =  -556.793855143     A.U. after   14 cycles
 SCF Done:  E(RB3LYP) =  -556.797536156     A.U. after   12 cycles
 SCF Done:  E(RB3LYP) =  -556.798341582     A.U. after   12 cycles
 SCF Done:  E(RB3LYP) =  -556.799069024     A.U. after   11 cycles
 SCF Done:  E(RB3LYP) =  -556.800341637     A.U. after   12 cycles
 SCF Done:  E(RB3LYP) =  -556.800557057     A.U. after   11 cycles
 SCF Done:  E(RB3LYP) =  -556.800584395     A.U. after   11 cycles
 SCF Done:  E(RB3LYP) =  -556.800643505     A.U. after   10 cycles
 SCF Done:  E(RB3LYP) =  -556.800649270     A.U. after   10 cycles
 SCF Done:  E(RB3LYP) =  -556.800652571     A.U. after    8 cycles
 SCF Done:  E(RB3LYP) =  -556.800653214     A.U. after    7 cycles
 SCF Done:  E(RB3LYP) =  -556.800653754     A.U. after    7 cycles
 SCF Done:  E(RB3LYP) =  -556.800654154     A.U. after    8 cycles
 SCF Done:  E(RB3LYP) =  -556.800654405     A.U. after    7 cycles
 Optimization completed.
    -- Stationary point found.
 Normal termination of Gaussian 16 at Mon Dec 14 16:33:10 2020.

 --------------------------------------------------------------------
 #N Geom=AllCheck Guess=TCheck SCRF=Check GenChk RB3LYP/6-31G(d) Freq
 --------------------------------------------------------------------

 Structure from the checkpoint file:  "JID_3585.chk"
 ------------------------------
 CID_64450863_JID_3585_neutraal
 ------------------------------
 Charge =  0 Multiplicity = 1

 SCF Done:  E(RB3LYP) =  -556.800654405     A.U. after    1 cycles

  Exact polarizability: 131.244  -0.777 124.802 -11.609  -6.720 103.706
 Approx polarizability: 173.697  -5.198 190.496 -24.512 -11.902 160.005

                      1                      2                      3
                      A                      A                      A
 Frequencies --     49.3662                61.8186                80.1548
 Red. masses --      3.3535                 3.1447                 3.4074
 Frc consts  --      0.0048                 0.0071                 0.0129
 IR Inten    --      0.5535                 0.3638                 0.6891

                      4                      5                      6
                      A                      A                      A
 Frequencies --     98.9801               163.8883               168.3194
 Red. masses --      3.4108                 2.3812                 3.9269
 Frc consts  --      0.0197                 0.0377                 0.0655
 IR Inten    --      2.3174                 0.5850                 0.3955

                      7                      8                      9
                      A                      A                      A
 Frequencies --    204.2706               243.6985               260.0719
 Red. masses --      2.7240                 1.2249                 1.4923
 Frc consts  --      0.0670                 0.0429                 0.0595
 IR Inten    --      7.0994                 3.3550                12.9791

                     10                     11                     12
                      A                      A                      A
 Frequencies --    272.0514               293.1159               296.9223
 Red. masses --      1.7675                 1.2373                 1.1621
 Frc consts  --      0.0771                 0.0626                 0.0604
 IR Inten    --     16.0192                 1.5939                 5.9244

                     13                     14                     15
                      A                      A                      A
 Frequencies --    323.6882               351.0293               377.7054
 Red. masses --      1.6387                 2.0516                 2.4405
 Frc consts  --      0.1012                 0.1489                 0.2051
 IR Inten    --      6.3243                 0.4049                 0.9618

                     16                     17                     18
                      A                      A                      A
 Frequencies --    415.7486               416.6175               432.1392
 Red. masses --      2.3875                 2.2867                 2.2448
 Frc consts  --      0.2431                 0.2339                 0.2470
 IR Inten    --      1.7770                 1.0651                 5.4465

                     19                     20                     21
                      A                      A                      A
 Frequencies --    439.7710               554.0354               630.2558
 Red. masses --      2.8231                 2.6603                 4.0910
 Frc consts  --      0.3217                 0.4811                 0.9575
 IR Inten    --      2.3273                 6.3948                 4.4563

                     22                     23                     24
                      A                      A                      A
 Frequencies --    669.4244               692.2782               723.0126
 Red. masses --      5.4013                 3.9062                 2.6860
 Frc consts  --      1.4261                 1.1030                 0.8273
 IR Inten    --      3.9831                 1.7495                 0.7515

                     25                     26                     27
                      A                      A                      A
 Frequencies --    734.7271               791.6468               867.6701
 Red. masses --      3.2439                 1.2877                 1.4237
 Frc consts  --      1.0318                 0.4755                 0.6315
 IR Inten    --      5.0671                44.3344                10.8458

                     28                     29                     30
                      A                      A                      A
 Frequencies --    873.1017               878.0678               915.1408
 Red. masses --      1.7170                 1.3569                 2.3251
 Frc consts  --      0.7712                 0.6164                 1.1473
 IR Inten    --      3.9719                68.5246                 6.9804

                     31                     32                     33
                      A                      A                      A
 Frequencies --    949.2354               951.4711               955.5234
 Red. masses --      1.8337                 3.0561                 1.9199
 Frc consts  --      0.9735                 1.6301                 1.0328
 IR Inten    --      1.2895                19.5719                10.0148

                     34                     35                     36
                      A                      A                      A
 Frequencies --    978.0232               994.9632              1004.6772
 Red. masses --      1.2055                 1.6267                 1.8403
 Frc consts  --      0.6794                 0.9488                 1.0944
 IR Inten    --      0.2663                 7.0898                39.5030

                     37                     38                     39
                      A                      A                      A
 Frequencies --   1034.1951              1048.4920              1072.4666
 Red. masses --      2.1074                 2.3184                 1.4699
 Frc consts  --      1.3280                 1.5017                 0.9961
 IR Inten    --      2.7183                 4.3036                 0.1605

                     40                     41                     42
                      A                      A                      A
 Frequencies --   1077.0184              1088.3848              1142.6255
 Red. masses --      1.5186                 1.7287                 1.7460
 Frc consts  --      1.0379                 1.2065                 1.3431
 IR Inten    --      1.7223                 5.1784                 4.4921

                     43                     44                     45
                      A                      A                      A
 Frequencies --   1185.9987              1230.6836              1238.4890
 Red. masses --      1.2511                 1.8698                 2.6929
 Frc consts  --      1.0368                 1.6685                 2.4336
 IR Inten    --      3.3160                 3.5149                10.5135

                     46                     47                     48
                      A                      A                      A
 Frequencies --   1245.9701              1269.1195              1293.7170
 Red. masses --      1.6093                 2.4327                 2.7366
 Frc consts  --      1.4720                 2.3086                 2.6986
 IR Inten    --      1.0738                14.5045                 4.0791

                     49                     50                     51
                      A                      A                      A
 Frequencies --   1316.5107              1340.0987              1354.6313
 Red. masses --      1.3070                 1.7304                 1.8174
 Frc consts  --      1.3347                 1.8310                 1.9649
 IR Inten    --      5.5680                10.8718                 7.2227

                     52                     53                     54
                      A                      A                      A
 Frequencies --   1383.2688              1417.1534              1424.6229
 Red. masses --      2.8432                 1.3573                 1.4368
 Frc consts  --      3.2053                 1.6061                 1.7181
 IR Inten    --      1.6949                15.2873                15.4743

                     55                     56                     57
                      A                      A                      A
 Frequencies --   1426.8510              1429.6312              1438.0677
 Red. masses --      1.2327                 1.2502                 1.6117
 Frc consts  --      1.4787                 1.5054                 1.9638
 IR Inten    --      4.3585                 5.4555                37.9874

                     58                     59                     60
                      A                      A                      A
 Frequencies --   1454.7482              1462.3051              1504.2609
 Red. masses --      2.3876                 1.2742                 1.2013
 Frc consts  --      2.9771                 1.6054                 1.6016
 IR Inten    --      8.1853                11.8756                 9.4559

                     61                     62                     63
                      A                      A                      A
 Frequencies --   1509.7476              1513.3550              1522.2620
 Red. masses --      1.0993                 1.0907                 1.0712
 Frc consts  --      1.4763                 1.4718                 1.4625
 IR Inten    --      1.5129                 1.1618                 0.3116

                     64                     65                     66
                      A                      A                      A
 Frequencies --   1523.3303              1526.2850              1539.2595
 Red. masses --      2.2045                 1.1374                 1.0770
 Frc consts  --      3.0140                 1.5611                 1.5034
 IR Inten    --      9.9255                 8.5337                 2.6113

                     67                     68                     69
                      A                      A                      A
 Frequencies --   1541.6358              1547.8881              1559.0201
 Red. masses --      1.0810                 1.0693                 1.0571
 Frc consts  --      1.5137                 1.5095                 1.5138
 IR Inten    --      3.0303                 1.9459                 7.6407

                     70                     71                     72
                      A                      A                      A
 Frequencies --   1594.7048              1686.3440              2991.2374
 Red. masses --      5.4796                 1.0916                 1.0714
 Frc consts  --      8.2103                 1.8290                 5.6484
 IR Inten    --      6.4990                34.1378                76.6068

                     73                     74                     75
                      A                      A                      A
 Frequencies --   3024.3127              3032.6692              3037.4286
 Red. masses --      1.0657                 1.0361                 1.0383
 Frc consts  --      5.7432                 5.6146                 5.6440
 IR Inten    --     22.5724                24.7699                52.7506

                     76                     77                     78
                      A                      A                      A
 Frequencies --   3049.4753              3063.2341              3067.8562
 Red. masses --      1.0418                 1.0780                 1.0820
 Frc consts  --      5.7081                 5.9600                 6.0000
 IR Inten    --     32.9716                 5.1398                63.8008

                     79                     80                     81
                      A                      A                      A
 Frequencies --   3094.2769              3097.2715              3101.7636
 Red. masses --      1.1009                 1.0971                 1.1010
 Frc consts  --      6.2103                 6.2011                 6.2409
 IR Inten    --     12.6743                 9.8837                16.6657

                     82                     83                     84
                      A                      A                      A
 Frequencies --   3103.9950              3110.2535              3129.4021
 Red. masses --      1.1008                 1.0997                 1.1005
 Frc consts  --      6.2486                 6.2679                 6.3496
 IR Inten    --     35.6195                66.6746                13.2918

                     85                     86                     87
                      A                      A                      A
 Frequencies --   3150.3237              3158.2515              3253.7025
 Red. masses --      1.0949                 1.0973                 1.0916
 Frc consts  --      6.4021                 6.4485                 6.8089
 IR Inten    --      7.9325                10.0756                 7.2707

                     88                     89                     90
                      A                      A                      A
 Frequencies --   3271.2985              3461.8596              3552.7293
 Red. masses --      1.1021                 1.0496                 1.0930
 Frc consts  --      6.9488                 7.4109                 8.1286
 IR Inten    --      7.0605                 2.4577                 0.7247

 - Thermochemistry -
 -------------------
 Temperature   298.150 Kelvin.  Pressure   1.00000 Atm.
 Atom     1 has atomic number  6 and mass  12.00000

 Molecular mass:   181.15790 amu.
 Principal axes and moments of inertia in atomic units:
                           1         2         3
     Eigenvalues --  1573.714192926.935863591.43024
           X            0.99973  -0.02308  -0.00089
           Y            0.02308   0.99971  -0.00690
           Z            0.00105   0.00688   0.99998
 This molecule is an asymmetric top.
 Rotational symmetry number  1.
 Warning -- assumption of classical behavior for rotation
           may cause significant error
 Rotational temperatures (Kelvin)      0.05504     0.02959     0.02412
 Rotational constants (GHZ):           1.14680     0.61660     0.50251
 Zero-point vibrational energy     758474.9 (Joules/Mol)
                                  181.27984 (Kcal/Mol)
 Warning -- explicit consideration of  20 degrees of freedom as
           vibrations may cause significant error
 Vibrational temperatures:     71.03    88.94   115.32   142.41   235.80
          (Kelvin)            242.17   293.90   350.63   374.19   391.42
                              421.73   427.20   465.72   505.05   543.43
                              598.17   599.42   621.75   632.73   797.13
                              906.80   963.15   996.03  1040.25  1057.11
                             1139.00  1248.38  1256.20  1263.34  1316.68
                             1365.74  1368.95  1374.79  1407.16  1431.53
                             1445.51  1487.98  1508.55  1543.04  1549.59
                             1565.94  1643.98  1706.39  1770.68  1781.91
                             1792.67  1825.98  1861.37  1894.17  1928.10
                             1949.01  1990.22  2038.97  2049.71  2052.92
                             2056.92  2069.06  2093.06  2103.93  2164.30
                             2172.19  2177.38  2190.20  2191.73  2195.98
                             2214.65  2218.07  2227.07  2243.08  2294.42
                             2426.27  4303.72  4351.31  4363.33  4370.18
                             4387.51  4407.31  4413.96  4451.97  4456.28
                             4462.75  4465.96  4474.96  4502.51  4532.61
                             4544.02  4681.35  4706.67  4980.84  5111.59

 Zero-point correction=                           0.288888 (Hartree/Particle)
 Thermal correction to Energy=                    0.302877
 Thermal correction to Enthalpy=                  0.303822
 Thermal correction to Gibbs Free Energy=         0.248825
 Sum of electronic and zero-point Energies=           -556.511767
 Sum of electronic and thermal Energies=              -556.497777
 Sum of electronic and thermal Enthalpies=            -556.496833
 Sum of electronic and thermal Free Energies=         -556.551830

                     E (Thermal)             CV                S
                      KCal/Mol        Cal/Mol-Kelvin    Cal/Mol-Kelvin
 Total                  190.058             53.819            115.751
 Electronic               0.000              0.000              0.000
 Translational            0.889              2.981             41.489
 Rotational               0.889              2.981             31.182
 Vibrational            188.281             47.857             43.080
 Vibration     1          0.595              1.978              4.843
 Vibration     2          0.597              1.973              4.398
 Vibration     3          0.600              1.963              3.887
 Vibration     4          0.604              1.950              3.474
 Vibration     5          0.623              1.887              2.504
 Vibration     6          0.625              1.881              2.454
 Vibration     7          0.640              1.834              2.094
 Vibration     8          0.659              1.773              1.776
 Vibration     9          0.668              1.746              1.661
 Vibration    10          0.675              1.725              1.583
 Vibration    11          0.688              1.687              1.456
 Vibration    12          0.691              1.679              1.434
 Vibration    13          0.708              1.628              1.291
 Vibration    14          0.728              1.573              1.162
 Vibration    15          0.748              1.518              1.048
 Vibration    16          0.779              1.436              0.907
 Vibration    17          0.780              1.434              0.904
 Vibration    18          0.793              1.400              0.852
 Vibration    19          0.800              1.383              0.827
 Vibration    20          0.909              1.131              0.536

 Optimization completed.
    -- Stationary point found.
 Normal termination of Gaussian 16 at Mon Dec 14 16:42:43 2020.

 ----------------------------------------------------------------------
 # B3LYP/6-311++G(d,p) empiricaldispersion=gd3bj scf=xqc pop=npa geom=c
 heck
 ----------------------------------------------------------------------

 --------------------------------------
 CID_64450863_JID_3585_Energie_neutraal
 --------------------------------------
 Structure from the checkpoint file:  "JID_3585.chk"
 Charge =  0 Multiplicity = 1

 SCF Done:  E(RB3LYP) =  -556.959354022     A.U. after   14 cycles
 Normal termination of Gaussian 16 at Mon Dec 14 16:47:00 2020.

 ----------------------------------------------------------------------
 # B3LYP/6-311++G(d,p) empiricaldispersion=gd3bj scf=xqc pop=npa geom=c
 heck
 ----------------------------------------------------------------------

 ------------------------------------
 CID_64450863_JID_3585_Energie_kation
 ------------------------------------
 Structure from the checkpoint file:  "JID_3585.chk"
 Charge =  1 Multiplicity = 2

 SCF Done:  E(UB3LYP) =  -556.644515911     A.U. after   33 cycles
 SCF Done:  E(UB3LYP) =  -556.644515911     a.u. after    1 cycles
 Normal termination of Gaussian 16 at Mon Dec 14 17:01:13 2020.
 Gaussian 16:  ES64L-G16RevA.03 25-Dec-2016

 ----------------------------------------------------------------------
 # B3LYP/6-311++G(d,p) empiricaldispersion=gd3bj scf=xqc pop=npa geom=c
 heck
 ----------------------------------------------------------------------

 -----------------------------------
 CID_64450863_JID_3585_Energie_anion
 -----------------------------------
 Structure from the checkpoint file:  "JID_3585.chk"
 Charge = -1 Multiplicity = 2

                         Standard orientation:
 ---------------------------------------------------------------------
 Center     Atomic      Atomic             Coordinates (Angstroms)
 Number     Number       Type             X           Y           Z
 ---------------------------------------------------------------------
      1          6           0        1.299082   -0.027749    1.515954
      2          6           0        2.084077    0.025640    0.190929
      3          6           0        3.320708    0.919880    0.398301
      4          6           0        2.542204   -1.390085   -0.196925
      5          6           0        1.242010    0.674445   -0.936098
      6          6           0        0.116624   -0.153886   -1.570345
      7          7           0       -0.936965   -0.592320   -0.661960
      8          6           0       -1.947803    0.138152   -0.105254
      9          6           0       -2.646576   -0.734762    0.716289
     10          6           0       -1.982668   -1.970064    0.586032
     11          7           0       -0.949147   -1.882723   -0.252783
     12          6           0       -2.184387    1.593231   -0.362060
     13          7           0       -1.287946    2.438070    0.447299
     14          1           0        1.953986   -0.368620    2.327563
     15          1           0        0.453003   -0.716024    1.462656
     16          1           0        0.919429    0.965525    1.779931
     17          1           0        3.942923    0.539644    1.217189
     18          1           0        3.940888    0.957305   -0.505893
     19          1           0        3.027406    1.947010    0.648174
     20          1           0        1.693111   -2.076051   -0.273480
     21          1           0        3.073990   -1.385387   -1.157575
     22          1           0        3.228845   -1.789648    0.559200
     23          1           0        0.817324    1.612698   -0.563841
     24          1           0        1.915685    0.930025   -1.767051
     25          1           0       -0.349704    0.435869   -2.368105
     26          1           0        0.500461   -1.069925   -2.021657
     27          1           0       -3.523171   -0.502736    1.304831
     28          1           0       -2.213999   -2.918978    1.051550
     29          1           0       -1.996020    1.828058   -1.416935
     30          1           0       -3.254643    1.785359   -0.183228
     31          1           0       -1.542398    3.417731    0.325725
     32          1           0       -1.428345    2.218131    1.432120
 ---------------------------------------------------------------------

 SCF Done:  E(UB3LYP) =  -556.946512586     A.U. after   32 cycles

 The electronic state is 2-A.
 Alpha  occ. eigenvalues --  -14.28282 -14.22422 -14.18461 -10.10999 -10.10505
 Alpha  occ. eigenvalues --  -10.09718 -10.08724 -10.08207 -10.06071 -10.06039
 Alpha  occ. eigenvalues --  -10.05924 -10.05547 -10.04662  -0.94613  -0.77921
 Alpha  occ. eigenvalues --   -0.74726  -0.71639  -0.68625  -0.62823  -0.58696
 Alpha  occ. eigenvalues --   -0.58036  -0.57017  -0.54396  -0.50010  -0.45637
 Alpha  occ. eigenvalues --   -0.42466  -0.41430  -0.37622  -0.36863  -0.36315
 Alpha  occ. eigenvalues --   -0.34920  -0.34506  -0.33501  -0.32587  -0.31268
 Alpha  occ. eigenvalues --   -0.30718  -0.30426  -0.29526  -0.28156  -0.26758
 Alpha  occ. eigenvalues --   -0.26481  -0.26186  -0.25356  -0.22134  -0.21959
 Alpha  occ. eigenvalues --   -0.21665  -0.19211  -0.15095  -0.14559  -0.13683
 Alpha  occ. eigenvalues --    0.04603
 Alpha virt. eigenvalues --    0.06709   0.07536   0.07830   0.09121   0.09294
 Alpha virt. eigenvalues --    0.09353   0.09799   0.10854   0.11057   0.11524
 Alpha virt. eigenvalues --    0.12184   0.12304   0.12682   0.13453   0.14083

  Beta  occ. eigenvalues --  -14.28266 -14.22413 -14.18396 -10.10985 -10.10509
  Beta  occ. eigenvalues --  -10.09674 -10.08725 -10.08206 -10.06057 -10.06017
  Beta  occ. eigenvalues --  -10.05911 -10.05536 -10.04650  -0.94590  -0.77822
  Beta  occ. eigenvalues --   -0.74703  -0.71623  -0.68588  -0.62797  -0.58672
  Beta  occ. eigenvalues --   -0.58011  -0.56892  -0.54361  -0.49988  -0.45607
  Beta  occ. eigenvalues --   -0.42428  -0.41376  -0.37575  -0.36832  -0.36246
  Beta  occ. eigenvalues --   -0.34898  -0.34437  -0.33477  -0.32548  -0.31216
  Beta  occ. eigenvalues --   -0.30684  -0.30375  -0.29498  -0.28140  -0.26733
  Beta  occ. eigenvalues --   -0.26438  -0.26164  -0.25340  -0.22118  -0.21939
  Beta  occ. eigenvalues --   -0.21648  -0.19194  -0.15046  -0.14514  -0.13619
  Beta virt. eigenvalues --    0.06691   0.07688   0.08037   0.08337   0.09289
  Beta virt. eigenvalues --    0.09595   0.10008   0.10167   0.11027   0.11307
  Beta virt. eigenvalues --    0.11944   0.12549   0.12646   0.13006   0.13797

 Mulliken charges and spin densities:
               1          2
     1  C   -0.130090  -0.586096
     2  C   -0.159596   1.040555
     3  C   -0.185771  -0.290476
     4  C   -0.303327  -0.410694
     5  C   -0.319622  -0.128712
     6  C    0.219602  -0.749696
     7  N    0.357309   0.130273
     8  C   -1.555137   1.531136
     9  C   -0.127150   0.259166
    10  C    0.068557  -0.272169
    11  N   -0.277391  -0.016740
    12  C    3.292150  -4.203600
    13  N   -0.429064   0.081233
    14  H    0.143146  -0.009435
    15  H    0.064417   0.057313
    16  H    0.000293   0.145182
    17  H    0.014620   0.110984
    18  H    0.008806   0.114883
    19  H   -0.082685   0.223749
    20  H    0.167381  -0.005942
    21  H   -0.045236   0.176636
    22  H    0.078030   0.052075
    23  H    0.554169  -0.252934
    24  H   -0.197397   0.348427
    25  H   -0.189717   0.384377
    26  H    0.216631  -0.040538
    27  H   -0.632274   0.813448
    28  H    0.008588   0.128509
    29  H   -0.518518   0.679412
    30  H   -0.630097   0.803783
    31  H   -0.385939   0.643646
    32  H   -0.024689   0.242244
 Sum of Mulliken charges =  -1.00000   1.00000

 Dipole moment (field-independent basis, Debye):
    X=              4.9282    Y=             -6.5163    Z=             -0.0041  Tot=              8.1701
 Quadrupole moment (field-independent basis, Debye-Ang):
   XX=           -142.7441   YY=           -137.3807   ZZ=           -113.2526
   XY=             14.3100   XZ=              2.2033   YZ=             -1.0364

 Summary of Natural Population Analysis:

                                       Natural Population
                Natural  -----------------------------------------------
    Atom  No    Charge         Core      Valence    Rydberg      Total
 -----------------------------------------------------------------------
      C    1   -0.28775      0.99962     2.28087    0.00726     3.28775
      C    2   -0.04891      0.99959     2.03922    0.01010     3.04891
      C    3   -0.28027      0.99963     2.27490    0.00574     3.28027
      C    4   -0.29097      0.99963     2.28558    0.00577     3.29097
      C    5   -0.19964      0.99957     2.18958    0.01048     3.19964
      C    6   -0.08156      0.99960     2.07055    0.01141     3.08156
      N    7   -0.10858      0.99961     2.59480    0.01417     3.60858
      C    8    0.08549      0.99952     1.90076    0.01423     2.91451
      C    9   -0.15903      0.99950     2.15047    0.00906     3.15903
      C   10   -0.01943      0.99963     2.00549    0.01431     3.01943
      N   11   -0.16135      0.99974     2.65043    0.01119     3.66135
      C   12   -0.10638      0.99960     2.09379    0.01299     3.10638
      N   13   -0.42083      0.99977     2.90969    0.01137     3.92083
      H   14    0.09251      0.00000     0.40674    0.00075     0.40749
      H   15    0.10654      0.00000     0.39196    0.00150     0.39346
      H   16    0.10429      0.00000     0.39450    0.00120     0.39571
      H   17    0.09532      0.00000     0.40384    0.00084     0.40468
      H   18    0.09630      0.00000     0.40279    0.00091     0.40370
      H   19    0.10173      0.00000     0.39729    0.00097     0.39827
      H   20    0.11056      0.00000     0.38826    0.00117     0.38944
      H   21    0.09498      0.00000     0.40421    0.00081     0.40502
      H   22    0.09598      0.00000     0.40324    0.00078     0.40402
      H   23    0.11986      0.00000     0.37773    0.00241     0.38014
      H   24    0.09707      0.00000     0.40184    0.00109     0.40293
      H   25    0.10152      0.00000     0.39738    0.00109     0.39848
      H   26    0.10544      0.00000     0.39303    0.00154     0.39456
      H   27    0.11049      0.00000     0.38854    0.00097     0.38951
      H   28    0.09499      0.00000     0.40428    0.00073     0.40501
      H   29    0.09806      0.00000     0.39949    0.00245     0.40194
      H   30    0.09433      0.00000     0.40158    0.00408     0.40567
      H   31    0.18321      0.00000     0.30809    0.00870     0.31679
      H   32    0.17602      0.00000     0.32034    0.00365     0.32398
 =======================================================================
   * Total *    0.00000     12.99499    36.83130    0.17372    50.00000

 Normal termination of Gaussian 16 at Mon Dec 14 17:15:18 2020.
