 Gaussian 16, Revision A.03,

 -----------------------------------------------------------
 # opt freq B3LYP/6-31G(d) empiricaldispersion=gd3bj scf=xqc
 -----------------------------------------------------------

 -----------------------------
 CID_89127215_JID_433_neutraal
 -----------------------------
 Symbolic Z-matrix:
 Charge =  0 Multiplicity = 1

 SCF Done:  E(RB3LYP) =  -464.941571176     A.U. after   14 cycles
 SCF Done:  E(RB3LYP) =  -464.943474305     A.U. after   12 cycles
 SCF Done:  E(RB3LYP) =  -464.941861555     A.U. after   12 cycles
 SCF Done:  E(RB3LYP) =  -464.938609347     A.U. after   14 cycles
 SCF Done:  E(RB3LYP) =  -464.936047242     A.U. after   14 cycles
 SCF Done:  E(RB3LYP) =  -464.943508541     A.U. after    8 cycles
 SCF Done:  E(RB3LYP) =  -464.944485064     A.U. after   12 cycles
 SCF Done:  E(RB3LYP) =  -464.944480120     A.U. after   10 cycles
 SCF Done:  E(RB3LYP) =  -464.944561058     A.U. after   13 cycles
 SCF Done:  E(RB3LYP) =  -464.944707721     A.U. after   12 cycles
 SCF Done:  E(RB3LYP) =  -464.944729315     A.U. after   11 cycles
 SCF Done:  E(RB3LYP) =  -464.944742027     A.U. after    9 cycles
 SCF Done:  E(RB3LYP) =  -464.944743074     A.U. after    8 cycles
 SCF Done:  E(RB3LYP) =  -464.944743234     A.U. after    7 cycles
 SCF Done:  E(RB3LYP) =  -464.944743260     A.U. after    7 cycles
 Optimization completed.
    -- Stationary point found.

 1\1\GINC-NODE321\FOpt\RB3LYP\6-31G(d)\C8H16O2\VSC10255\08-Dec-2020\0\\
 # opt freq B3LYP/6-31G(d) empiricaldispersion=gd3bj scf=xqc\\CID_89127
 215_JID_433_neutraal\\0,1\C,1.0374639582,0.0068510835,0.0881198993\C,0
 .8154003864,0.6121811945,-1.2933537573\O,1.7226258315,0.1725320999,-2.
 3000156028\C,3.0645501766,0.6045300754,-2.3048803709\C,3.3328965276,2.
 1109964792,-2.0558172885\C,3.3482242121,2.6951640863,-0.6263804697\C,4
 .5051660787,2.1684528202,0.2331447207\C,3.4193928253,4.2261454633,-0.7
 251680561\C,4.0035736308,-0.3149466838,-1.5374153233\O,3.678159429,-1.

 Normal termination of Gaussian 16 at Tue Dec  8 10:37:36 2020.

 --------------------------------------------------------------------
 #N Geom=AllCheck Guess=TCheck SCRF=Check GenChk RB3LYP/6-31G(d) Freq
 --------------------------------------------------------------------

 Structure from the checkpoint file:  "JID_433.chk"
 -----------------------------
 CID_89127215_JID_433_neutraal
 -----------------------------
 Charge =  0 Multiplicity = 1

 SCF Done:  E(RB3LYP) =  -464.944743260     A.U. after    1 cycles

  Exact polarizability:  95.658  -2.484  89.088   4.257  -1.628  83.511
 Approx polarizability: 127.484  -2.937 122.631  10.010  -1.717 122.841

                      1                      2                      3
                      A                      A                      A
 Frequencies --     42.5297                98.0096               111.3175
 Red. masses --      2.6998                 4.4689                 3.2176
 Frc consts  --      0.0029                 0.0253                 0.0235
 IR Inten    --      0.5680                 2.2884                 0.8672

                      4                      5                      6
                      A                      A                      A
 Frequencies --    148.8532               160.5381               216.5700
 Red. masses --      4.2641                 2.5446                 2.2165
 Frc consts  --      0.0557                 0.0386                 0.0613
 IR Inten    --      7.0161                 1.1063                 0.6902

                      7                      8                      9
                      A                      A                      A
 Frequencies --    231.5335               240.3238               246.5958
 Red. masses --      1.3322                 3.1422                 1.1979
 Frc consts  --      0.0421                 0.1069                 0.0429
 IR Inten    --      0.8730                 3.2318                 0.0494

                     10                     11                     12
                      A                      A                      A
 Frequencies --    272.7683               293.7007               306.5848
 Red. masses --      1.4122                 2.0413                 1.9289
 Frc consts  --      0.0619                 0.1037                 0.1068
 IR Inten    --      1.0619                 1.2864                 1.5697

                     13                     14                     15
                      A                      A                      A
 Frequencies --    358.3486               415.5630               427.8265
 Red. masses --      2.2422                 2.2764                 1.8969
 Frc consts  --      0.1696                 0.2316                 0.2046
 IR Inten    --      1.4475                 3.7537                 0.2710

                     16                     17                     18
                      A                      A                      A
 Frequencies --    454.0040               633.5233               703.1489
 Red. masses --      2.7616                 3.4783                 3.1616
 Frc consts  --      0.3354                 0.8225                 0.9210
 IR Inten    --      2.9154                 9.4744                 1.3210

                     19                     20                     21
                      A                      A                      A
 Frequencies --    757.8123               811.1929               825.6333
 Red. masses --      3.1097                 2.2212                 1.3023
 Frc consts  --      1.0522                 0.8612                 0.5230
 IR Inten    --     30.2786                 6.0823                 1.9303

                     22                     23                     24
                      A                      A                      A
 Frequencies --    847.1796               892.0396               938.8067
 Red. masses --      1.8110                 2.2215                 1.4877
 Frc consts  --      0.7658                 1.0415                 0.7725
 IR Inten    --      6.0997                18.5030                 3.6173

                     25                     26                     27
                      A                      A                      A
 Frequencies --    947.0575               979.4755              1013.8369
 Red. masses --      1.4584                 1.4503                 1.8436
 Frc consts  --      0.7707                 0.8198                 1.1165
 IR Inten    --      0.9451                 0.2871                 8.2156

                     28                     29                     30
                      A                      A                      A
 Frequencies --   1022.5661              1069.4673              1113.4097
 Red. masses --      2.1426                 2.4069                 2.0407
 Frc consts  --      1.3200                 1.6220                 1.4905
 IR Inten    --      5.0613                12.0118                13.5668

                     31                     32                     33
                      A                      A                      A
 Frequencies --   1143.3359              1153.7441              1205.4974
 Red. masses --      2.0069                 2.2982                 1.8111
 Frc consts  --      1.5457                 1.8024                 1.5507
 IR Inten    --     33.8871                 7.1889                 6.4630

                     34                     35                     36
                      A                      A                      A
 Frequencies --   1210.7059              1228.5013              1278.0256
 Red. masses --      1.7686                 3.4768                 1.3288
 Frc consts  --      1.5275                 3.0916                 1.2788
 IR Inten    --      5.0325               100.6359                 5.7533

                     37                     38                     39
                      A                      A                      A
 Frequencies --   1324.7741              1348.0422              1359.7886
 Red. masses --      1.4258                 1.1128                 1.3132
 Frc consts  --      1.4744                 1.1914                 1.4306
 IR Inten    --      9.9647                10.3428                 5.6473

                     40                     41                     42
                      A                      A                      A
 Frequencies --   1391.2309              1403.9704              1411.6234
 Red. masses --      1.2522                 1.2812                 1.3973
 Frc consts  --      1.4280                 1.4880                 1.6405
 IR Inten    --      4.1773                 1.8359                 1.6625

                     43                     44                     45
                      A                      A                      A
 Frequencies --   1421.7122              1431.6889              1439.4667
 Red. masses --      1.2402                 1.2551                 1.2195
 Frc consts  --      1.4770                 1.5158                 1.4888
 IR Inten    --      3.8758                 5.2725                 9.4437

                     46                     47                     48
                      A                      A                      A
 Frequencies --   1449.1250              1453.6518              1499.9306
 Red. masses --      1.2808                 1.2332                 1.0844
 Frc consts  --      1.5847                 1.5353                 1.4374
 IR Inten    --     15.3935                 6.0002                 3.9929

                     49                     50                     51
                      A                      A                      A
 Frequencies --   1515.6800              1520.1707              1521.0996
 Red. masses --      1.0485                 1.0507                 1.0443
 Frc consts  --      1.4192                 1.4305                 1.4236
 IR Inten    --      4.7583                 2.0980                 0.9171

                     52                     53                     54
                      A                      A                      A
 Frequencies --   1526.1840              1535.5576              1543.1460
 Red. masses --      1.0477                 1.0574                 1.0841
 Frc consts  --      1.4378                 1.4689                 1.5211
 IR Inten    --      3.1376                 2.1045                 2.7376

                     55                     56                     57
                      A                      A                      A
 Frequencies --   1547.6884              1841.1180              2876.1620
 Red. masses --      1.0488                10.2952                 1.0827
 Frc consts  --      1.4802                20.5611                 5.2772
 IR Inten    --     14.1822               132.1318               120.9828

                     58                     59                     60
                      A                      A                      A
 Frequencies --   2978.1062              3029.3962              3033.7051
 Red. masses --      1.0818                 1.0651                 1.0666
 Frc consts  --      5.6530                 5.7588                 5.7836
 IR Inten    --     31.3766                24.5451                41.1629

                     61                     62                     63
                      A                      A                      A
 Frequencies --   3039.3660              3045.9207              3059.0460
 Red. masses --      1.0375                 1.0414                 1.0431
 Frc consts  --      5.6466                 5.6925                 5.7510
 IR Inten    --     32.6245                24.9537                18.3514

                     64                     65                     66
                      A                      A                      A
 Frequencies --   3073.9774              3083.6334              3093.4432
 Red. masses --      1.0894                 1.0908                 1.0968
 Frc consts  --      6.0652                 6.1111                 6.1837
 IR Inten    --      8.0217                22.0462                27.0222

                     67                     68                     69
                      A                      A                      A
 Frequencies --   3103.1971              3112.4283              3117.2115
 Red. masses --      1.1006                 1.1000                 1.1009
 Frc consts  --      6.2443                 6.2783                 6.3026
 IR Inten    --      7.8291                57.3934                56.4761

                     70                     71                     72
                      A                      A                      A
 Frequencies --   3132.7883              3134.7586              3162.4083
 Red. masses --      1.0946                 1.0979                 1.1025
 Frc consts  --      6.3297                 6.3567                 6.4963
 IR Inten    --     45.9068                24.5322                22.1987

 - Thermochemistry -
 -------------------
 Temperature   298.150 Kelvin.  Pressure   1.00000 Atm.
 Atom     1 has atomic number  6 and mass  12.00000

 Molecular mass:   144.11503 amu.
 Principal axes and moments of inertia in atomic units:
                           1         2         3
     Eigenvalues --  1122.275701911.517412177.78555
           X            0.99937  -0.03331   0.01234
           Y            0.03392   0.99798  -0.05366
           Z           -0.01053   0.05405   0.99848
 This molecule is an asymmetric top.
 Rotational symmetry number  1.
 Warning -- assumption of classical behavior for rotation
           may cause significant error
 Rotational temperatures (Kelvin)      0.07718     0.04531     0.03977
 Rotational constants (GHZ):           1.60811     0.94414     0.82870
 Zero-point vibrational energy     612256.1 (Joules/Mol)
                                  146.33272 (Kcal/Mol)
 Warning -- explicit consideration of  16 degrees of freedom as
           vibrations may cause significant error
 Vibrational temperatures:     61.19   141.01   160.16   214.17   230.98
          (Kelvin)            311.60   333.13   345.77   354.80   392.45
                              422.57   441.11   515.58   597.90   615.55
                              653.21   911.50  1011.67  1090.32  1167.13
                             1187.90  1218.90  1283.45  1350.73  1362.60
                             1409.25  1458.69  1471.24  1538.72  1601.95
                             1645.01  1659.98  1734.44  1741.94  1767.54
                             1838.79  1906.05  1939.53  1956.43  2001.67
                             2020.00  2031.01  2045.53  2059.88  2071.07
                             2084.97  2091.48  2158.07  2180.73  2187.19
                             2188.52  2195.84  2209.32  2220.24  2226.78
                             2648.96  4138.16  4284.83  4358.63  4364.82
                             4372.97  4382.40  4401.28  4422.77  4436.66
                             4450.77  4464.81  4478.09  4484.97  4507.38
                             4510.22  4550.00

 Zero-point correction=                           0.233196 (Hartree/Particle)
 Thermal correction to Energy=                    0.245211
 Thermal correction to Enthalpy=                  0.246156
 Thermal correction to Gibbs Free Energy=         0.195712
 Sum of electronic and zero-point Energies=           -464.711547
 Sum of electronic and thermal Energies=              -464.699532
 Sum of electronic and thermal Enthalpies=            -464.698588
 Sum of electronic and thermal Free Energies=         -464.749031

                     E (Thermal)             CV                S
                      KCal/Mol        Cal/Mol-Kelvin    Cal/Mol-Kelvin
 Total                  153.872             43.987            106.166
 Electronic               0.000              0.000              0.000
 Translational            0.889              2.981             40.807
 Rotational               0.889              2.981             29.925
 Vibrational            152.095             38.025             35.434
 Vibration     1          0.595              1.980              5.138
 Vibration     2          0.603              1.951              3.494
 Vibration     3          0.607              1.940              3.246
 Vibration     4          0.618              1.904              2.687
 Vibration     5          0.622              1.891              2.543
 Vibration     6          0.645              1.816              1.988
 Vibration     7          0.653              1.793              1.867
 Vibration     8          0.657              1.779              1.800
 Vibration     9          0.661              1.768              1.755
 Vibration    10          0.676              1.724              1.579
 Vibration    11          0.688              1.685              1.453
 Vibration    12          0.697              1.661              1.381
 Vibration    13          0.733              1.558              1.129
 Vibration    14          0.779              1.436              0.907
 Vibration    15          0.789              1.410              0.866
 Vibration    16          0.812              1.352              0.784

 Optimization completed.
    -- Stationary point found.

 1\1\GINC-NODE321\Freq\RB3LYP\6-31G(d)\C8H16O2\VSC10255\08-Dec-2020\0\\
 #N Geom=AllCheck Guess=TCheck SCRF=Check GenChk RB3LYP/6-31G(d) Freq\\
 CID_89127215_JID_433_neutraal\\0,1\C,1.0374639582,0.0068510835,0.08811
 98993\C,0.8154003864,0.6121811945,-1.2933537573\O,1.7226258315,0.17253
 20999,-2.3000156028\C,3.0645501766,0.6045300754,-2.3048803709\C,3.3328
 965276,2.1109964792,-2.0558172885\C,3.3482242121,2.6951640863,-0.62638
 04697\C,4.5051660787,2.1684528202,0.2331447207\C,3.4193928253,4.226145
 4633,-0.7251680561\C,4.0035736308,-0.3149466838,-1.5374153233\O,3.6781

 Normal termination of Gaussian 16 at Tue Dec  8 10:43:05 2020.

 ----------------------------------------------------------------------
 # B3LYP/6-311++G(d,p) empiricaldispersion=gd3bj scf=xqc pop=npa geom=c
 heck
 ----------------------------------------------------------------------

 -------------------------------------
 CID_89127215_JID_433_Energie_neutraal
 -------------------------------------
 Structure from the checkpoint file:  "JID_433.chk"
 Charge =  0 Multiplicity = 1

 SCF Done:  E(RB3LYP) =  -465.083455879     A.U. after   13 cycles
 Normal termination of Gaussian 16 at Tue Dec  8 10:46:35 2020.

 ----------------------------------------------------------------------
 # B3LYP/6-311++G(d,p) empiricaldispersion=gd3bj scf=xqc pop=npa geom=c
 heck
 ----------------------------------------------------------------------

 -----------------------------------
 CID_89127215_JID_433_Energie_kation
 -----------------------------------
 Structure from the checkpoint file:  "JID_433.chk"
 Charge =  1 Multiplicity = 2

 SCF Done:  E(UB3LYP) =  -464.755305864     A.U. after   19 cycles
 Normal termination of Gaussian 16 at Tue Dec  8 10:50:51 2020.
 Gaussian 16:  ES64L-G16RevA.03 25-Dec-2016

 ----------------------------------
 CID_89127215_JID_433_Energie_anion
 ----------------------------------
 Structure from the checkpoint file:  "JID_433.chk"
 Charge = -1 Multiplicity = 2

                         Standard orientation:
 ---------------------------------------------------------------------
 Center     Atomic      Atomic             Coordinates (Angstroms)
 Number     Number       Type             X           Y           Z
 ---------------------------------------------------------------------
      1          6           0        1.641160   -1.233753    1.391081
      2          6           0        1.383963   -1.646765   -0.053730
      3          8           0        1.545835   -0.610310   -1.017720
      4          6           0        0.602387    0.431503   -1.126978
      5          6           0       -0.898541    0.044184   -1.100846
      6          6           0       -1.632114   -0.225141    0.231112
      7          6           0       -1.759000    1.020751    1.117891
      8          6           0       -3.024295   -0.791954   -0.083982
      9          6           0        0.931921    1.644570   -0.269028
     10          8           0        1.816107    1.718781    0.552118
     11          1           0        2.615742   -0.748808    1.478613
     12          1           0        1.622516   -2.123981    2.031903
     13          1           0        0.889752   -0.532234    1.762957
     14          1           0        2.123887   -2.395147   -0.355481
     15          1           0        0.396744   -2.117461   -0.159302
     16          1           0        0.765153    0.813616   -2.149833
     17          1           0       -1.441127    0.849600   -1.616390
     18          1           0       -0.990181   -0.836423   -1.748566
     19          1           0       -1.088259   -0.985944    0.800142
     20          1           0       -2.248837    1.839913    0.575648
     21          1           0       -2.367849    0.798644    2.001513
     22          1           0       -0.791409    1.383242    1.476410
     23          1           0       -2.957587   -1.712073   -0.675953
     24          1           0       -3.572841   -1.021088    0.836280
     25          1           0       -3.619939   -0.068814   -0.655944
     26          1           0        0.295817    2.528816   -0.510294
 ---------------------------------------------------------------------

 SCF Done:  E(UB3LYP) =  -465.071231267     A.U. after   33 cycles
 SCF Done:  E(UB3LYP) =  -465.071231267     a.u. after    1 cycles

 The electronic state is 2-A.
 Alpha  occ. eigenvalues --  -19.01267 -18.99243 -10.12546 -10.11672 -10.10907
 Alpha  occ. eigenvalues --  -10.06587 -10.06106 -10.05122 -10.04749 -10.04367
 Alpha  occ. eigenvalues --   -0.93523  -0.91483  -0.70492  -0.66452  -0.62148
 Alpha  occ. eigenvalues --   -0.57577  -0.55262  -0.51289  -0.46196  -0.43702
 Alpha  occ. eigenvalues --   -0.38561  -0.38082  -0.36444  -0.34003  -0.32770
 Alpha  occ. eigenvalues --   -0.31998  -0.31194  -0.29914  -0.29129  -0.27716
 Alpha  occ. eigenvalues --   -0.27289  -0.26485  -0.25852  -0.24684  -0.22748
 Alpha  occ. eigenvalues --   -0.22270  -0.21388  -0.18972  -0.16579  -0.12624
 Alpha  occ. eigenvalues --    0.04913
 Alpha virt. eigenvalues --    0.07654   0.07918   0.08191   0.08895   0.10268
 Alpha virt. eigenvalues --    0.10622   0.10823   0.11339   0.11643   0.13245
 Alpha virt. eigenvalues --    0.13522   0.13997   0.14591   0.15120   0.15692

  Beta  occ. eigenvalues --  -19.01266 -18.99050 -10.12363 -10.11691 -10.10893
  Beta  occ. eigenvalues --  -10.06579 -10.06049 -10.05116 -10.04713 -10.04316
  Beta  occ. eigenvalues --   -0.93346  -0.91285  -0.70436  -0.66397  -0.62063
  Beta  occ. eigenvalues --   -0.57485  -0.55131  -0.51084  -0.46044  -0.43587
  Beta  occ. eigenvalues --   -0.38459  -0.37948  -0.36369  -0.33917  -0.32637
  Beta  occ. eigenvalues --   -0.31848  -0.31143  -0.29847  -0.29037  -0.27621
  Beta  occ. eigenvalues --   -0.27013  -0.26041  -0.25809  -0.24575  -0.22622
  Beta  occ. eigenvalues --   -0.22168  -0.21294  -0.18866  -0.16517  -0.12490
  Beta virt. eigenvalues --    0.07527   0.08280   0.08778   0.09183   0.09901
  Beta virt. eigenvalues --    0.10742   0.11068   0.11244   0.11899   0.12070
  Beta virt. eigenvalues --    0.13490   0.13883   0.14362   0.15046   0.15292

 Mulliken charges and spin densities:
               1          2
     1  C   -0.490048  -0.014872
     2  C    0.433626  -0.674834
     3  O   -0.104624   0.014009
     4  C   -0.296122   0.393098
     5  C    1.863120  -2.516357
     6  C   -2.481226   3.006702
     7  C    0.434736  -1.042776
     8  C    1.642609  -2.242232
     9  C    0.112610  -0.305867
    10  O   -0.231011   0.055611
    11  H    0.172846   0.005900
    12  H   -0.021227   0.127650
    13  H    0.016811   0.152206
    14  H   -0.018290   0.186674
    15  H   -0.183534   0.333813
    16  H   -0.358513   0.594002
    17  H   -0.075020   0.236891
    18  H   -0.295689   0.507412
    19  H    0.273822  -0.146407
    20  H   -0.037471   0.187720
    21  H   -0.370813   0.518895
    22  H    0.266840  -0.112103
    23  H   -0.416836   0.556766
    24  H   -0.582881   0.730850
    25  H   -0.235030   0.363463
    26  H   -0.018685   0.083782
 Sum of Mulliken charges =  -1.00000   1.00000

 Dipole moment (field-independent basis, Debye):
    X=              4.0871    Y=              1.0058    Z=              1.3424  Tot=              4.4179
 Quadrupole moment (field-independent basis, Debye-Ang):
   XX=           -120.1497   YY=            -95.8327   ZZ=            -99.3839
   XY=             -7.8644   XZ=              1.0066   YZ=             -3.7536

 Summary of Natural Population Analysis:

                                       Natural Population
                Natural  -----------------------------------------------
    Atom  No    Charge         Core      Valence    Rydberg      Total
 -----------------------------------------------------------------------
      C    1   -0.30213      0.99966     2.29689    0.00559     3.30213
      C    2   -0.00863      0.99958     1.99689    0.01216     3.00863
      O    3   -0.30048      0.99988     3.28990    0.01070     4.30048
      C    4    0.01941      0.99951     1.96353    0.01754     2.98059
      C    5   -0.20269      0.99958     2.19209    0.01102     3.20269
      C    6   -0.12177      0.99961     2.11246    0.00970     3.12177
      C    7   -0.28701      0.99964     2.28121    0.00616     3.28701
      C    8   -0.28137      0.99965     2.27542    0.00629     3.28137
      C    9    0.23269      0.99970     1.74686    0.02075     2.76731
      O   10   -0.26518      0.99988     3.25834    0.00697     4.26518
      H   11    0.10623      0.00000     0.39290    0.00087     0.39377
      H   12    0.09421      0.00000     0.40486    0.00093     0.40579
      H   13    0.10114      0.00000     0.39782    0.00103     0.39886
      H   14    0.08524      0.00000     0.41362    0.00114     0.41476
      H   15    0.07998      0.00000     0.41834    0.00168     0.42002
      H   16    0.10365      0.00000     0.39427    0.00208     0.39635
      H   17    0.10403      0.00000     0.39440    0.00157     0.39597
      H   18    0.10962      0.00000     0.38797    0.00241     0.39038
      H   19    0.09378      0.00000     0.40353    0.00269     0.40622
      H   20    0.09639      0.00000     0.40261    0.00100     0.40361
      H   21    0.10121      0.00000     0.39774    0.00105     0.39879
      H   22    0.10199      0.00000     0.39705    0.00095     0.39801
      H   23    0.10059      0.00000     0.39770    0.00172     0.39941
      H   24    0.10030      0.00000     0.39793    0.00177     0.39970
      H   25    0.09676      0.00000     0.40166    0.00157     0.40324
      H   26    0.04204      0.00000     0.45569    0.00227     0.45796
 =======================================================================
   * Total *    0.00000      9.99668    29.87168    0.13164    40.00000

 Normal termination of Gaussian 16 at Tue Dec  8 10:57:04 2020.
