 Gaussian 16, Revision A.03,

 -----------------------------------------------------------
 # opt freq B3LYP/6-31G(d) empiricaldispersion=gd3bj scf=xqc
 -----------------------------------------------------------

 -------------------------------
 CID_143655333_JID_1978_neutraal
 -------------------------------
 Symbolic Z-matrix:
 Charge =  0 Multiplicity = 1

 SCF Done:  E(RB3LYP) =  -446.066043877     A.U. after   14 cycles
 SCF Done:  E(RB3LYP) =  -446.069737132     A.U. after   11 cycles
 SCF Done:  E(RB3LYP) =  -446.070035818     A.U. after   10 cycles
 SCF Done:  E(RB3LYP) =  -446.070094094     A.U. after   10 cycles
 SCF Done:  E(RB3LYP) =  -446.070124538     A.U. after    9 cycles
 SCF Done:  E(RB3LYP) =  -446.070160714     A.U. after   10 cycles
 SCF Done:  E(RB3LYP) =  -446.070168591     A.U. after    9 cycles
 SCF Done:  E(RB3LYP) =  -446.070169453     A.U. after    7 cycles
 SCF Done:  E(RB3LYP) =  -446.070170163     A.U. after    7 cycles
 SCF Done:  E(RB3LYP) =  -446.070170625     A.U. after    7 cycles
 SCF Done:  E(RB3LYP) =  -446.070198294     A.U. after    9 cycles
 SCF Done:  E(RB3LYP) =  -446.070204563     A.U. after   10 cycles
 SCF Done:  E(RB3LYP) =  -446.070209350     A.U. after    8 cycles
 SCF Done:  E(RB3LYP) =  -446.070217041     A.U. after   10 cycles
 SCF Done:  E(RB3LYP) =  -446.070218440     A.U. after    9 cycles
 SCF Done:  E(RB3LYP) =  -446.070218550     A.U. after    7 cycles
 Optimization completed.
    -- Stationary point found.
 Normal termination of Gaussian 16 at Tue Dec  8 21:48:39 2020.

 --------------------------------------------------------------------
 #N Geom=AllCheck Guess=TCheck SCRF=Check GenChk RB3LYP/6-31G(d) Freq
 --------------------------------------------------------------------

 Structure from the checkpoint file:  "JID_1978.chk"
 -------------------------------
 CID_143655333_JID_1978_neutraal
 -------------------------------
 Charge =  0 Multiplicity = 1

 SCF Done:  E(RB3LYP) =  -446.070218550     A.U. after    1 cycles

  Exact polarizability: 128.746  -2.752 132.420   2.805   4.461  74.152
 Approx polarizability: 154.842  -4.329 204.267   5.406   9.517 111.801

                      1                      2                      3
                      A                      A                      A
 Frequencies --     39.5316                60.3604                65.3948
 Red. masses --      2.4074                 2.5730                 4.0053
 Frc consts  --      0.0022                 0.0055                 0.0101
 IR Inten    --      0.1745                 0.3364                 1.1076

                      4                      5                      6
                      A                      A                      A
 Frequencies --    143.1596               150.3256               163.2697
 Red. masses --      1.5472                 1.9964                 1.8022
 Frc consts  --      0.0187                 0.0266                 0.0283
 IR Inten    --      0.1006                 3.0436                 1.8383

                      7                      8                      9
                      A                      A                      A
 Frequencies --    179.2139               213.2354               223.6166
 Red. masses --      1.9574                 1.0649                 1.4195
 Frc consts  --      0.0370                 0.0285                 0.0418
 IR Inten    --      0.6512                 0.3085                 0.4870

                     10                     11                     12
                      A                      A                      A
 Frequencies --    243.5355               299.6540               332.7289
 Red. masses --      2.2307                 1.9918                 2.7045
 Frc consts  --      0.0780                 0.1054                 0.1764
 IR Inten    --      1.5562                 0.0846                 1.7334

                     13                     14                     15
                      A                      A                      A
 Frequencies --    382.4513               398.9068               517.1327
 Red. masses --      2.8442                 2.6775                 2.1723
 Frc consts  --      0.2451                 0.2510                 0.3423
 IR Inten    --      1.3005                 1.8141                 0.5313

                     16                     17                     18
                      A                      A                      A
 Frequencies --    527.2996               541.1461               574.0029
 Red. masses --      2.8814                 2.8537                 3.2459
 Frc consts  --      0.4720                 0.4924                 0.6301
 IR Inten    --      2.6434                 1.8028                 3.7091

                     19                     20                     21
                      A                      A                      A
 Frequencies --    610.8958               697.7916               741.1093
 Red. masses --      3.2221                 1.1293                 2.6919
 Frc consts  --      0.7085                 0.3240                 0.8711
 IR Inten    --      0.9923                 3.2124                 5.2084

                     22                     23                     24
                      A                      A                      A
 Frequencies --    758.5532               797.7947               879.3262
 Red. masses --      1.4595                 1.2044                 4.8047
 Frc consts  --      0.4948                 0.4516                 2.1888
 IR Inten    --     57.1557                 1.1946                 1.0936

                     25                     26                     27
                      A                      A                      A
 Frequencies --    940.8515               944.5271               977.2193
 Red. masses --      2.0127                 2.1178                 1.8389
 Frc consts  --      1.0497                 1.1132                 1.0346
 IR Inten    --      0.7462                 0.3985                 3.9475

                     28                     29                     30
                      A                      A                      A
 Frequencies --    980.5188              1030.4036              1045.0036
 Red. masses --      1.4070                 1.4160                 1.5144
 Frc consts  --      0.7970                 0.8858                 0.9744
 IR Inten    --      3.0081                 0.3535                 1.8158

                     31                     32                     33
                      A                      A                      A
 Frequencies --   1054.8632              1085.7629              1095.1779
 Red. masses --      1.5805                 1.4852                 1.8705
 Frc consts  --      1.0362                 1.0316                 1.3219
 IR Inten    --      0.9441                 1.4223                 9.0651

                     34                     35                     36
                      A                      A                      A
 Frequencies --   1101.5410              1141.1369              1148.7433
 Red. masses --      1.8244                 2.2556                 2.0188
 Frc consts  --      1.3043                 1.7306                 1.5696
 IR Inten    --      4.7619                10.6477                10.9070

                     37                     38                     39
                      A                      A                      A
 Frequencies --   1200.2989              1219.0252              1224.8002
 Red. masses --      1.1420                 1.2578                 2.1831
 Frc consts  --      0.9694                 1.1012                 1.9295
 IR Inten    --      0.7733                 1.3601                 2.3354

                     40                     41                     42
                      A                      A                      A
 Frequencies --   1241.6285              1297.0159              1320.8416
 Red. masses --      2.5328                 2.3656                 1.2883
 Frc consts  --      2.3005                 2.3447                 1.3243
 IR Inten    --      7.3176                 6.4163                 5.6626

                     43                     44                     45
                      A                      A                      A
 Frequencies --   1369.6132              1387.4194              1405.5712
 Red. masses --      1.5574                 1.9061                 1.9991
 Frc consts  --      1.7212                 2.1617                 2.3270
 IR Inten    --      3.7786                14.1691                 7.3913

                     46                     47                     48
                      A                      A                      A
 Frequencies --   1421.3239              1437.1413              1448.1685
 Red. masses --      1.6616                 1.2218                 1.3800
 Frc consts  --      1.9777                 1.4868                 1.7051
 IR Inten    --     65.0101                 1.8439                 5.4264

                     49                     50                     51
                      A                      A                      A
 Frequencies --   1456.6802              1479.6685              1510.6794
 Red. masses --      1.9403                 1.4002                 1.0573
 Frc consts  --      2.4258                 1.8062                 1.4216
 IR Inten    --     94.5999                88.3608                 2.3018

                     52                     53                     54
                      A                      A                      A
 Frequencies --   1511.2115              1512.7822              1524.2630
 Red. masses --      1.0565                 1.0445                 1.0586
 Frc consts  --      1.4215                 1.4084                 1.4491
 IR Inten    --      8.4840                 5.8646                 2.8021

                     55                     56                     57
                      A                      A                      A
 Frequencies --   1527.3882              1528.7284              1537.8074
 Red. masses --      1.0772                 1.0414                 1.0755
 Frc consts  --      1.4806                 1.4339                 1.4985
 IR Inten    --      4.5189                 5.5147                 8.7124

                     58                     59                     60
                      A                      A                      A
 Frequencies --   1546.4259              1557.3786              1702.8157
 Red. masses --      1.0808                 1.0922                 4.8401
 Frc consts  --      1.5229                 1.5608                 8.2688
 IR Inten    --      4.8404                11.6071               185.5192

                     61                     62                     63
                      A                      A                      A
 Frequencies --   1766.8557              2948.7094              2955.2625
 Red. masses --      7.7143                 1.0705                 1.0761
 Frc consts  --     14.1889                 5.4840                 5.5374
 IR Inten    --      4.5352                83.3023                55.0489

                     64                     65                     66
                      A                      A                      A
 Frequencies --   2982.3146              2990.9044              3025.7744
 Red. masses --      1.0857                 1.0859                 1.0675
 Frc consts  --      5.6896                 5.7235                 5.7583
 IR Inten    --     41.0283                51.5458                40.3337

                     67                     68                     69
                      A                      A                      A
 Frequencies --   3031.9422              3043.2595              3052.8054
 Red. masses --      1.0414                 1.0399                 1.0347
 Frc consts  --      5.6403                 5.6745                 5.6815
 IR Inten    --     37.5103                28.7815                31.2019

                     70                     71                     72
                      A                      A                      A
 Frequencies --   3073.6285              3085.3603              3090.7887
 Red. masses --      1.1000                 1.0935                 1.1003
 Frc consts  --      6.1225                 6.1333                 6.1930
 IR Inten    --     23.5472                14.4700                25.3157

                     73                     74                     75
                      A                      A                      A
 Frequencies --   3122.1107              3125.1668              3134.8361
 Red. masses --      1.1027                 1.1029                 1.0966
 Frc consts  --      6.3330                 6.3467                 6.3496
 IR Inten    --     39.6940                38.1697                29.0963

                     76                     77                     78
                      A                      A                      A
 Frequencies --   3151.2563              3194.1485              3271.0025
 Red. masses --      1.0982                 1.0587                 1.1162
 Frc consts  --      6.4252                 6.3643                 7.0366
 IR Inten    --     19.7745                 2.3932                20.1984

 - Thermochemistry -
 -------------------
 Temperature   298.150 Kelvin.  Pressure   1.00000 Atm.
 Atom     1 has atomic number  6 and mass  12.00000

 Molecular mass:   151.13610 amu.
 Principal axes and moments of inertia in atomic units:
                           1         2         3
     Eigenvalues --  1017.456512586.926663432.68780
           X            0.99992   0.01244  -0.00075
           Y           -0.01244   0.99992   0.00109
           Z            0.00077  -0.00108   1.00000
 This molecule is an asymmetric top.
 Rotational symmetry number  1.
 Warning -- assumption of classical behavior for rotation
           may cause significant error
 Rotational temperatures (Kelvin)      0.08513     0.03348     0.02523
 Rotational constants (GHZ):           1.77378     0.69764     0.52575
 Zero-point vibrational energy     660942.7 (Joules/Mol)
                                  157.96909 (Kcal/Mol)
 Warning -- explicit consideration of  19 degrees of freedom as
           vibrations may cause significant error
 Vibrational temperatures:     56.88    86.85    94.09   205.97   216.29
          (Kelvin)            234.91   257.85   306.80   321.73   350.39
                              431.14   478.72   550.26   573.94   744.04
                              758.67   778.59   825.86   878.94  1003.97
                             1066.29  1091.39  1147.85  1265.15  1353.68
                             1358.96  1406.00  1410.75  1482.52  1503.53
                             1517.71  1562.17  1575.72  1584.87  1641.84
                             1652.79  1726.96  1753.91  1762.21  1786.43
                             1866.12  1900.40  1970.57  1996.19  2022.30
                             2044.97  2067.73  2083.59  2095.84  2128.91
                             2173.53  2174.30  2176.56  2193.07  2197.57
                             2199.50  2212.56  2224.96  2240.72  2449.97
                             2542.11  4242.54  4251.96  4290.89  4303.24
                             4353.41  4362.29  4378.57  4392.31  4422.27
                             4439.15  4446.96  4492.02  4496.42  4510.33
                             4533.96  4595.67  4706.24

 Zero-point correction=                           0.251740 (Hartree/Particle)
 Thermal correction to Energy=                    0.264502
 Thermal correction to Enthalpy=                  0.265446
 Thermal correction to Gibbs Free Energy=         0.212474
 Sum of electronic and zero-point Energies=           -445.818479
 Sum of electronic and thermal Energies=              -445.805717
 Sum of electronic and thermal Enthalpies=            -445.804773
 Sum of electronic and thermal Free Energies=         -445.857745

                     E (Thermal)             CV                S
                      KCal/Mol        Cal/Mol-Kelvin    Cal/Mol-Kelvin
 Total                  165.977             46.808            111.489
 Electronic               0.000              0.000              0.000
 Translational            0.889              2.981             40.949
 Rotational               0.889              2.981             30.581
 Vibrational            164.200             40.846             39.959
 Vibration     1          0.594              1.981              5.282
 Vibration     2          0.597              1.973              4.445
 Vibration     3          0.597              1.971              4.287
 Vibration     4          0.616              1.910              2.761
 Vibration     5          0.618              1.902              2.668
 Vibration     6          0.623              1.888              2.512
 Vibration     7          0.629              1.868              2.337
 Vibration     8          0.644              1.821              2.016
 Vibration     9          0.649              1.805              1.930
 Vibration    10          0.659              1.773              1.777
 Vibration    11          0.692              1.674              1.419
 Vibration    12          0.715              1.610              1.247
 Vibration    13          0.752              1.508              1.029
 Vibration    14          0.765              1.472              0.967
 Vibration    15          0.872              1.212              0.617
 Vibration    16          0.882              1.190              0.593
 Vibration    17          0.896              1.159              0.563
 Vibration    18          0.930              1.087              0.497
 Vibration    19          0.970              1.009              0.431

 Optimization completed.
    -- Stationary point found.
 Normal termination of Gaussian 16 at Tue Dec  8 21:55:00 2020.

 ----------------------------------------------------------------------
 # B3LYP/6-311++G(d,p) empiricaldispersion=gd3bj scf=xqc pop=npa geom=c
 heck
 ----------------------------------------------------------------------

 ---------------------------------------
 CID_143655333_JID_1978_Energie_neutraal
 ---------------------------------------
 Structure from the checkpoint file:  "JID_1978.chk"
 Charge =  0 Multiplicity = 1

 SCF Done:  E(RB3LYP) =  -446.192606876     A.U. after   14 cycles
 Normal termination of Gaussian 16 at Tue Dec  8 21:57:50 2020.

 ----------------------------------------------------------------------
 # B3LYP/6-311++G(d,p) empiricaldispersion=gd3bj scf=xqc pop=npa geom=c
 heck
 ----------------------------------------------------------------------

 -------------------------------------
 CID_143655333_JID_1978_Energie_kation
 -------------------------------------
 Structure from the checkpoint file:  "JID_1978.chk"
 Charge =  1 Multiplicity = 2

 SCF Done:  E(UB3LYP) =  -445.934374289     A.U. after   18 cycles
 Normal termination of Gaussian 16 at Tue Dec  8 22:02:58 2020.
 Gaussian 16:  ES64L-G16RevA.03 25-Dec-2016

 ----------------------------------------------------------------------
 # B3LYP/6-311++G(d,p) empiricaldispersion=gd3bj scf=xqc pop=npa geom=c
 heck
 ----------------------------------------------------------------------

 ------------------------------------
 CID_143655333_JID_1978_Energie_anion
 ------------------------------------
 Structure from the checkpoint file:  "JID_1978.chk"
 Charge = -1 Multiplicity = 2

                         Standard orientation:
 ---------------------------------------------------------------------
 Center     Atomic      Atomic             Coordinates (Angstroms)
 Number     Number       Type             X           Y           Z
 ---------------------------------------------------------------------
      1          6           0       -3.028326   -1.666780    0.666812
      2          6           0       -2.622538   -0.722588   -0.478662
      3          6           0       -1.266633   -0.112272   -0.283367
      4          6           0       -0.947649    1.169540   -0.054980
      5          6           0        0.544768    1.329448    0.100444
      6          7           0        1.054773   -0.006675   -0.177792
      7          6           0       -0.024578   -0.968675   -0.306149
      8          6           0        2.363389   -0.409113    0.011122
      9          6           0        2.751104   -1.702018   -0.012914
     10          6           0        3.360179    0.704667    0.214275
     11          6           0       -1.843341    2.361740    0.065361
     12          1           0       -2.325202   -2.500731    0.765842
     13          1           0       -4.024094   -2.087786    0.490365
     14          1           0       -3.046952   -1.130804    1.621975
     15          1           0       -2.631190   -1.286273   -1.422990
     16          1           0       -3.376913    0.064766   -0.583352
     17          1           0        0.797357    1.681420    1.117164
     18          1           0        0.949489    2.081126   -0.596654
     19          1           0        0.067941   -1.552124   -1.237816
     20          1           0       -0.009807   -1.703886    0.519295
     21          1           0        3.797937   -1.954882    0.102282
     22          1           0        2.059209   -2.521805   -0.164803
     23          1           0        3.349261    1.408254   -0.627611
     24          1           0        3.142940    1.283582    1.120728
     25          1           0        4.369060    0.297628    0.306874
     26          1           0       -2.897007    2.102006   -0.066823
     27          1           0       -1.736381    2.837140    1.049989
     28          1           0       -1.587301    3.125398   -0.681572
 ---------------------------------------------------------------------

 SCF Done:  E(UB3LYP) =  -446.178564478     A.U. after   29 cycles

 The electronic state is 2-A.
 Alpha  occ. eigenvalues --  -14.22003 -10.10682 -10.09747 -10.09624 -10.06955
 Alpha  occ. eigenvalues --  -10.06936 -10.06907 -10.06640 -10.06086 -10.05891
 Alpha  occ. eigenvalues --  -10.03368  -0.85311  -0.72747  -0.67468  -0.65906
 Alpha  occ. eigenvalues --   -0.62013  -0.59682  -0.56766  -0.53863  -0.49793
 Alpha  occ. eigenvalues --   -0.44241  -0.41525  -0.38632  -0.37624  -0.35164
 Alpha  occ. eigenvalues --   -0.34127  -0.32997  -0.32123  -0.31631  -0.31451
 Alpha  occ. eigenvalues --   -0.29554  -0.29000  -0.28836  -0.27574  -0.27120
 Alpha  occ. eigenvalues --   -0.25992  -0.25162  -0.23647  -0.22693  -0.19540
 Alpha  occ. eigenvalues --   -0.12954  -0.08966   0.04505
 Alpha virt. eigenvalues --    0.06611   0.07402   0.08508   0.08857   0.09081
 Alpha virt. eigenvalues --    0.09557   0.10676   0.10952   0.11112   0.11450
 Alpha virt. eigenvalues --    0.12802   0.12899   0.13097   0.13602   0.14056

  Beta  occ. eigenvalues --  -14.22001 -10.10681 -10.09714 -10.09609 -10.06931
  Beta  occ. eigenvalues --  -10.06925 -10.06882 -10.06640 -10.06036 -10.05855
  Beta  occ. eigenvalues --  -10.03361  -0.85295  -0.72725  -0.67433  -0.65863
  Beta  occ. eigenvalues --   -0.61970  -0.59628  -0.56719  -0.53803  -0.49725
  Beta  occ. eigenvalues --   -0.44197  -0.41470  -0.38602  -0.37591  -0.35126
  Beta  occ. eigenvalues --   -0.34092  -0.32949  -0.32088  -0.31587  -0.31417
  Beta  occ. eigenvalues --   -0.29518  -0.28974  -0.28798  -0.27525  -0.27067
  Beta  occ. eigenvalues --   -0.25951  -0.25141  -0.23609  -0.22656  -0.19519
  Beta  occ. eigenvalues --   -0.12904  -0.08949
  Beta virt. eigenvalues --    0.06730   0.07408   0.08024   0.08997   0.09373
  Beta virt. eigenvalues --    0.09493   0.10077   0.10970   0.11429   0.11539
  Beta virt. eigenvalues --    0.11750   0.13062   0.13086   0.13339   0.13867

 Mulliken charges and spin densities:
               1          2
     1  C    1.049946  -1.680187
     2  C   -1.791277   1.275465
     3  C    1.210518  -0.284422
     4  C   -1.198050   1.706111
     5  C    0.450044  -1.074048
     6  N    0.090346   0.155020
     7  C   -0.897875  -0.107847
     8  C   -0.433028   1.011770
     9  C   -0.553287  -0.134959
    10  C    1.049734  -1.686005
    11  C    2.337479  -3.046678
    12  H   -0.138514   0.266803
    13  H   -0.491608   0.631900
    14  H   -0.084330   0.225335
    15  H   -0.126085   0.251482
    16  H   -0.282774   0.449954
    17  H   -0.001651   0.180528
    18  H   -0.142140   0.311562
    19  H   -0.036064   0.220534
    20  H    0.270102  -0.081045
    21  H    0.061388   0.069520
    22  H    0.006693   0.102818
    23  H   -0.191171   0.351234
    24  H   -0.257940   0.405298
    25  H    0.018088   0.124812
    26  H   -0.121665   0.246063
    27  H   -0.522937   0.687357
    28  H   -0.273941   0.421623
 Sum of Mulliken charges =  -1.00000   1.00000

 Dipole moment (field-independent basis, Debye):
    X=              3.1067    Y=             -2.4099    Z=             -0.9495  Tot=              4.0448
 Quadrupole moment (field-independent basis, Debye-Ang):
   XX=           -136.2839   YY=           -120.4147   ZZ=           -100.6923
   XY=             -3.4441   XZ=              2.0493   YZ=             -3.1690

 Summary of Natural Population Analysis:

                                       Natural Population
                Natural  -----------------------------------------------
    Atom  No    Charge         Core      Valence    Rydberg      Total
 -----------------------------------------------------------------------
      C    1   -0.27911      0.99966     2.27485    0.00459     3.27911
      C    2   -0.20031      0.99959     2.19185    0.00887     3.20031
      C    3   -0.01446      0.99940     2.00428    0.01078     3.01446
      C    4   -0.00815      0.99941     1.99756    0.01118     3.00815
      C    5   -0.08328      0.99958     2.07321    0.01049     3.08328
      N    6   -0.25223      0.99964     2.74189    0.01070     3.75223
      C    7   -0.08357      0.99958     2.07494    0.00905     3.08357
      C    8    0.11130      0.99952     1.87809    0.01109     2.88870
      C    9   -0.28093      0.99955     2.27276    0.00863     3.28093
      C   10   -0.30135      0.99963     2.29618    0.00553     3.30135
      C   11   -0.29668      0.99962     2.29113    0.00592     3.29668
      H   12    0.09424      0.00000     0.40414    0.00163     0.40576
      H   13    0.09837      0.00000     0.39984    0.00180     0.40163
      H   14    0.09822      0.00000     0.40023    0.00155     0.40178
      H   15    0.09870      0.00000     0.39983    0.00147     0.40130
      H   16    0.10310      0.00000     0.39534    0.00156     0.39690
      H   17    0.09530      0.00000     0.40276    0.00195     0.40470
      H   18    0.09619      0.00000     0.40200    0.00181     0.40381
      H   19    0.09401      0.00000     0.40371    0.00228     0.40599
      H   20    0.09241      0.00000     0.40514    0.00245     0.40759
      H   21    0.09296      0.00000     0.40626    0.00077     0.40704
      H   22    0.09546      0.00000     0.40358    0.00095     0.40454
      H   23    0.10482      0.00000     0.39373    0.00145     0.39518
      H   24    0.10555      0.00000     0.39291    0.00154     0.39445
      H   25    0.10282      0.00000     0.39645    0.00073     0.39718
      H   26    0.10558      0.00000     0.39292    0.00150     0.39442
      H   27    0.10727      0.00000     0.39046    0.00227     0.39273
      H   28    0.10377      0.00000     0.39477    0.00146     0.39623
 =======================================================================
   * Total *    0.00000     10.99519    30.88082    0.12399    42.00000

 Normal termination of Gaussian 16 at Tue Dec  8 22:11:05 2020.
