 Gaussian 16, Revision A.03,

 -----------------------------------------------------------
 # opt freq B3LYP/6-31G(d) empiricaldispersion=gd3bj scf=xqc
 -----------------------------------------------------------

 ------------------------------
 CID_65249100_JID_4551_neutraal
 ------------------------------
 Symbolic Z-matrix:
 Charge =  0 Multiplicity = 1

 SCF Done:  E(RB3LYP) =  -936.512399821     A.U. after   15 cycles
 SCF Done:  E(RB3LYP) =  -936.515826004     A.U. after   13 cycles
 SCF Done:  E(RB3LYP) =  -936.516382510     A.U. after   13 cycles
 SCF Done:  E(RB3LYP) =  -936.517755568     A.U. after   13 cycles
 SCF Done:  E(RB3LYP) =  -936.519472816     A.U. after   15 cycles
 SCF Done:  E(RB3LYP) =  -936.520428543     A.U. after   15 cycles
 SCF Done:  E(RB3LYP) =  -936.521241382     A.U. after   13 cycles
 SCF Done:  E(RB3LYP) =  -936.521393016     A.U. after   12 cycles
 SCF Done:  E(RB3LYP) =  -936.521512487     A.U. after   11 cycles
 SCF Done:  E(RB3LYP) =  -936.521547506     A.U. after   12 cycles
 SCF Done:  E(RB3LYP) =  -936.521561410     A.U. after   11 cycles
 SCF Done:  E(RB3LYP) =  -936.521564754     A.U. after   10 cycles
 SCF Done:  E(RB3LYP) =  -936.521566353     A.U. after    9 cycles
 SCF Done:  E(RB3LYP) =  -936.521566500     A.U. after    8 cycles
 Optimization completed.
    -- Stationary point found.
 Normal termination of Gaussian 16 at Thu Dec 10 10:06:46 2020.

 --------------------------------------------------------------------
 #N Geom=AllCheck Guess=TCheck SCRF=Check GenChk RB3LYP/6-31G(d) Freq
 --------------------------------------------------------------------

 Structure from the checkpoint file:  "JID_4551.chk"
 ------------------------------
 CID_65249100_JID_4551_neutraal
 ------------------------------
 Charge =  0 Multiplicity = 1

 SCF Done:  E(RB3LYP) =  -936.521566500     A.U. after    1 cycles

  Exact polarizability: 151.097  12.471 134.078 -15.824   7.430 115.508
 Approx polarizability: 197.435  27.155 230.997 -33.147  21.357 189.150

                      1                      2                      3
                      A                      A                      A
 Frequencies --     19.4466                27.0064                45.1576
 Red. masses --      5.6565                 7.5600                 4.4176
 Frc consts  --      0.0013                 0.0032                 0.0053
 IR Inten    --      0.8032                 0.9388                 1.8559

                      4                      5                      6
                      A                      A                      A
 Frequencies --     78.4246               106.8144               158.1104
 Red. masses --      5.0014                 3.4576                 4.8370
 Frc consts  --      0.0181                 0.0232                 0.0712
 IR Inten    --      2.6458                 0.0629                 4.0224

                      7                      8                      9
                      A                      A                      A
 Frequencies --    178.3049               196.6586               225.1797
 Red. masses --      3.5317                 3.5426                 4.9466
 Frc consts  --      0.0662                 0.0807                 0.1478
 IR Inten    --      3.4822                 1.9509                 4.2243

                     10                     11                     12
                      A                      A                      A
 Frequencies --    241.6276               243.2590               261.5272
 Red. masses --      2.2241                 1.0969                 1.3863
 Frc consts  --      0.0765                 0.0382                 0.0559
 IR Inten    --      1.6900                 0.1613                 0.8857

                     13                     14                     15
                      A                      A                      A
 Frequencies --    316.4500               335.4097               372.7838
 Red. masses --      1.7755                 2.0715                 2.3955
 Frc consts  --      0.1048                 0.1373                 0.1961
 IR Inten    --      1.5610                 2.9037                 0.9830

                     16                     17                     18
                      A                      A                      A
 Frequencies --    382.6652               398.0772               494.9647
 Red. masses --      2.2675                 3.9368                 4.7332
 Frc consts  --      0.1956                 0.3676                 0.6832
 IR Inten    --      0.5529                 0.0544                 4.2485

                     19                     20                     21
                      A                      A                      A
 Frequencies --    531.3543               572.0729               581.8320
 Red. masses --      3.9424                 3.3635                 5.5100
 Frc consts  --      0.6558                 0.6485                 1.0990
 IR Inten    --      0.3612                 1.2420                 0.6626

                     22                     23                     24
                      A                      A                      A
 Frequencies --    623.1685               656.4155               661.2368
 Red. masses --      4.6222                 4.9645                 3.2996
 Frc consts  --      1.0576                 1.2603                 0.8500
 IR Inten    --      1.1587                 0.4574                14.6053

                     25                     26                     27
                      A                      A                      A
 Frequencies --    677.2112               707.9301               752.7822
 Red. masses --      3.8931                 1.1911                 6.4786
 Frc consts  --      1.0519                 0.3517                 2.1631
 IR Inten    --      0.6929                61.4433                 4.1328

                     28                     29                     30
                      A                      A                      A
 Frequencies --    817.2936               834.7353               852.5898
 Red. masses --      2.3541                 1.2702                 1.5238
 Frc consts  --      0.9265                 0.5215                 0.6526
 IR Inten    --     41.4409                13.9922                29.4530

                     31                     32                     33
                      A                      A                      A
 Frequencies --    867.4643               885.5022               906.3045
 Red. masses --      3.7420                 1.7610                 1.3440
 Frc consts  --      1.6591                 0.8136                 0.6504
 IR Inten    --     13.6379                38.5532                 1.8042

                     34                     35                     36
                      A                      A                      A
 Frequencies --    930.7760               958.3497               970.1703
 Red. masses --      2.1197                 2.0167                 1.6147
 Frc consts  --      1.0820                 1.0913                 0.8955
 IR Inten    --      0.7589                 6.8666                 1.6272

                     37                     38                     39
                      A                      A                      A
 Frequencies --   1026.1989              1044.9829              1063.1742
 Red. masses --      1.8363                 1.7010                 1.5151
 Frc consts  --      1.1393                 1.0944                 1.0091
 IR Inten    --     15.5854                 3.0400                 1.9371

                     40                     41                     42
                      A                      A                      A
 Frequencies --   1072.7403              1107.5706              1123.1573
 Red. masses --      1.6203                 1.5022                 1.5483
 Frc consts  --      1.0986                 1.0857                 1.1507
 IR Inten    --      2.2365                 3.0292                 2.1010

                     43                     44                     45
                      A                      A                      A
 Frequencies --   1134.3942              1168.4082              1183.7196
 Red. masses --      2.7071                 2.8499                 3.0532
 Frc consts  --      2.0525                 2.2923                 2.5206
 IR Inten    --     44.1910                14.5913                16.3084

                     46                     47                     48
                      A                      A                      A
 Frequencies --   1218.2151              1232.2095              1261.3759
 Red. masses --      1.5689                 2.1554                 1.7834
 Frc consts  --      1.3718                 1.9282                 1.6718
 IR Inten    --     27.8970                 5.6359                 0.3611

                     49                     50                     51
                      A                      A                      A
 Frequencies --   1294.1586              1315.1722              1356.4314
 Red. masses --      1.3730                 1.4435                 1.2470
 Frc consts  --      1.3548                 1.4711                 1.3518
 IR Inten    --      4.2341                 1.4814                 7.1048

                     52                     53                     54
                      A                      A                      A
 Frequencies --   1378.4503              1394.1488              1405.7964
 Red. masses --      1.2703                 1.4006                 2.0197
 Frc consts  --      1.4221                 1.6040                 2.3517
 IR Inten    --     24.1069                 3.4594                 3.1433

                     55                     56                     57
                      A                      A                      A
 Frequencies --   1426.3363              1432.9012              1451.1371
 Red. masses --      1.2141                 1.3098                 1.2084
 Frc consts  --      1.4553                 1.5844                 1.4992
 IR Inten    --      6.1785                 2.5266                 7.5320

                     58                     59                     60
                      A                      A                      A
 Frequencies --   1498.3251              1502.5205              1505.6337
 Red. masses --      1.2343                 3.4706                 1.0885
 Frc consts  --      1.6326                 4.6163                 1.4538
 IR Inten    --      0.9966                 6.6403                 1.5261

                     61                     62                     63
                      A                      A                      A
 Frequencies --   1515.7878              1519.5846              1527.1502
 Red. masses --      1.0591                 1.0638                 1.1071
 Frc consts  --      1.4338                 1.4473                 1.5213
 IR Inten    --      1.0918                 1.9554                 7.8270

                     64                     65                     66
                      A                      A                      A
 Frequencies --   1533.7335              1536.6376              1543.3711
 Red. masses --      1.0686                 1.1170                 1.0587
 Frc consts  --      1.4810                 1.5540                 1.4859
 IR Inten    --      1.0506                32.4505                14.5632

                     67                     68                     69
                      A                      A                      A
 Frequencies --   1602.4369              2351.5698              3010.2485
 Red. masses --      5.3452                12.6803                 1.0682
 Frc consts  --      8.0868                41.3139                 5.7028
 IR Inten    --      0.6067                 9.8642                25.2747

                     70                     71                     72
                      A                      A                      A
 Frequencies --   3049.9389              3050.8097              3057.1963
 Red. masses --      1.0595                 1.0594                 1.0356
 Frc consts  --      5.8069                 5.8096                 5.7030
 IR Inten    --     16.2630                34.3828                18.7181

                     73                     74                     75
                      A                      A                      A
 Frequencies --   3063.3912              3074.4657              3093.2002
 Red. masses --      1.0381                 1.0922                 1.1057
 Frc consts  --      5.7398                 6.0824                 6.2334
 IR Inten    --     32.8930                27.5057                18.5294

                     76                     77                     78
                      A                      A                      A
 Frequencies --   3098.3780              3127.9118              3132.8340
 Red. masses --      1.1044                 1.1031                 1.1025
 Frc consts  --      6.2465                 6.3587                 6.3752
 IR Inten    --     23.7530                 2.8561                34.5005

                     79                     80                     81
                      A                      A                      A
 Frequencies --   3137.9397              3168.3478              3207.4205
 Red. masses --      1.1039                 1.1015                 1.0897
 Frc consts  --      6.4045                 6.5145                 6.6047
 IR Inten    --     23.4843                 4.9746                 8.6327

                     82                     83                     84
                      A                      A                      A
 Frequencies --   3225.9867              3272.0234              3482.4995
 Red. masses --      1.0941                 1.0970                 1.0736
 Frc consts  --      6.7084                 6.9197                 7.6717
 IR Inten    --      9.9106                 1.4487                 1.2267

 - Thermochemistry -
 -------------------
 Temperature   298.150 Kelvin.  Pressure   1.00000 Atm.
 Atom     1 has atomic number  6 and mass  12.00000

 Molecular mass:   208.10342 amu.
 Principal axes and moments of inertia in atomic units:
                           1         2         3
     Eigenvalues --  1461.574945696.385066122.59061
           X            0.99999   0.00260  -0.00426
           Y           -0.00267   0.99984  -0.01792
           Z            0.00421   0.01793   0.99983
 This molecule is an asymmetric top.
 Rotational symmetry number  1.
 Warning -- assumption of classical behavior for rotation
           may cause significant error
 Rotational temperatures (Kelvin)      0.05926     0.01521     0.01415
 Rotational constants (GHZ):           1.23479     0.31682     0.29477
 Zero-point vibrational energy     669006.1 (Joules/Mol)
                                  159.89629 (Kcal/Mol)
 Warning -- explicit consideration of  21 degrees of freedom as
           vibrations may cause significant error
 Vibrational temperatures:     27.98    38.86    64.97   112.84   153.68
          (Kelvin)            227.49   256.54   282.95   323.98   347.65
                              350.00   376.28   455.30   482.58   536.35
                              550.57   572.74   712.14   764.50   823.09
                              837.13   896.60   944.44   951.37   974.36
                             1018.55  1083.09  1175.90  1201.00  1226.69
                             1248.09  1274.04  1303.97  1339.18  1378.85
                             1395.86  1476.47  1503.50  1529.67  1543.43
                             1593.55  1615.97  1632.14  1681.08  1703.11
                             1752.74  1772.87  1814.84  1862.01  1892.24
                             1951.60  1983.28  2005.87  2022.63  2052.18
                             2061.63  2087.86  2155.76  2161.79  2166.27
                             2180.88  2186.34  2197.23  2206.70  2210.88
                             2220.57  2305.55  3383.38  4331.08  4388.18
                             4389.43  4398.62  4407.54  4423.47  4450.43
                             4457.87  4500.37  4507.45  4514.80  4558.55
                             4614.76  4641.48  4707.71  5010.54

 Zero-point correction=                           0.254811 (Hartree/Particle)
 Thermal correction to Energy=                    0.269709
 Thermal correction to Enthalpy=                  0.270653
 Thermal correction to Gibbs Free Energy=         0.210984
 Sum of electronic and zero-point Energies=           -936.266756
 Sum of electronic and thermal Energies=              -936.251858
 Sum of electronic and thermal Enthalpies=            -936.250914
 Sum of electronic and thermal Free Energies=         -936.310582

                     E (Thermal)             CV                S
                      KCal/Mol        Cal/Mol-Kelvin    Cal/Mol-Kelvin
 Total                  169.245             55.521            125.583
 Electronic               0.000              0.000              0.000
 Translational            0.889              2.981             41.903
 Rotational               0.889              2.981             32.300
 Vibrational            167.467             49.559             51.381
 Vibration     1          0.593              1.986              6.690
 Vibration     2          0.593              1.984              6.038
 Vibration     3          0.595              1.979              5.019
 Vibration     4          0.600              1.964              3.930
 Vibration     5          0.606              1.944              3.326
 Vibration     6          0.621              1.894              2.572
 Vibration     7          0.629              1.869              2.346
 Vibration     8          0.636              1.845              2.164
 Vibration     9          0.650              1.803              1.917
 Vibration    10          0.658              1.777              1.791
 Vibration    11          0.659              1.774              1.779
 Vibration    12          0.669              1.743              1.652
 Vibration    13          0.703              1.642              1.328
 Vibration    14          0.717              1.605              1.234
 Vibration    15          0.744              1.528              1.068
 Vibration    16          0.752              1.507              1.029
 Vibration    17          0.764              1.474              0.970
 Vibration    18          0.851              1.261              0.671
 Vibration    19          0.886              1.181              0.584
 Vibration    20          0.928              1.092              0.500
 Vibration    21          0.939              1.071              0.482

 Optimization completed.
    -- Stationary point found.
 Normal termination of Gaussian 16 at Thu Dec 10 10:15:30 2020.

 ----------------------------------------------------------------------
 # B3LYP/6-311++G(d,p) empiricaldispersion=gd3bj scf=xqc pop=npa geom=c
 heck
 ----------------------------------------------------------------------

 --------------------------------------
 CID_65249100_JID_4551_Energie_neutraal
 --------------------------------------
 Structure from the checkpoint file:  "JID_4551.chk"
 Charge =  0 Multiplicity = 1

 SCF Done:  E(RB3LYP) =  -936.698696219     A.U. after   15 cycles
 Normal termination of Gaussian 16 at Thu Dec 10 10:19:51 2020.

 ----------------------------------------------------------------------
 # B3LYP/6-311++G(d,p) empiricaldispersion=gd3bj scf=xqc pop=npa geom=c
 heck
 ----------------------------------------------------------------------

 ------------------------------------
 CID_65249100_JID_4551_Energie_kation
 ------------------------------------
 Structure from the checkpoint file:  "JID_4551.chk"
 Charge =  1 Multiplicity = 2

 SCF Done:  E(UB3LYP) =  -936.400617338     A.U. after   25 cycles
 Normal termination of Gaussian 16 at Thu Dec 10 10:29:47 2020.
 Gaussian 16:  ES64L-G16RevA.03 25-Dec-2016

 ----------------------------------------------------------------------
 # B3LYP/6-311++G(d,p) empiricaldispersion=gd3bj scf=xqc pop=npa geom=c
 heck
 ----------------------------------------------------------------------

 -----------------------------------
 CID_65249100_JID_4551_Energie_anion
 -----------------------------------
 Structure from the checkpoint file:  "JID_4551.chk"
 Charge = -1 Multiplicity = 2

                         Standard orientation:
 ---------------------------------------------------------------------
 Center     Atomic      Atomic             Coordinates (Angstroms)
 Number     Number       Type             X           Y           Z
 ---------------------------------------------------------------------
      1          6           0       -4.204616    0.499026   -0.987567
      2          6           0       -2.950216    0.127371   -0.167741
      3          6           0       -3.379709   -0.363854    1.235204
      4          6           0       -2.138634   -0.974374   -0.916219
      5          6           0       -0.628278   -1.023557   -0.657897
      6          7           0       -0.290325   -1.126066    0.764570
      7          6           0        1.101112   -1.534881    1.001918
      8          6           0        2.156232   -0.697921    0.325471
      9          6           0        2.957180   -1.032632   -0.734596
     10          6           0        3.794933    0.037143   -1.177789
     11          6           0        3.612315    1.181653   -0.453560
     12         16           0        2.416630    0.968068    0.787144
     13          6           0       -2.120507    1.336364   -0.009726
     14          7           0       -1.448667    2.273012    0.133918
     15          1           0       -4.802332   -0.402961   -1.157919
     16          1           0       -4.822552    1.227198   -0.453048
     17          1           0       -3.931369    0.922271   -1.958916
     18          1           0       -4.092793   -1.186626    1.114682
     19          1           0       -2.524770   -0.738944    1.800239
     20          1           0       -3.868382    0.437474    1.798126
     21          1           0       -2.590663   -1.936571   -0.649734
     22          1           0       -2.278552   -0.837275   -1.995403
     23          1           0       -0.235083   -1.917421   -1.157075
     24          1           0       -0.143508   -0.161437   -1.141170
     25          1           0       -0.420422   -0.207441    1.187239
     26          1           0        1.253330   -1.547226    2.087478
     27          1           0        1.215532   -2.567905    0.651822
     28          1           0        2.946220   -2.020024   -1.185245
     29          1           0        4.497622   -0.043707   -1.999884
     30          1           0        4.105708    2.136865   -0.569907
 ---------------------------------------------------------------------

 SCF Done:  E(UB3LYP) =  -936.685818616     A.U. after   33 cycles
 SCF Done:  E(UB3LYP) =  -936.685818616     a.u. after    1 cycles

 The electronic state is 2-A.
 Alpha  occ. eigenvalues --  -88.77597 -14.21757 -14.20652 -10.13265 -10.11413
 Alpha  occ. eigenvalues --  -10.11042 -10.10180 -10.10156 -10.09633 -10.08234
 Alpha  occ. eigenvalues --  -10.08187 -10.07913 -10.07713 -10.07464  -7.86232
 Alpha  occ. eigenvalues --   -5.82514  -5.82148  -5.81840  -0.82351  -0.81359
 Alpha  occ. eigenvalues --   -0.78042  -0.74233  -0.66360  -0.63814  -0.63104
 Alpha  occ. eigenvalues --   -0.60559  -0.56924  -0.54400  -0.51242  -0.46575
 Alpha  occ. eigenvalues --   -0.44612  -0.41835  -0.40713  -0.37984  -0.37683
 Alpha  occ. eigenvalues --   -0.36737  -0.33571  -0.32968  -0.31883  -0.31192
 Alpha  occ. eigenvalues --   -0.30829  -0.30380  -0.29823  -0.28101  -0.27620
 Alpha  occ. eigenvalues --   -0.27457  -0.26842  -0.26189  -0.25603  -0.25127
 Alpha  occ. eigenvalues --   -0.24424  -0.22825  -0.22402  -0.15958  -0.14883
 Alpha  occ. eigenvalues --   -0.13421   0.04292
 Alpha virt. eigenvalues --    0.05978   0.06569   0.07228   0.07818   0.08353
 Alpha virt. eigenvalues --    0.08492   0.09005   0.09315   0.10526   0.10865
 Alpha virt. eigenvalues --    0.11488   0.11926   0.11980   0.12282   0.12390

  Beta  occ. eigenvalues --  -88.77588 -14.21754 -14.20642 -10.13264 -10.11411
  Beta  occ. eigenvalues --  -10.11029 -10.10122 -10.10094 -10.09619 -10.08230
  Beta  occ. eigenvalues --  -10.08161 -10.07872 -10.07692 -10.07435  -7.86222
  Beta  occ. eigenvalues --   -5.82509  -5.82144  -5.81811  -0.82330  -0.81344
  Beta  occ. eigenvalues --   -0.77976  -0.74211  -0.66286  -0.63751  -0.63032
  Beta  occ. eigenvalues --   -0.60492  -0.56860  -0.54341  -0.51188  -0.46504
  Beta  occ. eigenvalues --   -0.44521  -0.41788  -0.40672  -0.37937  -0.37626
  Beta  occ. eigenvalues --   -0.36700  -0.33511  -0.32914  -0.31833  -0.31146
  Beta  occ. eigenvalues --   -0.30789  -0.30338  -0.29780  -0.28011  -0.27536
  Beta  occ. eigenvalues --   -0.27420  -0.26806  -0.26148  -0.25567  -0.25094
  Beta  occ. eigenvalues --   -0.24367  -0.22807  -0.22378  -0.15820  -0.14713
  Beta  occ. eigenvalues --   -0.13257
  Beta virt. eigenvalues --    0.06444   0.06837   0.07054   0.07836   0.08308
  Beta virt. eigenvalues --    0.08687   0.09059   0.09582   0.09833   0.10980
  Beta virt. eigenvalues --    0.11140   0.11720   0.12048   0.12115   0.12405

 Mulliken charges and spin densities:
               1          2
     1  C    0.982895  -1.563759
     2  C   -1.638817   2.942753
     3  C    0.536217  -1.122002
     4  C    0.683462  -1.487515
     5  C   -0.364253   0.030946
     6  N   -0.028295   0.057259
     7  C    0.687345  -1.468740
     8  C    0.008344   0.420408
     9  C   -0.559084   0.631788
    10  C    0.579837  -1.067981
    11  C   -0.330308   0.168972
    12  S   -0.101266   0.136459
    13  C    0.875468  -1.571707
    14  N   -0.285301   0.043452
    15  H   -0.505755   0.681897
    16  H   -0.144684   0.289501
    17  H   -0.134577   0.296688
    18  H   -0.404839   0.575853
    19  H    0.109088   0.042856
    20  H   -0.023170   0.179921
    21  H   -0.105616   0.292138
    22  H   -0.298250   0.478938
    23  H   -0.234039   0.392451
    24  H    0.345545  -0.181069
    25  H    0.157058   0.080082
    26  H   -0.144498   0.347791
    27  H   -0.118955   0.293171
    28  H   -0.546245   0.719338
    29  H   -0.130959   0.272645
    30  H    0.133652   0.087466
 Sum of Mulliken charges =  -1.00000   1.00000

 Dipole moment (field-independent basis, Debye):
    X=              4.6782    Y=              2.9271    Z=              1.5732  Tot=              5.7383
 Quadrupole moment (field-independent basis, Debye-Ang):
   XX=           -177.7942   YY=           -139.3618   ZZ=           -126.3867
   XY=              1.0581   XZ=             -3.6028   YZ=             -3.3120

 Summary of Natural Population Analysis:

                                       Natural Population
                Natural  -----------------------------------------------
    Atom  No    Charge         Core      Valence    Rydberg      Total
 -----------------------------------------------------------------------
      C    1   -0.27268      0.99964     2.26543    0.00762     3.27268
      C    2   -0.09632      0.99950     2.08398    0.01284     3.09632
      C    3   -0.27724      0.99963     2.27017    0.00744     3.27724
      C    4   -0.17994      0.99960     2.16876    0.01159     3.17994
      C    5   -0.09276      0.99961     2.08171    0.01144     3.09276
      N    6   -0.33961      0.99975     2.82805    0.01181     3.83961
      C    7   -0.10044      0.99956     2.08757    0.01332     3.10044
      C    8   -0.09957      0.99950     2.08695    0.01312     3.09957
      C    9   -0.12884      0.99945     2.11846    0.01093     3.12884
      C   10   -0.13075      0.99953     2.11984    0.01138     3.13075
      C   11   -0.18677      0.99954     2.17694    0.01029     3.18677
      S   12    0.20591      4.99939     2.77486    0.01983     7.79409
      C   13    0.16430      0.99962     1.81456    0.02153     2.83570
      N   14   -0.18606      0.99979     2.67482    0.01145     3.68606
      H   15    0.10679      0.00000     0.39115    0.00206     0.39321
      H   16    0.10233      0.00000     0.39626    0.00142     0.39767
      H   17    0.10346      0.00000     0.39511    0.00143     0.39654
      H   18    0.10455      0.00000     0.39396    0.00149     0.39545
      H   19    0.11189      0.00000     0.38616    0.00196     0.38811
      H   20    0.10018      0.00000     0.39866    0.00116     0.39982
      H   21    0.10496      0.00000     0.39293    0.00211     0.39504
      H   22    0.10287      0.00000     0.39555    0.00158     0.39713
      H   23    0.09829      0.00000     0.40028    0.00143     0.40171
      H   24    0.08908      0.00000     0.40888    0.00205     0.41092
      H   25    0.17377      0.00000     0.32290    0.00333     0.32623
      H   26    0.10131      0.00000     0.39763    0.00106     0.39869
      H   27    0.10182      0.00000     0.39669    0.00149     0.39818
      H   28    0.10800      0.00000     0.39043    0.00157     0.39200
      H   29    0.10504      0.00000     0.39408    0.00088     0.39496
      H   30    0.10648      0.00000     0.39276    0.00077     0.39352
 =======================================================================
   * Total *    0.00000     17.99410    37.80552    0.20039    56.00000

 Normal termination of Gaussian 16 at Thu Dec 10 10:43:51 2020.
