 Gaussian 16, Revision A.03,

 -----------------------------------------------------------
 # opt freq B3LYP/6-31G(d) empiricaldispersion=gd3bj scf=xqc
 -----------------------------------------------------------

 -----------------------------
 CID_65953743_JID_603_neutraal
 -----------------------------
 Symbolic Z-matrix:
 Charge =  0 Multiplicity = 1

 SCF Done:  E(RB3LYP) =  -461.067232947     A.U. after   13 cycles
 SCF Done:  E(RB3LYP) =  -461.073005860     A.U. after   11 cycles
 SCF Done:  E(RB3LYP) =  -461.073668228     A.U. after   10 cycles
 SCF Done:  E(RB3LYP) =  -461.073936984     A.U. after   10 cycles
 SCF Done:  E(RB3LYP) =  -461.074191364     A.U. after   11 cycles
 SCF Done:  E(RB3LYP) =  -461.074373285     A.U. after   10 cycles
 SCF Done:  E(RB3LYP) =  -461.074454778     A.U. after   10 cycles
 SCF Done:  E(RB3LYP) =  -461.074607082     A.U. after   11 cycles
 SCF Done:  E(RB3LYP) =  -461.074390447     A.U. after   13 cycles
 SCF Done:  E(RB3LYP) =  -461.075211478     A.U. after   13 cycles
 SCF Done:  E(RB3LYP) =  -461.075654738     A.U. after    8 cycles
 SCF Done:  E(RB3LYP) =  -461.075655362     A.U. after    8 cycles
 SCF Done:  E(RB3LYP) =  -461.075655651     A.U. after    7 cycles
 SCF Done:  E(RB3LYP) =  -461.075655781     A.U. after    7 cycles
 SCF Done:  E(RB3LYP) =  -461.075655885     A.U. after    7 cycles
 SCF Done:  E(RB3LYP) =  -461.075655924     A.U. after    6 cycles
 Optimization completed.
    -- Stationary point found.
 Normal termination of Gaussian 16 at Tue Dec  8 12:26:38 2020.

 --------------------------------------------------------------------
 #N Geom=AllCheck Guess=TCheck SCRF=Check GenChk RB3LYP/6-31G(d) Freq
 --------------------------------------------------------------------

 Structure from the checkpoint file:  "JID_603.chk"
 -----------------------------
 CID_65953743_JID_603_neutraal
 -----------------------------
 Charge =  0 Multiplicity = 1

 SCF Done:  E(RB3LYP) =  -461.075655924     A.U. after    1 cycles

  Exact polarizability: 108.871  -3.211  79.056   2.448   0.693  83.174
 Approx polarizability: 123.892  -5.125 114.407   1.717   0.725 124.334

                      1                      2                      3
                      A                      A                      A
 Frequencies --     25.4949                58.2168                82.2614
 Red. masses --      2.7039                 3.6175                 2.5519
 Frc consts  --      0.0010                 0.0072                 0.0102
 IR Inten    --      1.4973                 0.3218                 0.8896

                      4                      5                      6
                      A                      A                      A
 Frequencies --    101.3253               177.8398               194.4870
 Red. masses --      1.5841                 2.1867                 1.5829
 Frc consts  --      0.0096                 0.0407                 0.0353
 IR Inten    --      0.7819                 1.5614                12.8831

                      7                      8                      9
                      A                      A                      A
 Frequencies --    200.6049               264.4451               296.5235
 Red. masses --      1.3784                 1.4829                 1.3420
 Frc consts  --      0.0327                 0.0611                 0.0695
 IR Inten    --     16.6956                 0.2717                 0.4223

                     10                     11                     12
                      A                      A                      A
 Frequencies --    309.2899               343.7428               365.0691
 Red. masses --      3.2669                 2.0122                 2.4698
 Frc consts  --      0.1841                 0.1401                 0.1939
 IR Inten    --     13.3176                11.7573                 2.6190

                     13                     14                     15
                      A                      A                      A
 Frequencies --    396.2470               443.5936               460.1863
 Red. masses --      3.1408                 2.2386                 2.3152
 Frc consts  --      0.2906                 0.2595                 0.2889
 IR Inten    --      5.7006                 3.4309                 5.3870

                     16                     17                     18
                      A                      A                      A
 Frequencies --    477.5427               633.3320               774.0270
 Red. masses --      2.9195                 4.0598                 3.0316
 Frc consts  --      0.3923                 0.9594                 1.0701
 IR Inten    --      7.4649                 2.5234                 6.4384

                     19                     20                     21
                      A                      A                      A
 Frequencies --    781.4499               893.8625               907.5818
 Red. masses --      1.1869                 2.3474                 2.0520
 Frc consts  --      0.4270                 1.1050                 0.9959
 IR Inten    --      2.0937                 8.3834                 0.9357

                     22                     23                     24
                      A                      A                      A
 Frequencies --    927.7331               960.5982               972.3862
 Red. masses --      1.3788                 3.9894                 1.3504
 Frc consts  --      0.6992                 2.1689                 0.7523
 IR Inten    --    150.4545                22.2769                 0.8761

                     25                     26                     27
                      A                      A                      A
 Frequencies --    975.7499               994.5142              1028.0895
 Red. masses --      2.5413                 1.7458                 2.6425
 Frc consts  --      1.4255                 1.0173                 1.6456
 IR Inten    --      1.3339                 3.8711                16.2394

                     28                     29                     30
                      A                      A                      A
 Frequencies --   1030.9844              1113.7942              1134.8729
 Red. masses --      3.8555                 1.4213                 2.1782
 Frc consts  --      2.4146                 1.0388                 1.6529
 IR Inten    --      5.1008                 0.2352                94.6757

                     31                     32                     33
                      A                      A                      A
 Frequencies --   1150.0541              1179.5205              1188.6506
 Red. masses --      1.1403                 1.5048                 1.3739
 Frc consts  --      0.8886                 1.2335                 1.1437
 IR Inten    --     13.0690                 1.9737                 9.5665

                     34                     35                     36
                      A                      A                      A
 Frequencies --   1198.3076              1204.6869              1240.6250
 Red. masses --      2.4524                 2.5124                 1.7034
 Frc consts  --      2.0748                 2.1483                 1.5447
 IR Inten    --      1.7335                51.3237                26.5413

                     37                     38                     39
                      A                      A                      A
 Frequencies --   1282.6777              1291.2331              1309.2410
 Red. masses --      2.3127                 1.3436                 4.0256
 Frc consts  --      2.2418                 1.3199                 4.0655
 IR Inten    --     28.2819                 4.2303                79.6844

                     40                     41                     42
                      A                      A                      A
 Frequencies --   1323.7539              1340.2987              1359.1392
 Red. masses --      1.4280                 1.4693                 1.2645
 Frc consts  --      1.4743                 1.5551                 1.3762
 IR Inten    --      6.1625                 6.8475                 5.7609

                     43                     44                     45
                      A                      A                      A
 Frequencies --   1376.0355              1376.8886              1431.8449
 Red. masses --      1.7869                 1.3007                 1.2649
 Frc consts  --      1.9934                 1.4529                 1.5279
 IR Inten    --      4.4059                 1.3949                 6.7790

                     46                     47                     48
                      A                      A                      A
 Frequencies --   1443.6505              1500.2990              1505.8354
 Red. masses --      1.3190                 1.1122                 1.0948
 Frc consts  --      1.6197                 1.4749                 1.4627
 IR Inten    --      1.6288                 2.2782                 0.1825

                     49                     50                     51
                      A                      A                      A
 Frequencies --   1517.8085              1520.8077              1526.4885
 Red. masses --      1.0587                 1.0692                 1.0630
 Frc consts  --      1.4371                 1.4569                 1.4594
 IR Inten    --      1.2308                 4.4007                 0.6123

                     52                     53                     54
                      A                      A                      A
 Frequencies --   1530.2657              1535.7704              1541.6469
 Red. masses --      1.0822                 1.0723                 1.0676
 Frc consts  --      1.4932                 1.4901                 1.4950
 IR Inten    --      2.1203                 4.4623                10.7922

                     55                     56                     57
                      A                      A                      A
 Frequencies --   1557.4866              1691.5494              2991.4127
 Red. masses --      1.1176                 1.0956                 1.0418
 Frc consts  --      1.5973                 1.8470                 5.4930
 IR Inten    --     10.8144                20.8982                49.9949

                     58                     59                     60
                      A                      A                      A
 Frequencies --   3002.7685              3012.2360              3021.6699
 Red. masses --      1.0626                 1.0554                 1.0583
 Frc consts  --      5.6453                 5.6423                 5.6932
 IR Inten    --      7.4650               100.0709                36.3165

                     61                     62                     63
                      A                      A                      A
 Frequencies --   3033.1614              3037.0584              3047.2601
 Red. masses --      1.0380                 1.0836                 1.0760
 Frc consts  --      5.6265                 5.8887                 5.8867
 IR Inten    --     37.4546                20.1680                80.8803

                     64                     65                     66
                      A                      A                      A
 Frequencies --   3059.7482              3062.7253              3080.2463
 Red. masses --      1.1079                 1.1086                 1.1008
 Frc consts  --      6.1111                 6.1268                 6.1536
 IR Inten    --     53.0142                64.1315                12.1634

                     67                     68                     69
                      A                      A                      A
 Frequencies --   3095.3553              3108.7100              3118.1656
 Red. masses --      1.1025                 1.0979                 1.1012
 Frc consts  --      6.2236                 6.2516                 6.3082
 IR Inten    --     37.0537                52.1045                26.4558

                     70                     71                     72
                      A                      A                      A
 Frequencies --   3132.8056              3434.5234              3517.5125
 Red. masses --      1.0969                 1.0493                 1.0914
 Frc consts  --      6.3431                 7.2929                 7.9564
 IR Inten    --     39.1325                 4.7116                 0.4373

 - Thermochemistry -
 -------------------
 Temperature   298.150 Kelvin.  Pressure   1.00000 Atm.
 Atom     1 has atomic number  6 and mass  12.00000

 Molecular mass:   144.12626 amu.
 Principal axes and moments of inertia in atomic units:
                           1         2         3
     Eigenvalues --   537.122193233.912433336.18942
           X            0.99995   0.00104   0.01014
           Y           -0.00113   0.99996   0.00890
           Z           -0.01013  -0.00891   0.99991
 This molecule is an asymmetric top.
 Rotational symmetry number  1.
 Warning -- assumption of classical behavior for rotation
           may cause significant error
 Rotational temperatures (Kelvin)      0.16126     0.02678     0.02596
 Rotational constants (GHZ):           3.36002     0.55807     0.54096
 Zero-point vibrational energy     617307.6 (Joules/Mol)
                                  147.54006 (Kcal/Mol)
 Warning -- explicit consideration of  16 degrees of freedom as
           vibrations may cause significant error
 Vibrational temperatures:     36.68    83.76   118.36   145.78   255.87
          (Kelvin)            279.82   288.63   380.48   426.63   445.00
                              494.57   525.25   570.11   638.23   662.11
                              687.08   911.22  1113.65  1124.33  1286.07
                             1305.81  1334.80  1382.09  1399.05  1403.89
                             1430.88  1479.19  1483.36  1602.50  1632.83
                             1654.67  1697.07  1710.20  1724.10  1733.28
                             1784.98  1845.49  1857.80  1883.71  1904.59
                             1928.39  1955.50  1979.81  1981.04  2060.11
                             2077.09  2158.60  2166.56  2183.79  2188.10
                             2196.28  2201.71  2209.63  2218.09  2240.88
                             2433.76  4303.98  4320.31  4333.94  4347.51
                             4364.04  4369.65  4384.33  4402.30  4406.58
                             4431.79  4453.53  4472.74  4486.34  4507.41
                             4941.51  5060.92

 Zero-point correction=                           0.235120 (Hartree/Particle)
 Thermal correction to Energy=                    0.246956
 Thermal correction to Enthalpy=                  0.247900
 Thermal correction to Gibbs Free Energy=         0.196552
 Sum of electronic and zero-point Energies=           -460.840536
 Sum of electronic and thermal Energies=              -460.828700
 Sum of electronic and thermal Enthalpies=            -460.827756
 Sum of electronic and thermal Free Energies=         -460.879104

                     E (Thermal)             CV                S
                      KCal/Mol        Cal/Mol-Kelvin    Cal/Mol-Kelvin
 Total                  154.967             42.884            108.072
 Electronic               0.000              0.000              0.000
 Translational            0.889              2.981             40.808
 Rotational               0.889              2.981             30.139
 Vibrational            153.190             36.923             37.125
 Vibration     1          0.593              1.985              6.152
 Vibration     2          0.596              1.974              4.517
 Vibration     3          0.600              1.961              3.836
 Vibration     4          0.604              1.948              3.429
 Vibration     5          0.628              1.870              2.351
 Vibration     6          0.635              1.848              2.185
 Vibration     7          0.638              1.839              2.128
 Vibration     8          0.671              1.738              1.632
 Vibration     9          0.690              1.680              1.436
 Vibration    10          0.699              1.656              1.366
 Vibration    11          0.722              1.588              1.195
 Vibration    12          0.738              1.544              1.100
 Vibration    13          0.763              1.478              0.977
 Vibration    14          0.803              1.375              0.815
 Vibration    15          0.818              1.338              0.766
 Vibration    16          0.834              1.300              0.717

 Optimization completed.
    -- Stationary point found.
 Normal termination of Gaussian 16 at Tue Dec  8 12:32:31 2020.

 ----------------------------------------------------------------------
 # B3LYP/6-311++G(d,p) empiricaldispersion=gd3bj scf=xqc pop=npa geom=c
 heck
 ----------------------------------------------------------------------

 -------------------------------------
 CID_65953743_JID_603_Energie_neutraal
 -------------------------------------
 Structure from the checkpoint file:  "JID_603.chk"
 Charge =  0 Multiplicity = 1

 SCF Done:  E(RB3LYP) =  -461.216281350     A.U. after   13 cycles
 Normal termination of Gaussian 16 at Tue Dec  8 12:41:30 2020.

 ----------------------------------------------------------------------
 # B3LYP/6-311++G(d,p) empiricaldispersion=gd3bj scf=xqc pop=npa geom=c
 heck
 ----------------------------------------------------------------------

 -----------------------------------
 CID_65953743_JID_603_Energie_kation
 -----------------------------------
 Structure from the checkpoint file:  "JID_603.chk"
 Charge =  1 Multiplicity = 2

 SCF Done:  E(UB3LYP) =  -460.933608065     A.U. after   19 cycles
 Normal termination of Gaussian 16 at Tue Dec  8 12:49:40 2020.
 Gaussian 16:  ES64L-G16RevA.03 25-Dec-2016

 ----------------------------------------------------------------------
 # B3LYP/6-311++G(d,p) empiricaldispersion=gd3bj scf=xqc pop=npa geom=c
 heck
 ----------------------------------------------------------------------

 ----------------------------------
 CID_65953743_JID_603_Energie_anion
 ----------------------------------
 Structure from the checkpoint file:  "JID_603.chk"
 Charge = -1 Multiplicity = 2

                         Standard orientation:
 ---------------------------------------------------------------------
 Center     Atomic      Atomic             Coordinates (Angstroms)
 Number     Number       Type             X           Y           Z
 ---------------------------------------------------------------------
      1          6           0       -3.297200   -0.805921    0.216285
      2          6           0       -2.143621    0.185577    0.066413
      3          6           0       -0.959182   -0.115807    1.025383
      4          7           0       -0.304295   -0.850800   -0.071889
      5          6           0       -1.162946   -0.196029   -1.076241
      6          6           0        1.139390   -0.888112   -0.206102
      7          6           0        1.851049    0.466381   -0.378604
      8          8           0        3.254246    0.312425   -0.541078
      9          6           0        3.951755    0.119880    0.671437
     10          7           0       -2.540405    1.592939    0.050801
     11          1           0       -4.010154   -0.700444   -0.611565
     12          1           0       -3.839245   -0.632575    1.154902
     13          1           0       -2.927242   -1.837001    0.220039
     14          1           0       -0.460343    0.816971    1.325858
     15          1           0       -1.165139   -0.723300    1.916952
     16          1           0       -1.530992   -0.867730   -1.863116
     17          1           0       -0.739065    0.707956   -1.536429
     18          1           0        1.536525   -1.400858    0.679155
     19          1           0        1.391915   -1.514512   -1.071086
     20          1           0        1.500191    0.963839   -1.287921
     21          1           0        1.635743    1.135272    0.469457
     22          1           0        3.774575    0.950188    1.374346
     23          1           0        3.682420   -0.820538    1.175076
     24          1           0        5.016186    0.087637    0.423903
     25          1           0       -3.204068    1.742747   -0.710828
     26          1           0       -3.057845    1.802174    0.906074
 ---------------------------------------------------------------------

 SCF Done:  E(UB3LYP) =  -461.201746068     A.U. after   27 cycles

 The electronic state is 2-A.
 Alpha  occ. eigenvalues --  -19.03051 -14.19868 -14.18554 -10.11633 -10.11423
 Alpha  occ. eigenvalues --  -10.10303 -10.09173 -10.08520 -10.08318 -10.05111
 Alpha  occ. eigenvalues --   -0.94146  -0.84504  -0.77328  -0.67409  -0.62510
 Alpha  occ. eigenvalues --   -0.59494  -0.57597  -0.54227  -0.48850  -0.42992
 Alpha  occ. eigenvalues --   -0.40643  -0.39801  -0.38077  -0.37868  -0.37009
 Alpha  occ. eigenvalues --   -0.34514  -0.33424  -0.31153  -0.30271  -0.29526
 Alpha  occ. eigenvalues --   -0.29021  -0.28150  -0.26579  -0.24301  -0.22473
 Alpha  occ. eigenvalues --   -0.22108  -0.20491  -0.17675  -0.14188  -0.10801
 Alpha  occ. eigenvalues --    0.04509
 Alpha virt. eigenvalues --    0.06166   0.08347   0.08393   0.09103   0.09487
 Alpha virt. eigenvalues --    0.09526   0.10891   0.11326   0.11529   0.12117
 Alpha virt. eigenvalues --    0.12638   0.13629   0.13681   0.14449   0.15105

  Beta  occ. eigenvalues --  -19.03044 -14.19863 -14.18504 -10.11596 -10.11414
  Beta  occ. eigenvalues --  -10.10302 -10.09164 -10.08501 -10.08295 -10.05067
  Beta  occ. eigenvalues --   -0.94131  -0.84484  -0.77251  -0.67376  -0.62459
  Beta  occ. eigenvalues --   -0.59433  -0.57555  -0.54171  -0.48796  -0.42924
  Beta  occ. eigenvalues --   -0.40605  -0.39776  -0.38042  -0.37823  -0.36964
  Beta  occ. eigenvalues --   -0.34480  -0.33390  -0.31119  -0.30237  -0.29487
  Beta  occ. eigenvalues --   -0.28987  -0.28109  -0.26550  -0.24276  -0.22436
  Beta  occ. eigenvalues --   -0.22078  -0.20459  -0.17654  -0.14138  -0.10781
  Beta virt. eigenvalues --    0.06758   0.07404   0.08808   0.08993   0.09626
  Beta virt. eigenvalues --    0.10094   0.10240   0.11255   0.11690   0.11943
  Beta virt. eigenvalues --    0.12504   0.13032   0.13764   0.13951   0.14752

 Mulliken charges and spin densities:
               1          2
     1  C    2.333513  -2.708321
     2  C   -1.452400   1.470517
     3  C    0.546724  -1.001799
     4  N    0.051667  -0.001350
     5  C    0.154531  -0.607263
     6  C   -0.398521   0.141679
     7  C   -0.106153  -0.225674
     8  O   -0.192611   0.044661
     9  C    0.761677  -1.016636
    10  N   -0.362240   0.130453
    11  H   -0.369315   0.507760
    12  H   -0.325686   0.463902
    13  H   -0.066466   0.229283
    14  H   -0.194338   0.296080
    15  H   -0.452392   0.627430
    16  H   -0.264549   0.434685
    17  H   -0.037224   0.139116
    18  H    0.049759   0.099809
    19  H    0.078767   0.077078
    20  H    0.127010   0.043026
    21  H    0.314740  -0.178843
    22  H   -0.339724   0.457738
    23  H   -0.265656   0.388270
    24  H   -0.164261   0.313613
    25  H   -0.237869   0.460553
    26  H   -0.188982   0.414232
 Sum of Mulliken charges =  -1.00000   1.00000

 Dipole moment (field-independent basis, Debye):
    X=              3.5375    Y=             -1.3147    Z=             -1.9707  Tot=              4.2574
 Quadrupole moment (field-independent basis, Debye-Ang):
   XX=           -149.6747   YY=            -96.6231   ZZ=            -98.6256
   XY=              4.2739   XZ=             -2.7463   YZ=              0.2293

 Summary of Natural Population Analysis:

                                       Natural Population
                Natural  -----------------------------------------------
    Atom  No    Charge         Core      Valence    Rydberg      Total
 -----------------------------------------------------------------------
      C    1   -0.29059      0.99961     2.28399    0.00699     3.29059
      C    2    0.04359      0.99956     1.94202    0.01483     2.95641
      C    3   -0.07603      0.99958     2.06507    0.01138     3.07603
      N    4   -0.28290      0.99974     2.77001    0.01316     3.78290
      C    5   -0.07633      0.99958     2.06598    0.01076     3.07633
      C    6   -0.09432      0.99961     2.08369    0.01102     3.09432
      C    7   -0.01643      0.99958     2.00682    0.01003     3.01643
      O    8   -0.30031      0.99989     3.29008    0.01035     4.30031
      C    9   -0.09875      0.99962     2.08923    0.00990     3.09875
      N   10   -0.42313      0.99975     2.91245    0.01093     3.92313
      H   11    0.09975      0.00000     0.39832    0.00193     0.40025
      H   12    0.10023      0.00000     0.39788    0.00188     0.39977
      H   13    0.10246      0.00000     0.39580    0.00174     0.39754
      H   14    0.08928      0.00000     0.40885    0.00188     0.41072
      H   15    0.09081      0.00000     0.40760    0.00159     0.40919
      H   16    0.08965      0.00000     0.40912    0.00123     0.41035
      H   17    0.08829      0.00000     0.41000    0.00171     0.41171
      H   18    0.09391      0.00000     0.40457    0.00152     0.40609
      H   19    0.09384      0.00000     0.40485    0.00131     0.40616
      H   20    0.08790      0.00000     0.41046    0.00164     0.41210
      H   21    0.07949      0.00000     0.41882    0.00169     0.42051
      H   22    0.07873      0.00000     0.41967    0.00160     0.42127
      H   23    0.07908      0.00000     0.41923    0.00169     0.42092
      H   24    0.08900      0.00000     0.40984    0.00116     0.41100
      H   25    0.17614      0.00000     0.32046    0.00340     0.32386
      H   26    0.17666      0.00000     0.31995    0.00339     0.32334
 =======================================================================
   * Total *   -0.00000      9.99652    29.86476    0.13873    40.00000

 Normal termination of Gaussian 16 at Tue Dec  8 13:04:02 2020.
