 Gaussian 16, Revision A.03,

 -----------------------------------------------------------
 # opt freq B3LYP/6-31G(d) empiricaldispersion=gd3bj scf=xqc
 -----------------------------------------------------------

 ------------------------------
 CID_137154023_JID_153_neutraal
 ------------------------------
 Symbolic Z-matrix:
 Charge =  0 Multiplicity = 1

 SCF Done:  E(RB3LYP) =  -524.277485030     A.U. after   15 cycles
 SCF Done:  E(RB3LYP) =  -524.283667633     A.U. after   13 cycles
 SCF Done:  E(RB3LYP) =  -524.285010938     A.U. after   13 cycles
 SCF Done:  E(RB3LYP) =  -524.285197664     A.U. after   12 cycles
 SCF Done:  E(RB3LYP) =  -524.285214736     A.U. after   12 cycles
 SCF Done:  E(RB3LYP) =  -524.285231688     A.U. after   11 cycles
 SCF Done:  E(RB3LYP) =  -524.285236322     A.U. after   10 cycles
 Optimization completed.
    -- Stationary point found.
 Normal termination of Gaussian 16 at Sun Dec 13 12:14:30 2020.

 --------------------------------------------------------------------
 #N Geom=AllCheck Guess=TCheck SCRF=Check GenChk RB3LYP/6-31G(d) Freq
 --------------------------------------------------------------------

 Structure from the checkpoint file:  "JID_153.chk"
 ------------------------------
 CID_137154023_JID_153_neutraal
 ------------------------------
 Charge =  0 Multiplicity = 1

 SCF Done:  E(RB3LYP) =  -524.285236322     A.U. after    1 cycles

  Exact polarizability: 117.001  -2.890  77.423  -0.071  -0.056  28.417
 Approx polarizability: 187.440 -18.873 139.192  -0.275  -0.244  43.920

 ******    1 imaginary frequencies (negative Signs) ******

                      1                      2                      3
                      A                      A                      A
 Frequencies --    -18.7320               108.2353               144.1563
 Red. masses --      9.8354                 8.4181                 9.4037
 Frc consts  --      0.0020                 0.0581                 0.1151
 IR Inten    --      6.1615                 0.0047                 0.9438

                      4                      5                      6
                      A                      A                      A
 Frequencies --    226.5614               301.6671               363.0285
 Red. masses --      6.3754                 5.5628                12.4039
 Frc consts  --      0.1928                 0.2983                 0.9631
 IR Inten    --      1.4881                 2.2012                10.1194

                      7                      8                      9
                      A                      A                      A
 Frequencies --    392.1405               418.4271               533.0846
 Red. masses --      2.9023                10.0449                 7.1645
 Frc consts  --      0.2629                 1.0362                 1.1996
 IR Inten    --     31.0213                19.4743                31.4657

                     10                     11                     12
                      A                      A                      A
 Frequencies --    542.8511               608.4650               660.6300
 Red. masses --      9.2658                 1.1677                 5.6464
 Frc consts  --      1.6088                 0.2547                 1.4519
 IR Inten    --      3.3686                44.9989                21.0238

                     13                     14                     15
                      A                      A                      A
 Frequencies --    691.4358               749.2762               763.5453
 Red. masses --      1.1787                 8.6771                 5.5438
 Frc consts  --      0.3320                 2.8702                 1.9042
 IR Inten    --     84.9953                56.5136                45.4978

                     16                     17                     18
                      A                      A                      A
 Frequencies --    783.4094               796.4007               936.9996
 Red. masses --      5.9330                 6.8972                 1.2412
 Frc consts  --      2.1454                 2.5774                 0.6420
 IR Inten    --     14.3519                 4.4053                13.2858

                     19                     20                     21
                      A                      A                      A
 Frequencies --    971.8476               993.2299              1132.3525
 Red. masses --      3.0028                 1.4195                 4.2356
 Frc consts  --      1.6710                 0.8251                 3.1998
 IR Inten    --     13.4119                27.4625                 0.7169

                     22                     23                     24
                      A                      A                      A
 Frequencies --   1197.5481              1252.6848              1339.7496
 Red. masses --      1.7532                 3.4054                 2.6865
 Frc consts  --      1.4814                 3.1485                 2.8411
 IR Inten    --     91.8075                19.7562               188.3433

                     25                     26                     27
                      A                      A                      A
 Frequencies --   1408.5992              1427.2144              1506.7077
 Red. masses --      1.8130                 2.7165                 1.5625
 Frc consts  --      2.1195                 3.2601                 2.0900
 IR Inten    --     65.9389                67.9810                21.1985

                     28                     29                     30
                      A                      A                      A
 Frequencies --   1531.5747              1585.7516              1668.9250
 Red. masses --      2.2569                 6.5325                 6.5812
 Frc consts  --      3.1192                 9.6783                10.8001
 IR Inten    --    122.1568               115.4687                91.6185

                     31                     32                     33
                      A                      A                      A
 Frequencies --   1824.1648              1853.1030              3238.5254
 Red. masses --      9.5600                 8.7685                 1.0927
 Frc consts  --     18.7428                17.7408                 6.7522
 IR Inten    --    522.0089               596.7943                 1.3514

                     34                     35                     36
                      A                      A                      A
 Frequencies --   3309.1538              3605.5886              3625.5584
 Red. masses --      1.0753                 1.0774                 1.0788
 Frc consts  --      6.9377                 8.2525                 8.3547
 IR Inten    --     10.0514                67.4011               100.7877

 - Thermochemistry -
 -------------------
 Temperature   298.150 Kelvin.  Pressure   1.00000 Atm.
 Atom     1 has atomic number  6 and mass  12.00000

 Molecular mass:   140.03343 amu.
 Principal axes and moments of inertia in atomic units:
                           1         2         3
     Eigenvalues --   681.615451714.033682395.57735
           X            0.99987   0.01601   0.00001
           Y           -0.01601   0.99987   0.00030
           Z           -0.00000  -0.00030   1.00000
 This molecule is an asymmetric top.
 Rotational symmetry number  1.
 Warning -- assumption of classical behavior for rotation
           may cause significant error
 Rotational temperatures (Kelvin)      0.12707     0.05053     0.03616
 Rotational constants (GHZ):           2.64774     1.05292     0.75336
    1 imaginary frequencies ignored.
 Zero-point vibrational energy     254162.1 (Joules/Mol)
                                   60.74621 (Kcal/Mol)
 Warning -- explicit consideration of  10 degrees of freedom as
           vibrations may cause significant error
 Vibrational temperatures:    155.73   207.41   325.97   434.03   522.32
          (Kelvin)            564.20   602.02   766.99   781.04   875.45
                              950.50   994.82  1078.04  1098.57  1127.15
                             1145.84  1348.13  1398.27  1429.04  1629.20
                             1723.00  1802.33  1927.60  2026.66  2053.44
                             2167.82  2203.59  2281.54  2401.21  2624.57
                             2666.20  4659.52  4761.13  5187.64  5216.37

 Zero-point correction=                           0.096805 (Hartree/Particle)
 Thermal correction to Energy=                    0.104266
 Thermal correction to Enthalpy=                  0.105211
 Thermal correction to Gibbs Free Energy=         0.064246
 Sum of electronic and zero-point Energies=           -524.188431
 Sum of electronic and thermal Energies=              -524.180970
 Sum of electronic and thermal Enthalpies=            -524.180026
 Sum of electronic and thermal Free Energies=         -524.220991

                     E (Thermal)             CV                S
                      KCal/Mol        Cal/Mol-Kelvin    Cal/Mol-Kelvin
 Total                   65.428             28.121             86.218
 Electronic               0.000              0.000              0.000
 Translational            0.889              2.981             40.722
 Rotational               0.889              2.981             29.416
 Vibrational             63.651             22.160             16.080
 Vibration     1          0.606              1.943              3.300
 Vibration     2          0.616              1.909              2.748
 Vibration     3          0.650              1.801              1.906
 Vibration     4          0.694              1.671              1.408
 Vibration     5          0.737              1.548              1.109
 Vibration     6          0.760              1.487              0.992
 Vibration     7          0.781              1.430              0.897
 Vibration     8          0.888              1.177              0.580
 Vibration     9          0.898              1.155              0.559
 Vibration    10          0.967              1.014              0.435

                           ! Non-Optimized Parameters !
 Normal termination of Gaussian 16 at Sun Dec 13 12:16:29 2020.

 ----------------------------------------------------------------------
 # B3LYP/6-311++G(d,p) empiricaldispersion=gd3bj scf=xqc pop=npa geom=c
 heck
 ----------------------------------------------------------------------

 --------------------------------------
 CID_137154023_JID_153_Energie_neutraal
 --------------------------------------
 Structure from the checkpoint file:  "JID_153.chk"
 Charge =  0 Multiplicity = 1

 SCF Done:  E(RB3LYP) =  -524.446228247     A.U. after   15 cycles
 Normal termination of Gaussian 16 at Sun Dec 13 12:17:12 2020.

 ----------------------------------------------------------------------
 # B3LYP/6-311++G(d,p) empiricaldispersion=gd3bj scf=xqc pop=npa geom=c
 heck
 ----------------------------------------------------------------------

 ------------------------------------
 CID_137154023_JID_153_Energie_kation
 ------------------------------------
 Structure from the checkpoint file:  "JID_153.chk"
 Charge =  1 Multiplicity = 2

 SCF Done:  E(UB3LYP) =  -524.103514541     A.U. after   33 cycles
 SCF Done:  E(UB3LYP) =  -524.104998929     a.u. after   10 cycles
 Normal termination of Gaussian 16 at Sun Dec 13 12:30:27 2020.
 Gaussian 16:  ES64L-G16RevA.03 25-Dec-2016

 ----------------------------------------------------------------------
 # B3LYP/6-311++G(d,p) empiricaldispersion=gd3bj scf=xqc pop=npa geom=c
 heck
 ----------------------------------------------------------------------

 -----------------------------------
 CID_137154023_JID_153_Energie_anion
 -----------------------------------
 Structure from the checkpoint file:  "JID_153.chk"
 Charge = -1 Multiplicity = 2

                         Standard orientation:
 ---------------------------------------------------------------------
 Center     Atomic      Atomic             Coordinates (Angstroms)
 Number     Number       Type             X           Y           Z
 ---------------------------------------------------------------------
      1          6           0       -0.314270   -1.266730   -0.006586
      2          6           0       -0.951085   -0.063460   -0.004510
      3          6           0       -0.161064    1.175260   -0.000864
      4          8           0       -0.584824    2.313407   -0.000446
      5          7           0        1.234961    0.935654    0.004030
      6          6           0        1.908476   -0.269169    0.001996
      7          8           0        3.116540   -0.394286    0.004477
      8          7           0        1.041428   -1.371526   -0.004198
      9          7           0       -2.359602    0.087115   -0.014033
     10          7           0       -2.999856   -0.991583    0.019651
     11          1           0       -0.885545   -2.188572   -0.011229
     12          1           0        1.819741    1.763812    0.007811
     13          1           0        1.499156   -2.273686   -0.009435
     14          1           0       -3.997947   -0.727540    0.002236
 ---------------------------------------------------------------------

 SCF Done:  E(UB3LYP) =  -524.483565679     A.U. after   22 cycles

 The electronic state is 2-A.
 Alpha  occ. eigenvalues --  -18.96834 -18.94937 -14.22864 -14.22318 -14.16277
 Alpha  occ. eigenvalues --  -14.14237 -10.17844 -10.13568 -10.04773 -10.02970
 Alpha  occ. eigenvalues --   -0.94114  -0.90211  -0.83775  -0.82852  -0.78329
 Alpha  occ. eigenvalues --   -0.63778  -0.54750  -0.51781  -0.50671  -0.40922
 Alpha  occ. eigenvalues --   -0.39805  -0.36807  -0.33911  -0.32470  -0.30476
 Alpha  occ. eigenvalues --   -0.29036  -0.26650  -0.25886  -0.23817  -0.22732
 Alpha  occ. eigenvalues --   -0.20398  -0.16480  -0.15302  -0.12303  -0.08718
 Alpha  occ. eigenvalues --   -0.05025   0.03298
 Alpha virt. eigenvalues --    0.09474   0.11230   0.11928   0.12607   0.14224
 Alpha virt. eigenvalues --    0.15472   0.15924   0.16103   0.16282   0.18697
 Alpha virt. eigenvalues --    0.20395   0.20773   0.20922   0.21377   0.21700

  Beta  occ. eigenvalues --  -18.96749 -18.94941 -14.22803 -14.22269 -14.15908
  Beta  occ. eigenvalues --  -14.13667 -10.17774 -10.13567 -10.04129 -10.03006
  Beta  occ. eigenvalues --   -0.93941  -0.90184  -0.83150  -0.82258  -0.78145
  Beta  occ. eigenvalues --   -0.63197  -0.53935  -0.51522  -0.50108  -0.40712
  Beta  occ. eigenvalues --   -0.39420  -0.36581  -0.33330  -0.32310  -0.30185
  Beta  occ. eigenvalues --   -0.28780  -0.26245  -0.25639  -0.22067  -0.21833
  Beta  occ. eigenvalues --   -0.18394  -0.16382  -0.15012  -0.12278  -0.06906
  Beta  occ. eigenvalues --   -0.04390
  Beta virt. eigenvalues --    0.09444   0.10770   0.11218   0.11936   0.13947
  Beta virt. eigenvalues --    0.14202   0.15795   0.15913   0.16259   0.17472
  Beta virt. eigenvalues --    0.18682   0.20717   0.20789   0.20914   0.21518

 Mulliken charges and spin densities:
               1          2
     1  C   -0.154595   0.566331
     2  C   -0.169498  -0.063227
     3  C    0.257126  -0.005528
     4  O   -0.384492  -0.002790
     5  N   -0.414574   0.019299
     6  C    0.305491   0.041819
     7  O   -0.433785   0.030217
     8  N   -0.355225  -0.006714
     9  N   -0.261563   0.128901
    10  N   -0.332197   0.354404
    11  H    0.113266  -0.050565
    12  H    0.324516  -0.001295
    13  H    0.295730  -0.000446
    14  H    0.209800  -0.010406
 Sum of Mulliken charges =  -1.00000   1.00000

 Dipole moment (field-independent basis, Debye):
    X=              3.5955    Y=             -1.7840    Z=             -0.0344  Tot=              4.0139
 Quadrupole moment (field-independent basis, Debye-Ang):
   XX=            -93.9342   YY=            -70.6699   ZZ=            -62.1134
   XY=              1.0069   XZ=              0.0564   YZ=              0.1719

 Summary of Natural Population Analysis:

                                       Natural Population
                Natural  -----------------------------------------------
    Atom  No    Charge         Core      Valence    Rydberg      Total
 -----------------------------------------------------------------------
      C    1    0.16051      0.99954     1.82804    0.01190     2.83949
      C    2   -0.04805      0.99944     2.03299    0.01562     3.04805
      C    3    0.32282      0.99963     1.65313    0.02442     2.67718
      O    4   -0.32366      0.99987     3.31682    0.00697     4.32366
      N    5   -0.32276      0.99965     2.81509    0.00803     3.82276
      C    6    0.41164      0.99973     1.56664    0.02200     2.58836
      O    7   -0.33602      0.99987     3.32987    0.00628     4.33602
      N    8   -0.28987      0.99967     2.78325    0.00695     3.78987
      N    9   -0.06428      0.99974     2.54070    0.02384     3.56428
      N   10   -0.13359      0.99978     2.61708    0.01674     3.63359
      H   11    0.09820      0.00000     0.39808    0.00372     0.40180
      H   12    0.19682      0.00000     0.30040    0.00278     0.30318
      H   13    0.19372      0.00000     0.30415    0.00213     0.30628
      H   14    0.13452      0.00000     0.36238    0.00310     0.36548
 =======================================================================
   * Total *   -0.00000      9.99691    25.84862    0.15447    36.00000

 Normal termination of Gaussian 16 at Sun Dec 13 12:31:52 2020.
