 Gaussian 16, Revision A.03,

 -----------------------------------------------------------
 # opt freq B3LYP/6-31G(d) empiricaldispersion=gd3bj scf=xqc
 -----------------------------------------------------------

 ------------------------------
 CID_64866630_JID_3125_neutraal
 ------------------------------
 Symbolic Z-matrix:
 Charge =  0 Multiplicity = 1

 SCF Done:  E(RB3LYP) =  -558.171838083     A.U. after   13 cycles
 SCF Done:  E(RB3LYP) =  -558.175182308     A.U. after   12 cycles
 SCF Done:  E(RB3LYP) =  -558.174293551     A.U. after   12 cycles
 SCF Done:  E(RB3LYP) =  -558.175759356     A.U. after   11 cycles
 SCF Done:  E(RB3LYP) =  -558.176057695     A.U. after   11 cycles
 SCF Done:  E(RB3LYP) =  -558.176207758     A.U. after   11 cycles
 SCF Done:  E(RB3LYP) =  -558.176302870     A.U. after   11 cycles
 SCF Done:  E(RB3LYP) =  -558.176481499     A.U. after   13 cycles
 SCF Done:  E(RB3LYP) =  -558.176604882     A.U. after   12 cycles
 SCF Done:  E(RB3LYP) =  -558.176688405     A.U. after   11 cycles
 SCF Done:  E(RB3LYP) =  -558.176688768     A.U. after   12 cycles
 SCF Done:  E(RB3LYP) =  -558.176698634     A.U. after   12 cycles
 SCF Done:  E(RB3LYP) =  -558.176713860     A.U. after   11 cycles
 SCF Done:  E(RB3LYP) =  -558.176717977     A.U. after   10 cycles
 SCF Done:  E(RB3LYP) =  -558.176717995     A.U. after    7 cycles
 Optimization completed.
    -- Stationary point found.
 Normal termination of Gaussian 16 at Wed Dec  9 22:27:32 2020.

 --------------------------------------------------------------------
 #N Geom=AllCheck Guess=TCheck SCRF=Check GenChk RB3LYP/6-31G(d) Freq
 --------------------------------------------------------------------

 Structure from the checkpoint file:  "JID_3125.chk"
 ------------------------------
 CID_64866630_JID_3125_neutraal
 ------------------------------
 Charge =  0 Multiplicity = 1

 SCF Done:  E(RB3LYP) =  -558.176717995     A.U. after    1 cycles

  Exact polarizability: 141.732 -11.866 114.594 -18.397 -11.711  98.485
 Approx polarizability: 195.258 -27.887 179.804 -35.075 -28.281 161.650

                      1                      2                      3
                      A                      A                      A
 Frequencies --     26.9835                53.9100                56.6943
 Red. masses --      3.8351                 4.1578                 2.6460
 Frc consts  --      0.0016                 0.0071                 0.0050
 IR Inten    --      0.3271                 0.1417                 0.2759

                      4                      5                      6
                      A                      A                      A
 Frequencies --    113.0442               149.5956               172.2216
 Red. masses --      4.2426                 3.4484                 4.7159
 Frc consts  --      0.0319                 0.0455                 0.0824
 IR Inten    --      0.8130                 0.4249                 1.5589

                      7                      8                      9
                      A                      A                      A
 Frequencies --    275.4472               309.3549               334.6139
 Red. masses --      2.3429                 3.0669                 2.6333
 Frc consts  --      0.1047                 0.1729                 0.1737
 IR Inten    --      2.8307                 0.3834                 1.4992

                     10                     11                     12
                      A                      A                      A
 Frequencies --    354.1390               391.0166               414.6412
 Red. masses --      1.1284                 2.6516                 3.0711
 Frc consts  --      0.0834                 0.2389                 0.3111
 IR Inten    --    119.6447                 3.2036                 9.9346

                     13                     14                     15
                      A                      A                      A
 Frequencies --    425.4309               434.4216               476.8340
 Red. masses --      3.1455                 3.6186                 2.8376
 Frc consts  --      0.3354                 0.4024                 0.3801
 IR Inten    --      0.1203                 1.6449                 1.0132

                     16                     17                     18
                      A                      A                      A
 Frequencies --    526.3399               570.2981               659.0920
 Red. masses --      2.5628                 2.4494                 6.8240
 Frc consts  --      0.4183                 0.4694                 1.7465
 IR Inten    --     12.6727                 2.0872                 1.2023

                     19                     20                     21
                      A                      A                      A
 Frequencies --    709.8476               715.7135               734.9954
 Red. masses --      2.8193                 2.4151                 2.6633
 Frc consts  --      0.8370                 0.7289                 0.8477
 IR Inten    --     40.4316                24.2001                23.6440

                     22                     23                     24
                      A                      A                      A
 Frequencies --    773.6463               809.2587               809.9426
 Red. masses --      1.2418                 1.4394                 1.4225
 Frc consts  --      0.4379                 0.5554                 0.5498
 IR Inten    --     16.9547                21.2202                 9.5007

                     25                     26                     27
                      A                      A                      A
 Frequencies --    828.8987               847.9823               861.7095
 Red. masses --      1.3724                 1.9324                 3.0712
 Frc consts  --      0.5556                 0.8187                 1.3436
 IR Inten    --      0.3082                27.4059                25.9308

                     28                     29                     30
                      A                      A                      A
 Frequencies --    887.2732               936.1754               943.2286
 Red. masses --      2.1668                 1.3162                 2.8060
 Frc consts  --      1.0050                 0.6797                 1.4708
 IR Inten    --      0.1793                 1.2115                26.4909

                     31                     32                     33
                      A                      A                      A
 Frequencies --    962.2578               971.9861               987.8329
 Red. masses --      1.3714                 2.2934                 1.7575
 Frc consts  --      0.7482                 1.2766                 1.0105
 IR Inten    --      1.2114                 2.4219                12.1260

                     34                     35                     36
                      A                      A                      A
 Frequencies --   1036.7374              1055.6961              1057.6323
 Red. masses --      2.6207                 1.7578                 1.4728
 Frc consts  --      1.6596                 1.1543                 0.9707
 IR Inten    --      0.5138                20.4719                 6.4932

                     37                     38                     39
                      A                      A                      A
 Frequencies --   1079.9188              1133.3558              1139.2618
 Red. masses --      1.4276                 1.3236                 1.2512
 Frc consts  --      0.9809                 1.0017                 0.9568
 IR Inten    --      4.9774                 2.7783                13.9263

                     40                     41                     42
                      A                      A                      A
 Frequencies --   1143.0014              1182.7645              1209.0583
 Red. masses --      3.1219                 1.4006                 1.2879
 Frc consts  --      2.4031                 1.1544                 1.1092
 IR Inten    --     25.8719                10.9885                50.8781

                     43                     44                     45
                      A                      A                      A
 Frequencies --   1210.3930              1212.0094              1232.6389
 Red. masses --      1.3166                 1.2898                 2.3785
 Frc consts  --      1.1365                 1.1163                 2.1292
 IR Inten    --     51.9222                64.0437                16.2706

                     46                     47                     48
                      A                      A                      A
 Frequencies --   1243.7450              1258.6897              1309.9902
 Red. masses --      1.6745                 1.4819                 2.4039
 Frc consts  --      1.5261                 1.3833                 2.4305
 IR Inten    --      1.6831                16.9552                43.8562

                     49                     50                     51
                      A                      A                      A
 Frequencies --   1312.6243              1350.8710              1382.7038
 Red. masses --      2.2625                 1.7603                 1.6005
 Frc consts  --      2.2968                 1.8926                 1.8029
 IR Inten    --     66.3758                 9.7769                37.1289

                     52                     53                     54
                      A                      A                      A
 Frequencies --   1387.0859              1404.1760              1423.8729
 Red. masses --      1.9717                 1.2262                 1.3285
 Frc consts  --      2.2351                 1.4245                 1.5869
 IR Inten    --      4.7076                18.3895                 7.9120

                     55                     56                     57
                      A                      A                      A
 Frequencies --   1486.4343              1490.6938              1510.7545
 Red. masses --      2.3536                 1.0971                 1.1125
 Frc consts  --      3.0639                 1.4364                 1.4961
 IR Inten    --     26.1030                 0.3954                 5.9484

                     58                     59                     60
                      A                      A                      A
 Frequencies --   1514.1676              1521.8348              1544.1891
 Red. masses --      1.1351                 1.1769                 1.4780
 Frc consts  --      1.5333                 1.6059                 2.0765
 IR Inten    --     11.5732                 8.3221                30.0708

                     61                     62                     63
                      A                      A                      A
 Frequencies --   1569.0726              1651.9302              1680.1732
 Red. masses --      2.6598                 5.7716                 5.9324
 Frc consts  --      3.8581                 9.2796                 9.8671
 IR Inten    --     90.2271                12.9466                40.6461

                     64                     65                     66
                      A                      A                      A
 Frequencies --   3022.9730              3045.7386              3077.8261
 Red. masses --      1.0691                 1.0604                 1.1025
 Frc consts  --      5.7564                 5.7958                 6.1535
 IR Inten    --     27.5384                61.1086                22.6615

                     67                     68                     69
                      A                      A                      A
 Frequencies --   3099.9326              3139.2487              3141.5317
 Red. masses --      1.0953                 1.0519                 1.0670
 Frc consts  --      6.2012                 6.1079                 6.2044
 IR Inten    --     40.8657                21.0813                15.7727

                     70                     71                     72
                      A                      A                      A
 Frequencies --   3146.7972              3164.8551              3185.1085
 Red. masses --      1.0811                 1.0881                 1.0886
 Frc consts  --      6.3074                 6.4216                 6.5071
 IR Inten    --     18.3901                22.7041                15.3748

                     73                     74                     75
                      A                      A                      A
 Frequencies --   3192.1289              3216.2985              3217.3635
 Red. masses --      1.0923                 1.1169                 1.0940
 Frc consts  --      6.5577                 6.8074                 6.6723
 IR Inten    --     15.4440                 6.1425                 6.9333

                     76                     77                     78
                      A                      A                      A
 Frequencies --   3235.0319              3493.4325              3751.9119
 Red. masses --      1.1144                 1.0733                 1.0659
 Frc consts  --      6.8715                 7.7177                 8.8405
 IR Inten    --     20.7012                 0.3322                43.3857

 - Thermochemistry -
 -------------------
 Temperature   298.150 Kelvin.  Pressure   1.00000 Atm.
 Atom     1 has atomic number  6 and mass  12.00000

 Molecular mass:   177.11536 amu.
 Principal axes and moments of inertia in atomic units:
                           1         2         3
     Eigenvalues --  1278.891624065.546874552.08198
           X            0.99993   0.00933  -0.00716
           Y           -0.00944   0.99985  -0.01461
           Z            0.00702   0.01467   0.99987
 This molecule is an asymmetric top.
 Rotational symmetry number  1.
 Warning -- assumption of classical behavior for rotation
           may cause significant error
 Rotational temperatures (Kelvin)      0.06773     0.02130     0.01903
 Rotational constants (GHZ):           1.41118     0.44391     0.39647
 Zero-point vibrational energy     636356.4 (Joules/Mol)
                                  152.09283 (Kcal/Mol)
 Warning -- explicit consideration of  17 degrees of freedom as
           vibrations may cause significant error
 Vibrational temperatures:     38.82    77.56    81.57   162.65   215.23
          (Kelvin)            247.79   396.31   445.09   481.43   509.53
                              562.59   596.58   612.10   625.04   686.06
                              757.29   820.53   948.29  1021.31  1029.75
                             1057.49  1113.10  1164.34  1165.33  1192.60
                             1220.06  1239.81  1276.59  1346.95  1357.10
                             1384.47  1398.47  1421.27  1491.63  1518.91
                             1521.70  1553.76  1630.65  1639.14  1644.52
                             1701.73  1739.57  1741.49  1743.81  1773.49
                             1789.47  1810.97  1884.78  1888.57  1943.60
                             1989.40  1995.71  2020.30  2048.64  2138.65
                             2144.78  2173.64  2178.55  2189.58  2221.74
                             2257.55  2376.76  2417.39  4349.38  4382.14
                             4428.31  4460.11  4516.68  4519.96  4527.54
                             4553.52  4582.66  4592.76  4627.54  4629.07
                             4654.49  5026.27  5398.16

 Zero-point correction=                           0.242375 (Hartree/Particle)
 Thermal correction to Energy=                    0.254636
 Thermal correction to Enthalpy=                  0.255580
 Thermal correction to Gibbs Free Energy=         0.202694
 Sum of electronic and zero-point Energies=           -557.934343
 Sum of electronic and thermal Energies=              -557.922082
 Sum of electronic and thermal Enthalpies=            -557.921138
 Sum of electronic and thermal Free Energies=         -557.974024

                     E (Thermal)             CV                S
                      KCal/Mol        Cal/Mol-Kelvin    Cal/Mol-Kelvin
 Total                  159.786             47.880            111.308
 Electronic               0.000              0.000              0.000
 Translational            0.889              2.981             41.422
 Rotational               0.889              2.981             31.537
 Vibrational            158.009             41.918             38.348
 Vibration     1          0.593              1.984              6.040
 Vibration     2          0.596              1.976              4.669
 Vibration     3          0.596              1.975              4.569
 Vibration     4          0.607              1.939              3.216
 Vibration     5          0.618              1.903              2.677
 Vibration     6          0.626              1.877              2.411
 Vibration     7          0.677              1.719              1.562
 Vibration     8          0.699              1.656              1.366
 Vibration     9          0.716              1.606              1.238
 Vibration    10          0.730              1.567              1.148
 Vibration    11          0.759              1.489              0.996
 Vibration    12          0.778              1.438              0.910
 Vibration    13          0.787              1.415              0.874
 Vibration    14          0.795              1.395              0.844
 Vibration    15          0.833              1.301              0.719
 Vibration    16          0.881              1.192              0.595
 Vibration    17          0.926              1.095              0.504

                           ! Non-Optimized Parameters !
 Normal termination of Gaussian 16 at Wed Dec  9 22:34:33 2020.

 ----------------------------------------------------------------------
 # B3LYP/6-311++G(d,p) empiricaldispersion=gd3bj scf=xqc pop=npa geom=c
 heck
 ----------------------------------------------------------------------

 --------------------------------------
 CID_64866630_JID_3125_Energie_neutraal
 --------------------------------------
 Structure from the checkpoint file:  "JID_3125.chk"
 Charge =  0 Multiplicity = 1

 SCF Done:  E(RB3LYP) =  -558.339788693     A.U. after   14 cycles
 Normal termination of Gaussian 16 at Wed Dec  9 22:37:37 2020.

 ----------------------------------------------------------------------
 # B3LYP/6-311++G(d,p) empiricaldispersion=gd3bj scf=xqc pop=npa geom=c
 heck
 ----------------------------------------------------------------------

 ------------------------------------
 CID_64866630_JID_3125_Energie_kation
 ------------------------------------
 Structure from the checkpoint file:  "JID_3125.chk"
 Charge =  1 Multiplicity = 2

 SCF Done:  E(UB3LYP) =  -558.060060692     A.U. after   20 cycles
 Normal termination of Gaussian 16 at Wed Dec  9 22:44:07 2020.
 Gaussian 16:  ES64L-G16RevA.03 25-Dec-2016

 ----------------------------------------------------------------------
 # B3LYP/6-311++G(d,p) empiricaldispersion=gd3bj scf=xqc pop=npa geom=c
 heck
 ----------------------------------------------------------------------

 -----------------------------------
 CID_64866630_JID_3125_Energie_anion
 -----------------------------------
 Structure from the checkpoint file:  "JID_3125.chk"
 Charge = -1 Multiplicity = 2

                         Standard orientation:
 ---------------------------------------------------------------------
 Center     Atomic      Atomic             Coordinates (Angstroms)
 Number     Number       Type             X           Y           Z
 ---------------------------------------------------------------------
      1          6           0       -3.085843   -1.758926   -0.825499
      2          6           0       -2.452667   -1.531529    0.533111
      3          6           0       -3.009266   -0.368945   -0.271511
      4          7           0       -2.199008    0.620220   -0.934554
      5          6           0       -1.790923    1.746994   -0.100484
      6          6           0       -0.817551    1.447837    1.061665
      7          6           0        0.477489    0.797968    0.622852
      8          6           0        1.250874    1.333101   -0.414876
      9          6           0        2.440703    0.731049   -0.821829
     10          6           0        2.886687   -0.432131   -0.188157
     11          6           0        2.134899   -0.981399    0.853384
     12          6           0        0.948481   -0.367011    1.243942
     13          8           0        4.043125   -1.072287   -0.542266
     14          1           0       -4.054996   -2.246537   -0.881198
     15          1           0       -2.422802   -2.005447   -1.652021
     16          1           0       -2.987162   -1.865361    1.419524
     17          1           0       -1.372981   -1.627249    0.593941
     18          1           0       -3.943620    0.058750    0.089436
     19          1           0       -1.375409    0.181800   -1.343297
     20          1           0       -1.345885    2.498958   -0.763787
     21          1           0       -2.700095    2.202617    0.311570
     22          1           0       -0.607275    2.396738    1.576715
     23          1           0       -1.313817    0.801215    1.792872
     24          1           0        0.927074    2.240504   -0.917802
     25          1           0        3.023594    1.167356   -1.631120
     26          1           0        2.490665   -1.883332    1.340680
     27          1           0        0.373004   -0.801140    2.057586
     28          1           0        4.460456   -0.584171   -1.268679
 ---------------------------------------------------------------------

 SCF Done:  E(UB3LYP) =  -558.326254658     A.U. after   33 cycles
 SCF Done:  E(UB3LYP) =  -558.326254659     a.u. after    1 cycles

 The electronic state is 2-A.
 Alpha  occ. eigenvalues --  -19.04875 -14.20583 -10.13548 -10.10955 -10.09833
 Alpha  occ. eigenvalues --  -10.08030 -10.07958 -10.07906 -10.07734 -10.07482
 Alpha  occ. eigenvalues --  -10.07433 -10.07422 -10.07362  -0.95937  -0.82611
 Alpha  occ. eigenvalues --   -0.76059  -0.73988  -0.67591  -0.65346  -0.61260
 Alpha  occ. eigenvalues --   -0.53890  -0.52719  -0.51145  -0.50273  -0.48288
 Alpha  occ. eigenvalues --   -0.44727  -0.40964  -0.40287  -0.38700  -0.37034
 Alpha  occ. eigenvalues --   -0.35114  -0.34384  -0.33137  -0.32674  -0.31341
 Alpha  occ. eigenvalues --   -0.30764  -0.29815  -0.27824  -0.27721  -0.26684
 Alpha  occ. eigenvalues --   -0.24700  -0.24201  -0.23499  -0.22541  -0.20481
 Alpha  occ. eigenvalues --   -0.16121  -0.12756  -0.12035   0.04424
 Alpha virt. eigenvalues --    0.05714   0.06939   0.07650   0.07787   0.08153
 Alpha virt. eigenvalues --    0.09015   0.09305   0.09813   0.10466   0.10619
 Alpha virt. eigenvalues --    0.11417   0.11737   0.12794   0.13487   0.14157

  Beta  occ. eigenvalues --  -19.04818 -14.20579 -10.13544 -10.10944 -10.09818
  Beta  occ. eigenvalues --  -10.08022 -10.07955 -10.07903 -10.07719 -10.07471
  Beta  occ. eigenvalues --  -10.07423 -10.07411 -10.07326  -0.95830  -0.82597
  Beta  occ. eigenvalues --   -0.76031  -0.73969  -0.67555  -0.65310  -0.61217
  Beta  occ. eigenvalues --   -0.53845  -0.52660  -0.51113  -0.50238  -0.48243
  Beta  occ. eigenvalues --   -0.44637  -0.40934  -0.40248  -0.38670  -0.36985
  Beta  occ. eigenvalues --   -0.35068  -0.34350  -0.33102  -0.32630  -0.31300
  Beta  occ. eigenvalues --   -0.30721  -0.29788  -0.27789  -0.27692  -0.26655
  Beta  occ. eigenvalues --   -0.24671  -0.24165  -0.23465  -0.22517  -0.20465
  Beta  occ. eigenvalues --   -0.16095  -0.12724  -0.12009
  Beta virt. eigenvalues --    0.06440   0.07334   0.07616   0.07797   0.07913
  Beta virt. eigenvalues --    0.08938   0.09265   0.09643   0.10044   0.10702
  Beta virt. eigenvalues --    0.10756   0.11743   0.12200   0.13073   0.13720

 Mulliken charges and spin densities:
               1          2
     1  C    0.323549  -0.716316
     2  C    0.309611  -0.585425
     3  C   -0.941862   0.626743
     4  N    0.029928  -0.056378
     5  C    0.488821  -0.814429
     6  C    0.626953  -0.971862
     7  C    0.491792   0.438702
     8  C   -1.070554   0.970189
     9  C    0.098996  -0.154343
    10  C    2.409396  -2.990524
    11  C   -0.006726  -0.230872
    12  C   -1.251795   0.702608
    13  O   -0.295010   0.059240
    14  H   -0.027266   0.165420
    15  H    0.040208   0.082240
    16  H   -0.209858   0.347920
    17  H    0.318517  -0.198125
    18  H   -0.310979   0.496082
    19  H    0.276522  -0.084510
    20  H   -0.072874   0.243537
    21  H   -0.232972   0.367868
    22  H   -0.185879   0.359323
    23  H    0.035317   0.140262
    24  H    0.044702   0.098939
    25  H   -1.677048   1.871513
    26  H    0.028132   0.155874
    27  H    0.019865   0.130196
    28  H   -0.259485   0.546129
 Sum of Mulliken charges =  -1.00000   1.00000

 Dipole moment (field-independent basis, Debye):
    X=             -4.8226    Y=             -2.1656    Z=              3.3253  Tot=              6.2454
 Quadrupole moment (field-independent basis, Debye-Ang):
   XX=           -174.8493   YY=           -114.8155   ZZ=           -115.3709
   XY=             -2.1292   XZ=             20.1603   YZ=              3.2243

 Summary of Natural Population Analysis:

                                       Natural Population
                Natural  -----------------------------------------------
    Atom  No    Charge         Core      Valence    Rydberg      Total
 -----------------------------------------------------------------------
      C    1   -0.20307      0.99962     2.19540    0.00805     3.20307
      C    2   -0.21654      0.99962     2.20860    0.00831     3.21654
      C    3   -0.01503      0.99958     2.00156    0.01388     3.01503
      N    4   -0.33565      0.99974     2.82441    0.01151     3.83565
      C    5   -0.08239      0.99962     2.07124    0.01153     3.08239
      C    6   -0.20605      0.99960     2.19775    0.00871     3.20605
      C    7   -0.03670      0.99950     2.02637    0.01083     3.03670
      C    8   -0.09365      0.99952     2.08419    0.00995     3.09365
      C    9   -0.13077      0.99952     2.11987    0.01139     3.13077
      C   10    0.15772      0.99938     1.82886    0.01404     2.84228
      C   11   -0.12434      0.99952     2.11568    0.00914     3.12434
      C   12   -0.09603      0.99952     2.08850    0.00801     3.09603
      O   13   -0.34158      0.99988     3.33449    0.00721     4.34158
      H   14    0.10161      0.00000     0.39755    0.00084     0.39839
      H   15    0.10061      0.00000     0.39852    0.00087     0.39939
      H   16    0.10037      0.00000     0.39826    0.00136     0.39963
      H   17    0.10615      0.00000     0.39249    0.00136     0.39385
      H   18    0.09770      0.00000     0.40088    0.00142     0.40230
      H   19    0.17465      0.00000     0.32170    0.00365     0.32535
      H   20    0.09229      0.00000     0.40645    0.00126     0.40771
      H   21    0.09327      0.00000     0.40542    0.00131     0.40673
      H   22    0.10341      0.00000     0.39540    0.00119     0.39659
      H   23    0.10028      0.00000     0.39815    0.00157     0.39972
      H   24    0.10137      0.00000     0.39729    0.00135     0.39863
      H   25    0.10775      0.00000     0.38646    0.00579     0.39225
      H   26    0.10391      0.00000     0.39500    0.00109     0.39609
      H   27    0.09840      0.00000     0.40031    0.00129     0.40160
      H   28    0.24229      0.00000     0.24162    0.01609     0.25771
 =======================================================================
   * Total *   -0.00000     12.99461    34.83240    0.17299    48.00000

 Normal termination of Gaussian 16 at Wed Dec  9 22:55:18 2020.
