 Gaussian 16, Revision A.03,

 -----------------------------------------------------------
 # opt freq B3LYP/6-31G(d) empiricaldispersion=gd3bj scf=xqc
 -----------------------------------------------------------

 -------------------------------
 CID_105843808_JID_6720_neutraal
 -------------------------------
 Symbolic Z-matrix:
 Charge =  0 Multiplicity = 1

 SCF Done:  E(RB3LYP) =  -729.283479721     A.U. after   14 cycles
 SCF Done:  E(RB3LYP) =  -729.290209412     A.U. after   12 cycles
 SCF Done:  E(RB3LYP) =  -729.291155751     A.U. after   12 cycles
 SCF Done:  E(RB3LYP) =  -729.291385924     A.U. after   12 cycles
 SCF Done:  E(RB3LYP) =  -729.291817168     A.U. after   11 cycles
 SCF Done:  E(RB3LYP) =  -729.291919974     A.U. after   10 cycles
 SCF Done:  E(RB3LYP) =  -729.291945330     A.U. after    9 cycles
 SCF Done:  E(RB3LYP) =  -729.291957571     A.U. after   10 cycles
 SCF Done:  E(RB3LYP) =  -729.291960957     A.U. after    9 cycles
 SCF Done:  E(RB3LYP) =  -729.291962564     A.U. after    8 cycles
 SCF Done:  E(RB3LYP) =  -729.291963156     A.U. after    8 cycles
 SCF Done:  E(RB3LYP) =  -729.291963249     A.U. after    7 cycles
 Optimization completed.
    -- Stationary point found.
 Normal termination of Gaussian 16 at Fri Dec 11 00:23:48 2020.

 --------------------------------------------------------------------
 #N Geom=AllCheck Guess=TCheck SCRF=Check GenChk RB3LYP/6-31G(d) Freq
 --------------------------------------------------------------------

 Structure from the checkpoint file:  "JID_6720.chk"
 -------------------------------
 CID_105843808_JID_6720_neutraal
 -------------------------------
 Charge =  0 Multiplicity = 1

 SCF Done:  E(RB3LYP) =  -729.291963249     A.U. after    1 cycles

  Exact polarizability: 153.872  -2.083 136.588   4.540  -2.060 117.998
 Approx polarizability: 193.040  -3.505 197.826   7.321 -11.235 179.935

                      1                      2                      3
                      A                      A                      A
 Frequencies --     26.1125                48.4757                58.6886
 Red. masses --      3.8373                 3.3998                 4.3646
 Frc consts  --      0.0015                 0.0047                 0.0089
 IR Inten    --      0.1968                 0.1771                 2.7760

                      4                      5                      6
                      A                      A                      A
 Frequencies --     80.1276               112.7354               116.2354
 Red. masses --      2.7413                 3.7172                 2.7458
 Frc consts  --      0.0104                 0.0278                 0.0219
 IR Inten    --      0.0809                 1.7148                 1.2632

                      7                      8                      9
                      A                      A                      A
 Frequencies --    158.9910               176.8358               198.8329
 Red. masses --      2.3871                 3.2490                 2.2599
 Frc consts  --      0.0356                 0.0599                 0.0526
 IR Inten    --      3.0945                 1.4063                 1.6385

                     10                     11                     12
                      A                      A                      A
 Frequencies --    204.2133               230.1365               256.6403
 Red. masses --      2.4054                 1.4921                 2.7017
 Frc consts  --      0.0591                 0.0466                 0.1048
 IR Inten    --      0.3181                 5.5931                 1.3991

                     13                     14                     15
                      A                      A                      A
 Frequencies --    280.5408               300.0843               331.2749
 Red. masses --      3.0056                 4.0783                 3.2214
 Frc consts  --      0.1394                 0.2164                 0.2083
 IR Inten    --      6.6005                 0.4149                 1.9866

                     16                     17                     18
                      A                      A                      A
 Frequencies --    381.9369               422.3897               438.6514
 Red. masses --      4.0790                 3.8380                 3.6725
 Frc consts  --      0.3506                 0.4034                 0.4163
 IR Inten    --      0.6821                 5.7748                 1.8659

                     19                     20                     21
                      A                      A                      A
 Frequencies --    491.1865               550.7554               571.8110
 Red. masses --      3.4588                 3.0944                 2.9498
 Frc consts  --      0.4917                 0.5530                 0.5683
 IR Inten    --     11.4426                 6.6524                 4.9040

                     22                     23                     24
                      A                      A                      A
 Frequencies --    595.0905               644.9680               687.6467
 Red. masses --      3.1590                 2.5204                 3.8793
 Frc consts  --      0.6591                 0.6177                 1.0808
 IR Inten    --     12.6033                 1.7210                14.0661

                     25                     26                     27
                      A                      A                      A
 Frequencies --    727.1802               766.7057               785.1158
 Red. masses --      5.0593                 2.0062                 1.0895
 Frc consts  --      1.5762                 0.6948                 0.3957
 IR Inten    --     24.0736                40.1687                 0.5229

                     28                     29                     30
                      A                      A                      A
 Frequencies --    826.5313               832.8435               849.9338
 Red. masses --      1.5810                 1.7542                 1.8589
 Frc consts  --      0.6364                 0.7169                 0.7912
 IR Inten    --      2.9854                27.3163                 8.3612

                     31                     32                     33
                      A                      A                      A
 Frequencies --    864.4267               911.6357               926.5432
 Red. masses --      2.0849                 1.5607                 2.9461
 Frc consts  --      0.9179                 0.7642                 1.4901
 IR Inten    --      4.0292                 1.2613                13.7130

                     34                     35                     36
                      A                      A                      A
 Frequencies --    942.3045               971.1829               978.5732
 Red. masses --      3.2504                 2.3314                 2.4365
 Frc consts  --      1.7005                 1.2956                 1.3747
 IR Inten    --     22.2102                 0.7694                 8.8633

                     37                     38                     39
                      A                      A                      A
 Frequencies --    991.0351              1013.9593              1026.2595
 Red. masses --      2.0814                 2.6732                 3.3633
 Frc consts  --      1.2044                 1.6193                 2.0871
 IR Inten    --     12.2909                13.6506                 9.5154

                     40                     41                     42
                      A                      A                      A
 Frequencies --   1041.1779              1046.9089              1063.7073
 Red. masses --      2.1760                 2.3410                 1.5865
 Frc consts  --      1.3898                 1.5117                 1.0577
 IR Inten    --     21.4255                 4.3198                 3.7730

                     43                     44                     45
                      A                      A                      A
 Frequencies --   1068.2903              1074.2615              1107.1635
 Red. masses --      2.0644                 1.4355                 1.8617
 Frc consts  --      1.3881                 0.9760                 1.3446
 IR Inten    --      4.6226                 4.9393                14.1274

                     46                     47                     48
                      A                      A                      A
 Frequencies --   1112.9280              1120.0805              1148.7940
 Red. masses --      3.9127                 2.3481                 1.1448
 Frc consts  --      2.8554                 1.7357                 0.8902
 IR Inten    --     85.7571                13.2991                 3.7344

                     49                     50                     51
                      A                      A                      A
 Frequencies --   1157.0263              1180.4351              1187.3743
 Red. masses --      1.5276                 2.1187                 2.0523
 Frc consts  --      1.2049                 1.7394                 1.7047
 IR Inten    --      5.6428                51.3826                11.7382

                     52                     53                     54
                      A                      A                      A
 Frequencies --   1204.1034              1206.7107              1221.4138
 Red. masses --      1.4634                 1.4307                 2.4254
 Frc consts  --      1.2500                 1.2275                 2.1318
 IR Inten    --      6.2273                 0.6681                13.2646

                     55                     56                     57
                      A                      A                      A
 Frequencies --   1242.5141              1246.8010              1249.4096
 Red. masses --      1.3448                 1.3815                 1.4198
 Frc consts  --      1.2232                 1.2653                 1.3058
 IR Inten    --     10.4265                11.3837                16.4770

                     58                     59                     60
                      A                      A                      A
 Frequencies --   1254.2130              1257.6689              1297.6816
 Red. masses --      1.4701                 1.5695                 1.3101
 Frc consts  --      1.3625                 1.4627                 1.2999
 IR Inten    --      2.0162                 3.2316                10.8107

                     61                     62                     63
                      A                      A                      A
 Frequencies --   1317.9868              1332.2690              1341.5336
 Red. masses --      1.6773                 1.3668                 1.4138
 Frc consts  --      1.7167                 1.4294                 1.4992
 IR Inten    --     62.1751                43.5216                 2.3640

                     64                     65                     66
                      A                      A                      A
 Frequencies --   1344.8307              1369.0105              1386.1094
 Red. masses --      1.4219                 1.2096                 1.5385
 Frc consts  --      1.5152                 1.3357                 1.7415
 IR Inten    --     12.1417                10.3265                57.2042

                     67                     68                     69
                      A                      A                      A
 Frequencies --   1396.8755              1408.2886              1429.7265
 Red. masses --      1.6361                 1.3061                 1.9170
 Frc consts  --      1.8810                 1.5262                 2.3088
 IR Inten    --     12.9280                 2.1828                27.9855

                     70                     71                     72
                      A                      A                      A
 Frequencies --   1436.7933              1475.3738              1480.4262
 Red. masses --      1.5822                 1.1943                 1.7922
 Frc consts  --      1.9244                 1.5317                 2.3143
 IR Inten    --      7.2575                10.7285                53.3553

                     73                     74                     75
                      A                      A                      A
 Frequencies --   1500.9620              1507.1455              1513.2697
 Red. masses --      1.1000                 1.2040                 1.1082
 Frc consts  --      1.4601                 1.6113                 1.4952
 IR Inten    --      1.3699                14.2794                 5.4966

                     76                     77                     78
                      A                      A                      A
 Frequencies --   1522.7004              1525.5319              1542.2929
 Red. masses --      1.1354                 1.0775                 1.1399
 Frc consts  --      1.5510                 1.4775                 1.5976
 IR Inten    --      3.4548                 3.6013                 5.1167

                     79                     80                     81
                      A                      A                      A
 Frequencies --   1543.7633              1555.5005              1561.4475
 Red. masses --      1.3453                 1.0561                 1.1074
 Frc consts  --      1.8890                 1.5056                 1.5908
 IR Inten    --      1.8703                 9.9898                 5.1080

                     82                     83                     84
                      A                      A                      A
 Frequencies --   1785.9677              2890.2837              2953.7863
 Red. masses --     10.8493                 1.0795                 1.0616
 Frc consts  --     20.3892                 5.3134                 5.4573
 IR Inten    --    237.0319                53.0448               107.9787

                     85                     86                     87
                      A                      A                      A
 Frequencies --   3009.0327              3045.3993              3052.4744
 Red. masses --      1.0717                 1.0824                 1.0655
 Frc consts  --      5.7171                 5.9147                 5.8491
 IR Inten    --     54.6368                20.0586                41.7479

                     88                     89                     90
                      A                      A                      A
 Frequencies --   3072.6357              3079.0165              3089.6069
 Red. masses --      1.0638                 1.0661                 1.0891
 Frc consts  --      5.9173                 5.9550                 6.1255
 IR Inten    --     15.1696                16.7344                34.4032

                     91                     92                     93
                      A                      A                      A
 Frequencies --   3101.1853              3113.0527              3123.1330
 Red. masses --      1.0764                 1.0844                 1.1003
 Frc consts  --      6.0995                 6.1918                 6.3235
 IR Inten    --     46.7255                19.3822                39.5610

                     94                     95                     96
                      A                      A                      A
 Frequencies --   3127.8989              3142.8354              3150.7859
 Red. masses --      1.1061                 1.1039                 1.0532
 Frc consts  --      6.3759                 6.4245                 6.1605
 IR Inten    --     29.9235                31.4144                22.0587

                     97                     98                     99
                      A                      A                      A
 Frequencies --   3156.0052              3163.2445              3173.4317
 Red. masses --      1.0578                 1.0880                 1.0990
 Frc consts  --      6.2077                 6.4140                 6.5209
 IR Inten    --     17.8052                 8.2017                 3.5928

                    100                    101                    102
                      A                      A                      A
 Frequencies --   3221.9193              3236.2215              3481.3341
 Red. masses --      1.1181                 1.1148                 1.0742
 Frc consts  --      6.8387                 6.8791                 7.6704
 IR Inten    --      1.3455                34.0072                 0.9150

 - Thermochemistry -
 -------------------
 Temperature   298.150 Kelvin.  Pressure   1.00000 Atm.
 Atom     1 has atomic number  6 and mass  12.00000

 Molecular mass:   224.15248 amu.
 Principal axes and moments of inertia in atomic units:
                           1         2         3
     Eigenvalues --  2118.689725037.084795899.11415
           X            0.99993  -0.01063   0.00423
           Y            0.01062   0.99993   0.00462
           Z           -0.00427  -0.00457   0.99998
 This molecule is an asymmetric top.
 Rotational symmetry number  1.
 Warning -- assumption of classical behavior for rotation
           may cause significant error
 Rotational temperatures (Kelvin)      0.04088     0.01720     0.01468
 Rotational constants (GHZ):           0.85182     0.35829     0.30593
 Zero-point vibrational energy     836957.4 (Joules/Mol)
                                  200.03761 (Kcal/Mol)
 Warning -- explicit consideration of  22 degrees of freedom as
           vibrations may cause significant error
 Vibrational temperatures:     37.57    69.75    84.44   115.29   162.20
          (Kelvin)            167.24   228.75   254.43   286.08   293.82
                              331.12   369.25   403.64   431.75   476.63
                              549.52   607.72   631.12   706.71   792.41
                              822.71   856.20   927.97   989.37  1046.25
                             1103.12  1129.61  1189.19  1198.28  1222.87
                             1243.72  1311.64  1333.09  1355.77  1397.32
                             1407.95  1425.88  1458.86  1476.56  1498.02
                             1506.27  1530.44  1537.03  1545.62  1592.96
                             1601.26  1611.55  1652.86  1664.70  1698.38
                             1708.37  1732.44  1736.19  1757.34  1787.70
                             1793.87  1797.62  1804.53  1809.51  1867.07
                             1896.29  1916.84  1930.17  1934.91  1969.70
                             1994.30  2009.79  2026.21  2057.06  2067.23
                             2122.73  2130.00  2159.55  2168.45  2177.26
                             2190.83  2194.90  2219.02  2221.13  2238.02
                             2246.57  2569.61  4158.47  4249.84  4329.33
                             4381.65  4391.83  4420.84  4430.02  4445.26
                             4461.91  4478.99  4493.49  4500.35  4521.84
                             4533.28  4540.79  4551.20  4565.86  4635.62
                             4656.20  5008.86

 Zero-point correction=                           0.318780 (Hartree/Particle)
 Thermal correction to Energy=                    0.334257
 Thermal correction to Enthalpy=                  0.335202
 Thermal correction to Gibbs Free Energy=         0.275050
 Sum of electronic and zero-point Energies=           -728.973183
 Sum of electronic and thermal Energies=              -728.957706
 Sum of electronic and thermal Enthalpies=            -728.956762
 Sum of electronic and thermal Free Energies=         -729.016913

                     E (Thermal)             CV                S
                      KCal/Mol        Cal/Mol-Kelvin    Cal/Mol-Kelvin
 Total                  209.750             59.029            126.600
 Electronic               0.000              0.000              0.000
 Translational            0.889              2.981             42.124
 Rotational               0.889              2.981             32.509
 Vibrational            207.972             53.067             51.966
 Vibration     1          0.593              1.985              6.105
 Vibration     2          0.595              1.978              4.879
 Vibration     3          0.596              1.974              4.501
 Vibration     4          0.600              1.963              3.888
 Vibration     5          0.607              1.939              3.221
 Vibration     6          0.608              1.936              3.162
 Vibration     7          0.621              1.893              2.562
 Vibration     8          0.628              1.871              2.362
 Vibration     9          0.637              1.842              2.144
 Vibration    10          0.640              1.834              2.095
 Vibration    11          0.652              1.795              1.878
 Vibration    12          0.666              1.752              1.685
 Vibration    13          0.680              1.710              1.530
 Vibration    14          0.693              1.674              1.416
 Vibration    15          0.714              1.613              1.254
 Vibration    16          0.751              1.509              1.031
 Vibration    17          0.785              1.422              0.884
 Vibration    18          0.799              1.386              0.831
 Vibration    19          0.847              1.270              0.681
 Vibration    20          0.906              1.138              0.543
 Vibration    21          0.928              1.092              0.501
 Vibration    22          0.953              1.042              0.458

 Optimization completed.
    -- Stationary point found.
 Normal termination of Gaussian 16 at Fri Dec 11 00:36:46 2020.

 ----------------------------------------------------------------------
 # B3LYP/6-311++G(d,p) empiricaldispersion=gd3bj scf=xqc pop=npa geom=c
 heck
 ----------------------------------------------------------------------

 ---------------------------------------
 CID_105843808_JID_6720_Energie_neutraal
 ---------------------------------------
 Structure from the checkpoint file:  "JID_6720.chk"
 Charge =  0 Multiplicity = 1

 SCF Done:  E(RB3LYP) =  -729.498961479     A.U. after   15 cycles
 Normal termination of Gaussian 16 at Fri Dec 11 00:42:32 2020.

 ----------------------------------------------------------------------
 # B3LYP/6-311++G(d,p) empiricaldispersion=gd3bj scf=xqc pop=npa geom=c
 heck
 ----------------------------------------------------------------------

 -------------------------------------
 CID_105843808_JID_6720_Energie_kation
 -------------------------------------
 Structure from the checkpoint file:  "JID_6720.chk"
 Charge =  1 Multiplicity = 2

 SCF Done:  E(UB3LYP) =  -729.202291239     A.U. after   26 cycles
 Normal termination of Gaussian 16 at Fri Dec 11 00:55:52 2020.
 Gaussian 16:  ES64L-G16RevA.03 25-Dec-2016

 ----------------------------------------------------------------------
 # B3LYP/6-311++G(d,p) empiricaldispersion=gd3bj scf=xqc pop=npa geom=c
 heck
 ----------------------------------------------------------------------

 ------------------------------------
 CID_105843808_JID_6720_Energie_anion
 ------------------------------------
 Structure from the checkpoint file:  "JID_6720.chk"
 Charge = -1 Multiplicity = 2

                         Standard orientation:
 ---------------------------------------------------------------------
 Center     Atomic      Atomic             Coordinates (Angstroms)
 Number     Number       Type             X           Y           Z
 ---------------------------------------------------------------------
      1          6           0       -4.170802    0.819618   -1.139585
      2          7           0       -3.492333   -0.438123   -0.821652
      3          6           0       -2.634580   -0.361007    0.351357
      4          6           0       -2.151225   -1.739070    0.818140
      5          6           0       -0.770680   -1.457594    1.427898
      6          7           0       -0.302335   -0.312339    0.654242
      7          6           0       -1.322053    0.391754    0.073541
      8          8           0       -1.199894    1.457642   -0.518504
      9          6           0        1.062492    0.190872    0.756521
     10          6           0        1.202062    1.589034    1.422520
     11          6           0        1.812790    2.450772    0.307846
     12          8           0        2.567086    1.535293   -0.482117
     13          6           0        1.747301    0.377578   -0.633027
     14          6           0        2.606783   -0.750372   -1.148143
     15          6           0        3.485701   -1.581932   -0.252457
     16          6           0        2.264732   -2.196004   -0.894063
     17          1           0       -3.422103    1.568078   -1.401294
     18          1           0       -4.776849    1.217735   -0.304067
     19          1           0       -4.828039    0.660610   -2.000137
     20          1           0       -4.193242   -1.156377   -0.647050
     21          1           0       -3.116729    0.174004    1.197443
     22          1           0       -2.830716   -2.226888    1.522373
     23          1           0       -2.040874   -2.376205   -0.066127
     24          1           0       -0.839367   -1.208001    2.497843
     25          1           0       -0.083151   -2.303696    1.328118
     26          1           0        1.605371   -0.548874    1.347623
     27          1           0        1.881407    1.525945    2.277888
     28          1           0        0.240169    1.971271    1.770703
     29          1           0        1.017540    2.913221   -0.290550
     30          1           0        2.499105    3.221895    0.667351
     31          1           0        0.953741    0.585264   -1.362809
     32          1           0        3.019073   -0.528287   -2.129854
     33          1           0        4.464758   -1.865479   -0.626915
     34          1           0        3.467633   -1.393804    0.817583
     35          1           0        1.410436   -2.415968   -0.260698
     36          1           0        2.401852   -2.906598   -1.703891
 ---------------------------------------------------------------------

 SCF Done:  E(UB3LYP) =  -729.487416783     A.U. after   32 cycles

 The electronic state is 2-A.
 Alpha  occ. eigenvalues --  -19.02897 -18.99235 -14.24687 -14.20565 -10.16885
 Alpha  occ. eigenvalues --  -10.12756 -10.12265 -10.11798 -10.11157 -10.10877
 Alpha  occ. eigenvalues --  -10.08983 -10.08503 -10.08455 -10.08279 -10.07689
 Alpha  occ. eigenvalues --  -10.07653  -0.95160  -0.94254  -0.85561  -0.81137
 Alpha  occ. eigenvalues --   -0.77384  -0.71082  -0.66162  -0.64101  -0.61776
 Alpha  occ. eigenvalues --   -0.56574  -0.54029  -0.52194  -0.51480  -0.50756
 Alpha  occ. eigenvalues --   -0.47913  -0.44001  -0.42411  -0.41249  -0.40393
 Alpha  occ. eigenvalues --   -0.39443  -0.37460  -0.36705  -0.36305  -0.35114
 Alpha  occ. eigenvalues --   -0.34601  -0.33781  -0.33070  -0.31569  -0.30559
 Alpha  occ. eigenvalues --   -0.29609  -0.29127  -0.28180  -0.27926  -0.26727
 Alpha  occ. eigenvalues --   -0.25934  -0.25665  -0.24980  -0.24168  -0.23369
 Alpha  occ. eigenvalues --   -0.21080  -0.20403  -0.17692  -0.15926  -0.14826
 Alpha  occ. eigenvalues --   -0.13095   0.04283
 Alpha virt. eigenvalues --    0.06195   0.06709   0.07342   0.08240   0.08511
 Alpha virt. eigenvalues --    0.08739   0.09632   0.09671   0.10615   0.10931
 Alpha virt. eigenvalues --    0.11213   0.11467   0.11914   0.12089   0.12983

  Beta  occ. eigenvalues --  -19.02896 -18.99232 -14.24684 -14.20546 -10.16876
  Beta  occ. eigenvalues --  -10.12757 -10.12256 -10.11795 -10.11119 -10.10864
  Beta  occ. eigenvalues --  -10.08979 -10.08490 -10.08441 -10.08262 -10.07672
  Beta  occ. eigenvalues --  -10.07619  -0.95155  -0.94245  -0.85543  -0.81109
  Beta  occ. eigenvalues --   -0.77372  -0.71049  -0.66136  -0.64080  -0.61718
  Beta  occ. eigenvalues --   -0.56541  -0.53995  -0.52144  -0.51423  -0.50719
  Beta  occ. eigenvalues --   -0.47888  -0.43972  -0.42369  -0.41211  -0.40344
  Beta  occ. eigenvalues --   -0.39413  -0.37443  -0.36685  -0.36263  -0.35083
  Beta  occ. eigenvalues --   -0.34563  -0.33753  -0.33036  -0.31540  -0.30523
  Beta  occ. eigenvalues --   -0.29578  -0.29082  -0.28149  -0.27903  -0.26692
  Beta  occ. eigenvalues --   -0.25903  -0.25643  -0.24954  -0.24135  -0.23354
  Beta  occ. eigenvalues --   -0.21063  -0.20389  -0.17678  -0.15907  -0.14797
  Beta  occ. eigenvalues --   -0.13060
  Beta virt. eigenvalues --    0.06467   0.07030   0.07284   0.07921   0.08521
  Beta virt. eigenvalues --    0.08943   0.09212   0.09903   0.10056   0.10868
  Beta virt. eigenvalues --    0.11032   0.11480   0.11777   0.12378   0.12441

 Mulliken charges and spin densities:
               1          2
     1  C    0.039224  -0.366710
     2  N   -0.250089   0.213388
     3  C    0.515786  -0.896985
     4  C    0.175263  -0.664134
     5  C    1.306621  -1.571239
     6  N    0.335391   0.139407
     7  C   -0.572746   0.333843
     8  O   -0.296130   0.008591
     9  C   -0.894884   0.553646
    10  C    0.533014  -0.748379
    11  C   -0.183335  -0.112468
    12  O   -0.071391   0.005468
    13  C   -0.162160  -0.158023
    14  C   -0.591987   0.621371
    15  C   -0.040059  -0.479151
    16  C    0.165286  -0.368230
    17  H    0.224747  -0.047795
    18  H   -0.187023   0.295912
    19  H   -0.021188   0.144539
    20  H   -0.116869   0.354038
    21  H    0.080488   0.103998
    22  H   -0.876251   1.087964
    23  H    0.224807  -0.057636
    24  H   -0.425998   0.611284
    25  H   -0.493587   0.645265
    26  H    0.140236   0.065210
    27  H   -0.232444   0.398321
    28  H   -0.011515   0.185264
    29  H    0.185266  -0.006552
    30  H    0.119769   0.047517
    31  H    0.223368   0.007600
    32  H    0.170348   0.065366
    33  H   -0.002550   0.156432
    34  H   -0.263897   0.416671
    35  H    0.329581  -0.222017
    36  H   -0.075092   0.238226
 Sum of Mulliken charges =  -1.00000   1.00000

 Dipole moment (field-independent basis, Debye):
    X=              3.7000    Y=              3.5044    Z=             -4.7024  Tot=              6.9342
 Quadrupole moment (field-independent basis, Debye-Ang):
   XX=           -171.6792   YY=           -140.5334   ZZ=           -143.0774
   XY=             -5.8973   XZ=              4.1564   YZ=             11.4399

 Summary of Natural Population Analysis:

                                       Natural Population
                Natural  -----------------------------------------------
    Atom  No    Charge         Core      Valence    Rydberg      Total
 -----------------------------------------------------------------------
      C    1   -0.18352      0.99965     2.17540    0.00847     3.18352
      N    2   -0.33195      0.99973     2.82043    0.01178     3.83195
      C    3   -0.04480      0.99955     2.03128    0.01396     3.04480
      C    4   -0.19364      0.99962     2.18389    0.01014     3.19364
      C    5   -0.07306      0.99962     2.06283    0.01062     3.07306
      N    6   -0.25527      0.99962     2.74320    0.01245     3.75527
      C    7    0.35449      0.99962     1.62247    0.02342     2.64551
      O    8   -0.33177      0.99987     3.32673    0.00516     4.33177
      C    9   -0.01576      0.99957     1.99981    0.01637     3.01576
      C   10   -0.20602      0.99962     2.19816    0.00823     3.20602
      C   11   -0.01348      0.99960     2.00204    0.01185     3.01348
      O   12   -0.30100      0.99989     3.29366    0.00745     4.30100
      C   13    0.06207      0.99951     1.92390    0.01451     2.93793
      C   14   -0.11622      0.99957     2.10559    0.01106     3.11622
      C   15   -0.19654      0.99962     2.18782    0.00910     3.19654
      C   16   -0.19712      0.99962     2.19026    0.00724     3.19712
      H   17    0.10667      0.00000     0.39217    0.00116     0.39333
      H   18    0.07809      0.00000     0.42055    0.00135     0.42191
      H   19    0.09012      0.00000     0.40921    0.00067     0.40988
      H   20    0.17345      0.00000     0.32328    0.00327     0.32655
      H   21    0.09165      0.00000     0.40605    0.00229     0.40835
      H   22    0.10969      0.00000     0.38566    0.00465     0.39031
      H   23    0.10121      0.00000     0.39677    0.00202     0.39879
      H   24    0.09495      0.00000     0.40190    0.00316     0.40505
      H   25    0.09684      0.00000     0.40132    0.00185     0.40316
      H   26    0.10494      0.00000     0.39198    0.00308     0.39506
      H   27    0.10084      0.00000     0.39797    0.00119     0.39916
      H   28    0.10918      0.00000     0.38993    0.00089     0.39082
      H   29    0.08860      0.00000     0.41020    0.00121     0.41140
      H   30    0.08647      0.00000     0.41256    0.00097     0.41353
      H   31    0.09563      0.00000     0.40284    0.00153     0.40437
      H   32    0.10488      0.00000     0.39410    0.00102     0.39512
      H   33    0.10137      0.00000     0.39783    0.00081     0.39863
      H   34    0.10362      0.00000     0.39525    0.00113     0.39638
      H   35    0.10405      0.00000     0.39473    0.00122     0.39595
      H   36    0.10135      0.00000     0.39785    0.00080     0.39865
 =======================================================================
   * Total *   -0.00000     15.99428    44.78963    0.21609    61.00000

 Normal termination of Gaussian 16 at Fri Dec 11 01:11:52 2020.
