 Gaussian 16, Revision A.03,

 -----------------------------------------------------------
 # opt freq B3LYP/6-31G(d) empiricaldispersion=gd3bj scf=xqc
 -----------------------------------------------------------

 ------------------------------
 CID_45083897_JID_1731_neutraal
 ------------------------------
 Symbolic Z-matrix:
 Charge =  0 Multiplicity = 1

 SCF Done:  E(RB3LYP) =  -533.972619533     A.U. after   15 cycles
 SCF Done:  E(RB3LYP) =  -533.975636793     A.U. after   13 cycles
 SCF Done:  E(RB3LYP) =  -533.975810289     A.U. after   11 cycles
 SCF Done:  E(RB3LYP) =  -533.975888453     A.U. after   11 cycles
 SCF Done:  E(RB3LYP) =  -533.975960193     A.U. after   10 cycles
 SCF Done:  E(RB3LYP) =  -533.976089307     A.U. after   11 cycles
 SCF Done:  E(RB3LYP) =  -533.975002898     A.U. after   15 cycles
 SCF Done:  E(RB3LYP) =  -533.976364012     A.U. after   12 cycles
 SCF Done:  E(RB3LYP) =  -533.976445097     A.U. after   11 cycles
 SCF Done:  E(RB3LYP) =  -533.976485205     A.U. after   11 cycles
 SCF Done:  E(RB3LYP) =  -533.976500157     A.U. after    9 cycles
 SCF Done:  E(RB3LYP) =  -533.976506551     A.U. after   10 cycles
 SCF Done:  E(RB3LYP) =  -533.976509552     A.U. after    9 cycles
 SCF Done:  E(RB3LYP) =  -533.976509939     A.U. after    8 cycles
 SCF Done:  E(RB3LYP) =  -533.976510133     A.U. after    7 cycles
 SCF Done:  E(RB3LYP) =  -533.976510250     A.U. after    8 cycles
 Optimization completed.
    -- Stationary point found.
 Normal termination of Gaussian 16 at Tue Dec  8 21:02:42 2020.

 --------------------------------------------------------------------
 #N Geom=AllCheck Guess=TCheck SCRF=Check GenChk RB3LYP/6-31G(d) Freq
 --------------------------------------------------------------------

 Structure from the checkpoint file:  "JID_1731.chk"
 ------------------------------
 CID_45083897_JID_1731_neutraal
 ------------------------------
 Charge =  0 Multiplicity = 1

 SCF Done:  E(RB3LYP) =  -533.976510250     A.U. after    1 cycles

  Exact polarizability: 111.251  -3.796  79.028   1.222   0.478  77.636
 Approx polarizability: 140.678  -5.805 120.190  11.589   1.858 118.714

                      1                      2                      3
                      A                      A                      A
 Frequencies --     25.2585                60.1554                67.1012
 Red. masses --      6.2652                 3.7326                 4.8161
 Frc consts  --      0.0024                 0.0080                 0.0128
 IR Inten    --      2.5838                 1.0260                 1.3354

                      4                      5                      6
                      A                      A                      A
 Frequencies --    125.9151               140.2808               183.3261
 Red. masses --      4.2837                 1.0514                 2.9221
 Frc consts  --      0.0400                 0.0122                 0.0579
 IR Inten    --      0.3821                 0.3346                 6.6350

                      7                      8                      9
                      A                      A                      A
 Frequencies --    204.9417               227.5655               305.0325
 Red. masses --      3.3248                 3.9356                 2.7824
 Frc consts  --      0.0823                 0.1201                 0.1525
 IR Inten    --      4.8620                 3.9306                12.0894

                     10                     11                     12
                      A                      A                      A
 Frequencies --    356.2253               404.7767               482.7136
 Red. masses --      2.1710                 2.8121                 3.1801
 Frc consts  --      0.1623                 0.2715                 0.4366
 IR Inten    --      6.8973                 0.7841                 3.1858

                     13                     14                     15
                      A                      A                      A
 Frequencies --    518.8527               537.1906               557.3069
 Red. masses --      1.9487                 3.3934                 2.5464
 Frc consts  --      0.3091                 0.5770                 0.4660
 IR Inten    --     31.0609                 8.7458                16.3695

                     16                     17                     18
                      A                      A                      A
 Frequencies --    628.6604               702.5890               748.5097
 Red. masses --      1.8109                 2.4487                 5.3212
 Frc consts  --      0.4217                 0.7122                 1.7565
 IR Inten    --     59.1163                 2.2139                17.2960

                     19                     20                     21
                      A                      A                      A
 Frequencies --    824.4389               858.4050               880.9769
 Red. masses --      2.7297                 3.0520                 2.9702
 Frc consts  --      1.0932                 1.3250                 1.3582
 IR Inten    --      7.0630                 1.8097                 2.5666

                     22                     23                     24
                      A                      A                      A
 Frequencies --    921.8081               964.8405               988.6098
 Red. masses --      2.1801                 1.8798                 1.8612
 Frc consts  --      1.0915                 1.0310                 1.0718
 IR Inten    --      4.1432                 3.5027                 7.1606

                     25                     26                     27
                      A                      A                      A
 Frequencies --   1018.8840              1025.5382              1050.5093
 Red. masses --      1.7436                 1.6221                 1.6148
 Frc consts  --      1.0665                 1.0052                 1.0499
 IR Inten    --      3.7965                 1.9453                11.1007

                     28                     29                     30
                      A                      A                      A
 Frequencies --   1064.7447              1097.6302              1168.8056
 Red. masses --      1.7347                 1.6889                 1.7795
 Frc consts  --      1.1587                 1.1988                 1.4323
 IR Inten    --      4.6918                 8.2307                17.1983

                     31                     32                     33
                      A                      A                      A
 Frequencies --   1196.1773              1213.0142              1225.2705
 Red. masses --      1.3347                 1.8660                 2.2570
 Frc consts  --      1.1252                 1.6177                 1.9964
 IR Inten    --      3.5748                20.5631                16.5060

                     34                     35                     36
                      A                      A                      A
 Frequencies --   1267.8168              1308.2585              1338.2688
 Red. masses --      1.5093                 1.4331                 1.3304
 Frc consts  --      1.4294                 1.4451                 1.4039
 IR Inten    --     42.2536                 2.7372                 4.4960

                     37                     38                     39
                      A                      A                      A
 Frequencies --   1352.5953              1359.0883              1378.2976
 Red. masses --      1.4530                 1.6004                 1.6701
 Frc consts  --      1.5662                 1.7417                 1.8693
 IR Inten    --     73.5114               130.4514                11.6651

                     40                     41                     42
                      A                      A                      A
 Frequencies --   1387.6455              1420.5906              1426.8267
 Red. masses --      1.5594                 1.9890                 1.5372
 Frc consts  --      1.7691                 2.3650                 1.8439
 IR Inten    --     12.0630               185.0534                60.6522

                     43                     44                     45
                      A                      A                      A
 Frequencies --   1454.0901              1495.5416              1502.3298
 Red. masses --      2.0197                 1.6808                 1.0666
 Frc consts  --      2.5161                 2.2150                 1.4183
 IR Inten    --     50.1889                89.7127                 6.1514

                     46                     47                     48
                      A                      A                      A
 Frequencies --   1512.4942              1517.1674              1544.0078
 Red. masses --      1.0900                 1.0552                 1.0812
 Frc consts  --      1.4691                 1.4310                 1.5186
 IR Inten    --      3.3591                15.0856                 1.1920

                     49                     50                     51
                      A                      A                      A
 Frequencies --   1555.7400              1794.8596              1803.5894
 Red. masses --      1.0927                 8.1416                 8.0830
 Frc consts  --      1.5582                15.4534                15.4916
 IR Inten    --     14.2957               514.1167               278.4235

                     52                     53                     54
                      A                      A                      A
 Frequencies --   2964.5269              3040.3375              3057.0989
 Red. masses --      1.0851                 1.0678                 1.0679
 Frc consts  --      5.6185                 5.8154                 5.8806
 IR Inten    --     90.9377                48.7982                18.0508

                     55                     56                     57
                      A                      A                      A
 Frequencies --   3058.8563              3071.0672              3102.7307
 Red. masses --      1.0407                 1.0665                 1.0973
 Frc consts  --      5.7369                 5.9263                 6.2239
 IR Inten    --      3.5537                17.3085                29.2998

                     58                     59                     60
                      A                      A                      A
 Frequencies --   3117.6113              3120.2286              3126.9636
 Red. masses --      1.0978                 1.0891                 1.0978
 Frc consts  --      6.2867                 6.2472                 6.3246
 IR Inten    --     19.6112                17.4501                12.7282

                     61                     62                     63
                      A                      A                      A
 Frequencies --   3139.5529              3181.6111              3584.8705
 Red. masses --      1.1016                 1.1000                 1.0760
 Frc consts  --      6.3976                 6.5608                 8.1470
 IR Inten    --     27.4174                 7.7624                16.8905

 - Thermochemistry -
 -------------------
 Temperature   298.150 Kelvin.  Pressure   1.00000 Atm.
 Atom     1 has atomic number  6 and mass  12.00000

 Molecular mass:   156.08988 amu.
 Principal axes and moments of inertia in atomic units:
                           1         2         3
     Eigenvalues --   748.967143212.603523423.60251
           X            0.99983  -0.00723  -0.01676
           Y            0.00675   0.99957  -0.02855
           Z            0.01696   0.02844   0.99945
 This molecule is an asymmetric top.
 Rotational symmetry number  1.
 Warning -- assumption of classical behavior for rotation
           may cause significant error
 Rotational temperatures (Kelvin)      0.11564     0.02696     0.02530
 Rotational constants (GHZ):           2.40964     0.56177     0.52715
 Zero-point vibrational energy     512963.0 (Joules/Mol)
                                  122.60110 (Kcal/Mol)
 Warning -- explicit consideration of  15 degrees of freedom as
           vibrations may cause significant error
 Vibrational temperatures:     36.34    86.55    96.54   181.16   201.83
          (Kelvin)            263.77   294.87   327.42   438.87   512.53
                              582.38   694.52   746.51   772.90   801.84
                              904.50  1010.87  1076.94  1186.18  1235.05
                             1267.53  1326.28  1388.19  1422.39  1465.95
                             1475.52  1511.45  1531.93  1579.25  1681.65
                             1721.03  1745.26  1762.89  1824.11  1882.29
                             1925.47  1946.08  1955.42  1983.06  1996.51
                             2043.91  2052.89  2092.11  2151.75  2161.52
                             2176.14  2182.87  2221.48  2238.36  2582.40
                             2594.96  4265.29  4374.37  4398.48  4401.01
                             4418.58  4464.14  4485.55  4489.31  4499.00
                             4517.12  4577.63  5157.83

 Zero-point correction=                           0.195377 (Hartree/Particle)
 Thermal correction to Energy=                    0.206630
 Thermal correction to Enthalpy=                  0.207574
 Thermal correction to Gibbs Free Energy=         0.156737
 Sum of electronic and zero-point Energies=           -533.781133
 Sum of electronic and thermal Energies=              -533.769880
 Sum of electronic and thermal Enthalpies=            -533.768936
 Sum of electronic and thermal Free Energies=         -533.819773

                     E (Thermal)             CV                S
                      KCal/Mol        Cal/Mol-Kelvin    Cal/Mol-Kelvin
 Total                  129.662             40.317            106.996
 Electronic               0.000              0.000              0.000
 Translational            0.889              2.981             41.045
 Rotational               0.889              2.981             30.489
 Vibrational            127.885             34.355             35.462
 Vibration     1          0.593              1.985              6.171
 Vibration     2          0.597              1.973              4.452
 Vibration     3          0.598              1.970              4.237
 Vibration     4          0.611              1.927              3.008
 Vibration     5          0.615              1.913              2.800
 Vibration     6          0.631              1.863              2.294
 Vibration     7          0.640              1.833              2.088
 Vibration     8          0.651              1.799              1.898
 Vibration     9          0.696              1.664              1.389
 Vibration    10          0.732              1.562              1.139
 Vibration    11          0.770              1.460              0.945
 Vibration    12          0.839              1.288              0.703
 Vibration    13          0.874              1.208              0.613
 Vibration    14          0.892              1.168              0.571
 Vibration    15          0.913              1.124              0.529

                           ! Non-Optimized Parameters !
 Normal termination of Gaussian 16 at Tue Dec  8 21:08:20 2020.

 ----------------------------------------------------------------------
 # B3LYP/6-311++G(d,p) empiricaldispersion=gd3bj scf=xqc pop=npa geom=c
 heck
 ----------------------------------------------------------------------

 --------------------------------------
 CID_45083897_JID_1731_Energie_neutraal
 --------------------------------------
 Structure from the checkpoint file:  "JID_1731.chk"
 Charge =  0 Multiplicity = 1

 SCF Done:  E(RB3LYP) =  -534.138127784     A.U. after   14 cycles
 Normal termination of Gaussian 16 at Tue Dec  8 21:12:00 2020.

 ----------------------------------------------------------------------
 # B3LYP/6-311++G(d,p) empiricaldispersion=gd3bj scf=xqc pop=npa geom=c
 heck
 ----------------------------------------------------------------------

 ------------------------------------
 CID_45083897_JID_1731_Energie_kation
 ------------------------------------
 Structure from the checkpoint file:  "JID_1731.chk"
 Charge =  1 Multiplicity = 2

 SCF Done:  E(UB3LYP) =  -533.811770584     A.U. after   28 cycles
 Normal termination of Gaussian 16 at Tue Dec  8 21:20:58 2020.
 Gaussian 16:  ES64L-G16RevA.03 25-Dec-2016

 ----------------------------------------------------------------------
 # B3LYP/6-311++G(d,p) empiricaldispersion=gd3bj scf=xqc pop=npa geom=c
 heck
 ----------------------------------------------------------------------

 -----------------------------------
 CID_45083897_JID_1731_Energie_anion
 -----------------------------------
 Structure from the checkpoint file:  "JID_1731.chk"
 Charge = -1 Multiplicity = 2

                         Standard orientation:
 ---------------------------------------------------------------------
 Center     Atomic      Atomic             Coordinates (Angstroms)
 Number     Number       Type             X           Y           Z
 ---------------------------------------------------------------------
      1          6           0       -3.293295    0.465579    0.611447
      2          6           0       -2.498320   -0.561854   -0.179030
      3          8           0       -3.029603   -1.364854   -0.932599
      4          7           0       -1.138306   -0.570606    0.021382
      5          6           0       -0.341639    0.424165    0.726149
      6          6           0        0.004917    1.646153   -0.156889
      7          6           0        1.142946    1.123528   -1.045000
      8          7           0        1.813825    0.152619   -0.171184
      9          6           0        1.046364   -0.151322    1.039485
     10          6           0        3.043615   -0.381038   -0.381375
     11          8           0        3.597015   -1.156912    0.382352
     12          1           0       -4.344148    0.355023    0.343627
     13          1           0       -2.970750    1.489383    0.392105
     14          1           0       -3.179792    0.306414    1.690174
     15          1           0       -0.649562   -1.248312   -0.552394
     16          1           0       -0.864432    0.714989    1.639739
     17          1           0        0.364103    2.465481    0.476475
     18          1           0       -0.850154    2.003423   -0.735386
     19          1           0        0.744804    0.635287   -1.944214
     20          1           0        1.830164    1.913524   -1.362846
     21          1           0        1.492491    0.338096    1.913991
     22          1           0        1.031238   -1.227088    1.231162
     23          1           0        3.500580   -0.037443   -1.330556
 ---------------------------------------------------------------------

 SCF Done:  E(UB3LYP) =  -534.132823143     A.U. after   29 cycles

 The electronic state is 2-A.
 Alpha  occ. eigenvalues --  -18.99695 -18.99223 -14.25064 -14.23999 -10.17948
 Alpha  occ. eigenvalues --  -10.17158 -10.12618 -10.11629 -10.11420 -10.07933
 Alpha  occ. eigenvalues --  -10.07580  -0.94521  -0.94324  -0.86416  -0.82344
 Alpha  occ. eigenvalues --   -0.69438  -0.65655  -0.64083  -0.56752  -0.52444
 Alpha  occ. eigenvalues --   -0.48539  -0.47582  -0.43709  -0.41091  -0.37951
 Alpha  occ. eigenvalues --   -0.37595  -0.36000  -0.35710  -0.33520  -0.31850
 Alpha  occ. eigenvalues --   -0.31533  -0.30562  -0.30413  -0.28834  -0.28130
 Alpha  occ. eigenvalues --   -0.26936  -0.26560  -0.26253  -0.16956  -0.16468
 Alpha  occ. eigenvalues --   -0.16287  -0.15067   0.04114
 Alpha virt. eigenvalues --    0.06890   0.07648   0.08303   0.09138   0.10027
 Alpha virt. eigenvalues --    0.10157   0.10944   0.11232   0.11364   0.11923
 Alpha virt. eigenvalues --    0.13246   0.13436   0.14156   0.15171   0.15802

  Beta  occ. eigenvalues --  -18.99677 -18.99219 -14.25069 -14.23992 -10.17942
  Beta  occ. eigenvalues --  -10.17143 -10.12596 -10.11596 -10.11393 -10.07884
  Beta  occ. eigenvalues --  -10.07532  -0.94495  -0.94306  -0.86388  -0.82325
  Beta  occ. eigenvalues --   -0.69389  -0.65591  -0.64017  -0.56696  -0.52362
  Beta  occ. eigenvalues --   -0.48480  -0.47519  -0.43670  -0.41020  -0.37907
  Beta  occ. eigenvalues --   -0.37563  -0.35943  -0.35672  -0.33470  -0.31792
  Beta  occ. eigenvalues --   -0.31500  -0.30526  -0.30366  -0.28778  -0.28070
  Beta  occ. eigenvalues --   -0.26876  -0.26485  -0.26209  -0.16937  -0.16450
  Beta  occ. eigenvalues --   -0.16255  -0.15030
  Beta virt. eigenvalues --    0.06936   0.07786   0.08215   0.09002   0.09577
  Beta virt. eigenvalues --    0.10368   0.10631   0.11479   0.11707   0.11971
  Beta virt. eigenvalues --    0.12273   0.13555   0.13809   0.14437   0.15686

 Mulliken charges and spin densities:
               1          2
     1  C    0.564800  -1.001063
     2  C    0.263642  -0.171974
     3  O   -0.369412   0.013980
     4  N   -0.028452  -0.090808
     5  C   -0.665610   0.723342
     6  C    1.525611  -1.820151
     7  C    0.661901  -1.152624
     8  N   -0.131541   0.207259
     9  C   -0.182882  -0.465059
    10  C    0.206372  -0.023772
    11  O   -0.387978   0.013210
    12  H    0.106641   0.070864
    13  H   -0.438361   0.600611
    14  H   -0.366741   0.535325
    15  H    0.247974   0.045817
    16  H   -0.548121   0.808699
    17  H   -0.612628   0.812485
    18  H   -0.144110   0.291410
    19  H    0.129519   0.051248
    20  H   -0.603089   0.814980
    21  H   -0.319045   0.541460
    22  H    0.182220   0.024726
    23  H   -0.090711   0.170033
 Sum of Mulliken charges =  -1.00000   1.00000

 Dipole moment (field-independent basis, Debye):
    X=              0.0531    Y=             -3.9461    Z=             -2.6415  Tot=              4.7489
 Quadrupole moment (field-independent basis, Debye-Ang):
   XX=           -130.4643   YY=           -114.3289   ZZ=           -100.2566
   XY=             -2.1403   XZ=             -4.2200   YZ=             -4.2287

 Summary of Natural Population Analysis:

                                       Natural Population
                Natural  -----------------------------------------------
    Atom  No    Charge         Core      Valence    Rydberg      Total
 -----------------------------------------------------------------------
      C    1   -0.33579      0.99963     2.33129    0.00488     3.33579
      C    2    0.34707      0.99970     1.63126    0.02197     2.65293
      O    3   -0.32567      0.99988     3.31957    0.00623     4.32567
      N    4   -0.32630      0.99966     2.81655    0.01008     3.82630
      C    5   -0.02106      0.99958     2.00697    0.01450     3.02106
      C    6   -0.19647      0.99962     2.18714    0.00971     3.19647
      C    7   -0.08271      0.99962     2.07239    0.01070     3.08271
      N    8   -0.25845      0.99968     2.74818    0.01059     3.75845
      C    9   -0.08456      0.99960     2.07258    0.01238     3.08456
      C   10    0.27654      0.99968     1.70168    0.02209     2.72346
      O   11   -0.31819      0.99989     3.31221    0.00610     4.31819
      H   12    0.11160      0.00000     0.38762    0.00078     0.38840
      H   13    0.11238      0.00000     0.38613    0.00149     0.38762
      H   14    0.11244      0.00000     0.38626    0.00131     0.38756
      H   15    0.19317      0.00000     0.30430    0.00253     0.30683
      H   16    0.11344      0.00000     0.38236    0.00421     0.38656
      H   17    0.11152      0.00000     0.38032    0.00816     0.38848
      H   18    0.10716      0.00000     0.39101    0.00183     0.39284
      H   19    0.09053      0.00000     0.40805    0.00142     0.40947
      H   20    0.10686      0.00000     0.39008    0.00306     0.39314
      H   21    0.10784      0.00000     0.39064    0.00152     0.39216
      H   22    0.10643      0.00000     0.39241    0.00116     0.39357
      H   23    0.05221      0.00000     0.44617    0.00163     0.44779
 =======================================================================
   * Total *   -0.00000     10.99653    30.84516    0.15831    42.00000

 Normal termination of Gaussian 16 at Tue Dec  8 21:31:23 2020.
