 Gaussian 16, Revision A.03,

 -----------------------------------------------------------
 # opt freq B3LYP/6-31G(d) empiricaldispersion=gd3bj scf=xqc
 -----------------------------------------------------------

 ------------------------------
 CID_79554773_JID_3616_neutraal
 ------------------------------
 Symbolic Z-matrix:
 Charge =  0 Multiplicity = 1

 SCF Done:  E(RB3LYP) =  -616.399091454     A.U. after   15 cycles
 SCF Done:  E(RB3LYP) =  -616.403525218     A.U. after   13 cycles
 SCF Done:  E(RB3LYP) =  -616.404981652     A.U. after   13 cycles
 SCF Done:  E(RB3LYP) =  -616.406145330     A.U. after   15 cycles
 SCF Done:  E(RB3LYP) =  -616.407844272     A.U. after   12 cycles
 SCF Done:  E(RB3LYP) =  -616.408875954     A.U. after   13 cycles
 SCF Done:  E(RB3LYP) =  -616.408933467     A.U. after   15 cycles
 SCF Done:  E(RB3LYP) =  -616.410116144     A.U. after   12 cycles
 SCF Done:  E(RB3LYP) =  -616.410312631     A.U. after   11 cycles
 SCF Done:  E(RB3LYP) =  -616.410433323     A.U. after   11 cycles
 SCF Done:  E(RB3LYP) =  -616.410484367     A.U. after   10 cycles
 SCF Done:  E(RB3LYP) =  -616.410486081     A.U. after    9 cycles
 SCF Done:  E(RB3LYP) =  -616.410486698     A.U. after    9 cycles
 SCF Done:  E(RB3LYP) =  -616.410487093     A.U. after    8 cycles
 SCF Done:  E(RB3LYP) =  -616.410487123     A.U. after    7 cycles
 Optimization completed.
    -- Stationary point found.
 Normal termination of Gaussian 16 at Wed Dec  9 23:50:25 2020.

 --------------------------------------------------------------------
 #N Geom=AllCheck Guess=TCheck SCRF=Check GenChk RB3LYP/6-31G(d) Freq
 --------------------------------------------------------------------

 Structure from the checkpoint file:  "JID_3616.chk"
 ------------------------------
 CID_79554773_JID_3616_neutraal
 ------------------------------
 Charge =  0 Multiplicity = 1

 SCF Done:  E(RB3LYP) =  -616.410487123     A.U. after    2 cycles

  Exact polarizability: 131.979  -0.161 109.262  -3.550   0.953  87.988
 Approx polarizability: 159.188   3.311 170.362 -11.123   2.792 132.578

                      1                      2                      3
                      A                      A                      A
 Frequencies --     24.3752                40.2058                51.7667
 Red. masses --      4.3695                 3.3514                 3.1393
 Frc consts  --      0.0015                 0.0032                 0.0050
 IR Inten    --      2.5240                 0.5940                 0.5755

                      4                      5                      6
                      A                      A                      A
 Frequencies --     71.0561                94.8075               128.6067
 Red. masses --      3.7314                 4.0532                 2.7537
 Frc consts  --      0.0111                 0.0215                 0.0268
 IR Inten    --      1.2800                 0.0509                 1.4856

                      7                      8                      9
                      A                      A                      A
 Frequencies --    150.8452               192.3015               229.2517
 Red. masses --      2.1674                 1.7752                 1.7017
 Frc consts  --      0.0291                 0.0387                 0.0527
 IR Inten    --      1.0865                 0.4194                 6.0024

                     10                     11                     12
                      A                      A                      A
 Frequencies --    245.5458               274.6253               287.9625
 Red. masses --      1.6665                 3.2413                 1.8947
 Frc consts  --      0.0592                 0.1440                 0.0926
 IR Inten    --      0.2499                 1.4364                 0.9933

                     13                     14                     15
                      A                      A                      A
 Frequencies --    304.6699               330.7461               359.8325
 Red. masses --      2.1522                 3.2564                 3.5285
 Frc consts  --      0.1177                 0.2099                 0.2692
 IR Inten    --      3.7276                 1.3696                23.6420

                     16                     17                     18
                      A                      A                      A
 Frequencies --    375.3063               425.0118               463.8919
 Red. masses --      4.0764                 3.1070                 3.7205
 Frc consts  --      0.3383                 0.3307                 0.4717
 IR Inten    --      1.5642                 2.9806                 5.9568

                     19                     20                     21
                      A                      A                      A
 Frequencies --    500.8090               585.0414               670.1217
 Red. masses --      5.2413                 2.5548                 2.4976
 Frc consts  --      0.7745                 0.5152                 0.6608
 IR Inten    --     15.8423                 0.8139                 4.0410

                     22                     23                     24
                      A                      A                      A
 Frequencies --    747.6297               759.9564               798.1381
 Red. masses --      6.9775                 1.9124                 1.3857
 Frc consts  --      2.2978                 0.6508                 0.5201
 IR Inten    --      6.3898                 1.1911                 7.8226

                     25                     26                     27
                      A                      A                      A
 Frequencies --    816.2859               836.4563               843.9365
 Red. masses --      1.1031                 3.3379                 1.9336
 Frc consts  --      0.4330                 1.3760                 0.8114
 IR Inten    --      1.0011                 5.2574                 1.6739

                     28                     29                     30
                      A                      A                      A
 Frequencies --    870.1725               886.8443               912.5699
 Red. masses --      2.5178                 3.0816                 2.0505
 Frc consts  --      1.1233                 1.4280                 1.0061
 IR Inten    --      4.8374                12.3378                 5.0363

                     31                     32                     33
                      A                      A                      A
 Frequencies --    926.6821               974.8501              1009.5795
 Red. masses --      1.8282                 3.3280                 1.1912
 Frc consts  --      0.9250                 1.8634                 0.7154
 IR Inten    --      3.8635                21.0678                 0.2854

                     34                     35                     36
                      A                      A                      A
 Frequencies --   1048.4911              1066.0770              1075.1336
 Red. masses --      3.0142                 2.3209                 1.3852
 Frc consts  --      1.9523                 1.5541                 0.9434
 IR Inten    --     13.5455                28.4040                 4.9019

                     37                     38                     39
                      A                      A                      A
 Frequencies --   1091.6425              1106.6133              1115.9674
 Red. masses --      1.6361                 1.6724                 1.4874
 Frc consts  --      1.1487                 1.2067                 1.0914
 IR Inten    --     92.9124                10.6859                11.5475

                     40                     41                     42
                      A                      A                      A
 Frequencies --   1131.8723              1144.3701              1180.9290
 Red. masses --      1.9336                 2.1213                 3.1858
 Frc consts  --      1.4595                 1.6367                 2.6177
 IR Inten    --     13.4746               126.1976               222.5475

                     43                     44                     45
                      A                      A                      A
 Frequencies --   1211.8798              1227.4608              1257.6114
 Red. masses --      1.8842                 1.2989                 1.3034
 Frc consts  --      1.6304                 1.1531                 1.2146
 IR Inten    --     64.4561                 0.3096                 3.5941

                     46                     47                     48
                      A                      A                      A
 Frequencies --   1300.5588              1319.6255              1343.2898
 Red. masses --      2.1945                 1.5112                 1.1196
 Frc consts  --      2.1870                 1.5505                 1.1903
 IR Inten    --     20.9154                27.9326                 8.0099

                     49                     50                     51
                      A                      A                      A
 Frequencies --   1358.2234              1392.2693              1415.5760
 Red. masses --      3.0395                 1.4073                 1.6241
 Frc consts  --      3.3037                 1.6072                 1.9174
 IR Inten    --    196.9982                 4.9315                32.3470

                     52                     53                     54
                      A                      A                      A
 Frequencies --   1422.3709              1438.5899              1444.3968
 Red. masses --      1.4115                 1.2734                 1.3450
 Frc consts  --      1.6825                 1.5527                 1.6533
 IR Inten    --     30.8243                 5.8715                10.2394

                     55                     56                     57
                      A                      A                      A
 Frequencies --   1461.5377              1467.5864              1507.5752
 Red. masses --      1.0893                 1.0923                 1.3039
 Frc consts  --      1.3709                 1.3861                 1.7460
 IR Inten    --     16.6324                 6.4009                 8.3073

                     58                     59                     60
                      A                      A                      A
 Frequencies --   1513.3768              1516.1567              1519.4590
 Red. masses --      1.0757                 1.0530                 1.0828
 Frc consts  --      1.4516                 1.4261                 1.4729
 IR Inten    --      4.7521                11.5683                 7.9421

                     61                     62                     63
                      A                      A                      A
 Frequencies --   1529.2365              1537.4268              1542.6765
 Red. masses --      1.0493                 1.0578                 1.0512
 Frc consts  --      1.4457                 1.4731                 1.4740
 IR Inten    --      5.1523                 7.7053                 5.4652

                     64                     65                     66
                      A                      A                      A
 Frequencies --   1774.5338              1801.6895              3045.5733
 Red. masses --     10.6445                11.6412                 1.0394
 Frc consts  --     19.7489                22.2642                 5.6804
 IR Inten    --     97.8543               243.0981                29.3463

                     67                     68                     69
                      A                      A                      A
 Frequencies --   3052.7433              3059.8861              3062.0267
 Red. masses --      1.0650                 1.0645                 1.0361
 Frc consts  --      5.8476                 5.8722                 5.7235
 IR Inten    --     38.2678                 7.4282                15.2712

                     70                     71                     72
                      A                      A                      A
 Frequencies --   3088.8015              3096.7921              3097.5506
 Red. masses --      1.0962                 1.0973                 1.0592
 Frc consts  --      6.1617                 6.2003                 5.9880
 IR Inten    --      2.8279                 8.5013                25.8701

                     73                     74                     75
                      A                      A                      A
 Frequencies --   3113.1605              3127.8866              3134.1541
 Red. masses --      1.1000                 1.1018                 1.1015
 Frc consts  --      6.2814                 6.3514                 6.3748
 IR Inten    --     52.3748                24.2446                35.0974

                     76                     77                     78
                      A                      A                      A
 Frequencies --   3141.8928              3161.0374              3173.7593
 Red. masses --      1.1035                 1.1081                 1.0567
 Frc consts  --      6.4180                 6.5239                 6.2714
 IR Inten    --      7.7898                25.9262                 4.0997

                     79                     80                     81
                      A                      A                      A
 Frequencies --   3175.7739              3263.7414              3275.4442
 Red. masses --      1.0499                 1.1210                 1.1182
 Frc consts  --      6.2389                 7.0351                 7.0679
 IR Inten    --      7.5978                 0.3026                 1.0209

 - Thermochemistry -
 -------------------
 Temperature   298.150 Kelvin.  Pressure   1.00000 Atm.
 Atom     1 has atomic number  6 and mass  12.00000

 Molecular mass:   184.10994 amu.
 Principal axes and moments of inertia in atomic units:
                           1         2         3
     Eigenvalues --  1198.895104186.756224844.20154
           X            0.99989  -0.00958   0.01113
           Y            0.00951   0.99994   0.00628
           Z           -0.01119  -0.00617   0.99992
 This molecule is an asymmetric top.
 Rotational symmetry number  1.
 Warning -- assumption of classical behavior for rotation
           may cause significant error
 Rotational temperatures (Kelvin)      0.07224     0.02069     0.01788
 Rotational constants (GHZ):           1.50534     0.43106     0.37256
 Zero-point vibrational energy     655100.8 (Joules/Mol)
                                  156.57286 (Kcal/Mol)
 Warning -- explicit consideration of  20 degrees of freedom as
           vibrations may cause significant error
 Vibrational temperatures:     35.07    57.85    74.48   102.23   136.41
          (Kelvin)            185.04   217.03   276.68   329.84   353.29
                              395.12   414.31   438.35   475.87   517.72
                              539.98   611.50   667.44   720.55   841.74
                              964.16  1075.67  1093.41  1148.34  1174.45
                             1203.47  1214.24  1251.98  1275.97  1312.98
                             1333.29  1402.59  1452.56  1508.54  1533.85
                             1546.88  1570.63  1592.17  1605.63  1628.51
                             1646.49  1699.09  1743.62  1766.04  1809.42
                             1871.21  1898.65  1932.69  1954.18  2003.16
                             2036.70  2046.47  2069.81  2078.16  2102.83
                             2111.53  2169.06  2177.41  2181.41  2186.16
                             2200.23  2212.01  2219.57  2553.16  2592.23
                             4381.90  4392.22  4402.49  4405.57  4444.10
                             4455.59  4456.68  4479.14  4500.33  4509.35
                             4520.48  4548.03  4566.33  4569.23  4695.80
                             4712.63

 Zero-point correction=                           0.249515 (Hartree/Particle)
 Thermal correction to Energy=                    0.263942
 Thermal correction to Enthalpy=                  0.264886
 Thermal correction to Gibbs Free Energy=         0.206706
 Sum of electronic and zero-point Energies=           -616.160972
 Sum of electronic and thermal Energies=              -616.146545
 Sum of electronic and thermal Enthalpies=            -616.145601
 Sum of electronic and thermal Free Energies=         -616.203781

                     E (Thermal)             CV                S
                      KCal/Mol        Cal/Mol-Kelvin    Cal/Mol-Kelvin
 Total                  165.626             52.252            122.450
 Electronic               0.000              0.000              0.000
 Translational            0.889              2.981             41.537
 Rotational               0.889              2.981             31.564
 Vibrational            163.849             46.290             49.348
 Vibration     1          0.593              1.985              6.241
 Vibration     2          0.594              1.981              5.249
 Vibration     3          0.596              1.977              4.749
 Vibration     4          0.598              1.968              4.124
 Vibration     5          0.603              1.953              3.558
 Vibration     6          0.611              1.925              2.967
 Vibration     7          0.618              1.902              2.662
 Vibration     8          0.634              1.851              2.206
 Vibration     9          0.652              1.796              1.885
 Vibration    10          0.660              1.770              1.762
 Vibration    11          0.677              1.720              1.567
 Vibration    12          0.685              1.696              1.486
 Vibration    13          0.696              1.665              1.391
 Vibration    14          0.713              1.614              1.256
 Vibration    15          0.734              1.555              1.123
 Vibration    16          0.746              1.523              1.058
 Vibration    17          0.787              1.416              0.875
 Vibration    18          0.821              1.330              0.755
 Vibration    19          0.856              1.248              0.656
 Vibration    20          0.942              1.064              0.476

 Optimization completed.
    -- Stationary point found.
 Normal termination of Gaussian 16 at Wed Dec  9 23:57:21 2020.

 ----------------------------------------------------------------------
 # B3LYP/6-311++G(d,p) empiricaldispersion=gd3bj scf=xqc pop=npa geom=c
 heck
 ----------------------------------------------------------------------

 --------------------------------------
 CID_79554773_JID_3616_Energie_neutraal
 --------------------------------------
 Structure from the checkpoint file:  "JID_3616.chk"
 Charge =  0 Multiplicity = 1

 SCF Done:  E(RB3LYP) =  -616.587620595     A.U. after   15 cycles
 Normal termination of Gaussian 16 at Thu Dec 10 00:00:07 2020.

 ----------------------------------------------------------------------
 # B3LYP/6-311++G(d,p) empiricaldispersion=gd3bj scf=xqc pop=npa geom=c
 heck
 ----------------------------------------------------------------------

 ------------------------------------
 CID_79554773_JID_3616_Energie_kation
 ------------------------------------
 Structure from the checkpoint file:  "JID_3616.chk"
 Charge =  1 Multiplicity = 2

 SCF Done:  E(UB3LYP) =  -616.248643747     A.U. after   29 cycles
 Normal termination of Gaussian 16 at Thu Dec 10 00:07:11 2020.
 Gaussian 16:  ES64L-G16RevA.03 25-Dec-2016

 ----------------------------------------------------------------------
 # B3LYP/6-311++G(d,p) empiricaldispersion=gd3bj scf=xqc pop=npa geom=c
 heck
 ----------------------------------------------------------------------

 -----------------------------------
 CID_79554773_JID_3616_Energie_anion
 -----------------------------------
 Structure from the checkpoint file:  "JID_3616.chk"
 Charge = -1 Multiplicity = 2

                         Standard orientation:
 ---------------------------------------------------------------------
 Center     Atomic      Atomic             Coordinates (Angstroms)
 Number     Number       Type             X           Y           Z
 ---------------------------------------------------------------------
      1          6           0        4.062803   -0.636397    0.904882
      2          6           0        3.353702   -1.212571   -0.323830
      3          6           0        1.831522   -1.065757   -0.265328
      4          6           0        1.361363    0.368382   -0.421961
      5          8           0        2.119989    1.250182   -0.795918
      6          6           0       -0.057739    0.743010   -0.052881
      7          6           0       -0.143389    1.984403    0.858930
      8          6           0       -0.524743    2.116748   -0.561942
      9          6           0       -1.111093   -0.306661    0.069730
     10          8           0       -1.004891   -1.458238   -0.304452
     11          8           0       -2.244558    0.186845    0.624489
     12          6           0       -3.368738   -0.721124    0.702487
     13          6           0       -4.126240   -0.769734   -0.614130
     14          1           0        3.877368    0.438379    0.992289
     15          1           0        5.146317   -0.785677    0.841622
     16          1           0        3.712683   -1.120752    1.825337
     17          1           0        3.725401   -0.717868   -1.227421
     18          1           0        3.591796   -2.279093   -0.420123
     19          1           0        1.340126   -1.652054   -1.051301
     20          1           0        1.426046   -1.474220    0.669112
     21          1           0       -0.921130    1.968223    1.613038
     22          1           0        0.818903    2.382191    1.163778
     23          1           0        0.177026    2.597193   -1.234620
     24          1           0       -1.576931    2.195926   -0.810151
     25          1           0       -3.001501   -1.709802    0.986341
     26          1           0       -3.984371   -0.315215    1.508274
     27          1           0       -3.494699   -1.186700   -1.403028
     28          1           0       -5.013128   -1.404861   -0.510807
     29          1           0       -4.452904    0.232218   -0.911034
 ---------------------------------------------------------------------

 SCF Done:  E(UB3LYP) =  -616.572221045     A.U. after   33 cycles
 SCF Done:  E(UB3LYP) =  -616.572221045     a.u. after    1 cycles

 The electronic state is 2-A.
 Alpha  occ. eigenvalues --  -19.06500 -19.01145 -19.00168 -10.20661 -10.15111
 Alpha  occ. eigenvalues --  -10.12167 -10.10953 -10.09438 -10.09172 -10.07131
 Alpha  occ. eigenvalues --  -10.07101 -10.06171 -10.05851  -1.00730  -0.93963
 Alpha  occ. eigenvalues --   -0.92084  -0.78333  -0.69561  -0.66896  -0.62139
 Alpha  occ. eigenvalues --   -0.58272  -0.54901  -0.51944  -0.50084  -0.46956
 Alpha  occ. eigenvalues --   -0.44025  -0.41137  -0.39953  -0.38299  -0.36779
 Alpha  occ. eigenvalues --   -0.36076  -0.35718  -0.35087  -0.32525  -0.31340
 Alpha  occ. eigenvalues --   -0.30619  -0.30368  -0.29170  -0.28732  -0.27544
 Alpha  occ. eigenvalues --   -0.26847  -0.25610  -0.24359  -0.24153  -0.24089
 Alpha  occ. eigenvalues --   -0.23078  -0.20567  -0.20098  -0.17922  -0.15415
 Alpha  occ. eigenvalues --    0.04770
 Alpha virt. eigenvalues --    0.06299   0.06700   0.08060   0.08095   0.08773
 Alpha virt. eigenvalues --    0.08963   0.09376   0.09582   0.10557   0.11088
 Alpha virt. eigenvalues --    0.11288   0.11995   0.12112   0.13315   0.13846

  Beta  occ. eigenvalues --  -19.06499 -19.01131 -19.00064 -10.20644 -10.14947
  Beta  occ. eigenvalues --  -10.12134 -10.10968 -10.09418 -10.09159 -10.07129
  Beta  occ. eigenvalues --  -10.07105 -10.06149 -10.05802  -1.00710  -0.93743
  Beta  occ. eigenvalues --   -0.92064  -0.78302  -0.69516  -0.66840  -0.62012
  Beta  occ. eigenvalues --   -0.58219  -0.54787  -0.51894  -0.50016  -0.46850
  Beta  occ. eigenvalues --   -0.43984  -0.41025  -0.39888  -0.38245  -0.36686
  Beta  occ. eigenvalues --   -0.35976  -0.35664  -0.34990  -0.32419  -0.31287
  Beta  occ. eigenvalues --   -0.30529  -0.30209  -0.29084  -0.28653  -0.27448
  Beta  occ. eigenvalues --   -0.26710  -0.25560  -0.24305  -0.24119  -0.23934
  Beta  occ. eigenvalues --   -0.23039  -0.20538  -0.19959  -0.17898  -0.15333
  Beta virt. eigenvalues --    0.06682   0.07586   0.07846   0.08281   0.08467
  Beta virt. eigenvalues --    0.09035   0.09492   0.09776   0.10070   0.10821
  Beta virt. eigenvalues --    0.11253   0.11649   0.12248   0.12519   0.13498

 Mulliken charges and spin densities:
               1          2
     1  C    0.192765  -0.797000
     2  C   -0.669707   0.311448
     3  C    0.452491  -0.380677
     4  C   -0.413335  -0.036035
     5  O   -0.268390   0.032291
     6  C    1.413888  -0.214188
     7  C    0.072965  -0.365282
     8  C    0.529577  -0.906847
     9  C   -1.920293   1.004440
    10  O   -0.223560   0.011686
    11  O   -0.079220   0.071383
    12  C    0.275002  -0.440046
    13  C    1.041084  -1.400734
    14  H    0.029902   0.141882
    15  H   -0.111104   0.236199
    16  H   -0.128724   0.248591
    17  H    0.156210  -0.007406
    18  H    0.062051   0.085991
    19  H    0.139660   0.065491
    20  H    0.032727   0.159945
    21  H    0.050753   0.161261
    22  H    0.126133   0.055719
    23  H    0.109547   0.107179
    24  H    0.082683   0.093886
    25  H    0.091387   0.074559
    26  H   -0.973199   1.151358
    27  H   -0.224191   0.389074
    28  H   -0.682335   0.839261
    29  H   -0.164769   0.306573
 Sum of Mulliken charges =  -1.00000   1.00000

 Dipole moment (field-independent basis, Debye):
    X=              6.7435    Y=              1.3652    Z=             -1.5355  Tot=              7.0496
 Quadrupole moment (field-independent basis, Debye-Ang):
   XX=           -185.2305   YY=           -111.9738   ZZ=           -106.2993
   XY=             -7.3170   XZ=              2.3995   YZ=              2.7195

 Summary of Natural Population Analysis:

                                       Natural Population
                Natural  -----------------------------------------------
    Atom  No    Charge         Core      Valence    Rydberg      Total
 -----------------------------------------------------------------------
      C    1   -0.28896      0.99967     2.28423    0.00506     3.28896
      C    2   -0.19280      0.99965     2.18261    0.01054     3.19280
      C    3   -0.23896      0.99958     2.23151    0.00787     3.23896
      C    4    0.32288      0.99962     1.65651    0.02099     2.67712
      O    5   -0.29809      0.99988     3.29258    0.00564     4.29809
      C    6   -0.13418      0.99947     2.12160    0.01310     3.13418
      C    7   -0.16896      0.99961     2.16151    0.00785     3.16896
      C    8   -0.17531      0.99961     2.16588    0.00982     3.17531
      C    9    0.41583      0.99960     1.55944    0.02513     2.58417
      O   10   -0.31001      0.99987     3.30478    0.00535     4.31001
      O   11   -0.28751      0.99986     3.27787    0.00977     4.28751
      C   12   -0.01442      0.99957     2.00275    0.01210     3.01442
      C   13   -0.29905      0.99966     2.29393    0.00546     3.29905
      H   14    0.10373      0.00000     0.39526    0.00101     0.39627
      H   15    0.09543      0.00000     0.40380    0.00077     0.40457
      H   16    0.09443      0.00000     0.40450    0.00107     0.40557
      H   17    0.10100      0.00000     0.39786    0.00114     0.39900
      H   18    0.09308      0.00000     0.40604    0.00088     0.40692
      H   19    0.12250      0.00000     0.37644    0.00106     0.37750
      H   20    0.11067      0.00000     0.38807    0.00126     0.38933
      H   21    0.11343      0.00000     0.38531    0.00126     0.38657
      H   22    0.10898      0.00000     0.38991    0.00111     0.39102
      H   23    0.11495      0.00000     0.38401    0.00104     0.38505
      H   24    0.11211      0.00000     0.38673    0.00115     0.38789
      H   25    0.09413      0.00000     0.40447    0.00140     0.40587
      H   26    0.09457      0.00000     0.40170    0.00373     0.40543
      H   27    0.10282      0.00000     0.39609    0.00109     0.39718
      H   28    0.10649      0.00000     0.39078    0.00272     0.39351
      H   29    0.10120      0.00000     0.39705    0.00175     0.39880
 =======================================================================
   * Total *   -0.00000     12.99565    36.84323    0.16111    50.00000

 Normal termination of Gaussian 16 at Thu Dec 10 00:15:09 2020.
