 Gaussian 16, Revision A.03,

 -----------------------------------------------------------
 # opt freq B3LYP/6-31G(d) empiricaldispersion=gd3bj scf=xqc
 -----------------------------------------------------------

 ----------------------------
 CID_85867903_JID_43_neutraal
 ----------------------------
 Symbolic Z-matrix:
 Charge =  0 Multiplicity = 1

 SCF Done:  E(RB3LYP) =  -421.531003610     A.U. after   14 cycles
 SCF Done:  E(RB3LYP) =  -421.536405624     A.U. after   12 cycles
 SCF Done:  E(RB3LYP) =  -421.536976346     A.U. after   12 cycles
 SCF Done:  E(RB3LYP) =  -421.537067599     A.U. after   11 cycles
 SCF Done:  E(RB3LYP) =  -421.537070667     A.U. after    8 cycles
 Optimization completed.
    -- Stationary point found.

 1\1\GINC-NODE320\FOpt\RB3LYP\6-31G(d)\C8H12N2\VSC10255\08-Dec-2020\0\\
 # opt freq B3LYP/6-31G(d) empiricaldispersion=gd3bj scf=xqc\\CID_85867
 903_JID_43_neutraal\\0,1\C,-1.2419513427,-0.8023464375,-0.5169407241\C
 ,-1.243811605,0.757984409,-0.545757099\C,0.007456207,1.1328246727,0.29
 40762343\C,1.264324705,0.7598171633,-0.5382090905\C,1.2646557936,-0.80
 05123189,-0.5092531313\C,0.009030782,-1.136343725,0.3256169709\C,0.005
 0622463,0.0087734994,1.3562987003\C,0.0048955693,2.547843047,0.7861562
 047\N,0.6179922821,2.8875214896,2.0891295948\N,-0.6148143602,2.8863109

 Normal termination of Gaussian 16 at Tue Dec  8 10:13:34 2020.

 --------------------------------------------------------------------
 #N Geom=AllCheck Guess=TCheck SCRF=Check GenChk RB3LYP/6-31G(d) Freq
 --------------------------------------------------------------------

 Structure from the checkpoint file:  "JID_43.chk"
 ----------------------------
 CID_85867903_JID_43_neutraal
 ----------------------------
 Charge =  0 Multiplicity = 1

 SCF Done:  E(RB3LYP) =  -421.537070667     A.U. after    1 cycles

  Exact polarizability:  93.632  -0.003  80.947   3.734  -0.001  79.605
 Approx polarizability: 125.828  -0.008 126.816  11.086   0.004 123.417

                      1                      2                      3
                      A                      A                      A
 Frequencies --     51.7322               142.1314               169.5358
 Red. masses --      4.8271                 2.0621                 4.1880
 Frc consts  --      0.0076                 0.0245                 0.0709
 IR Inten    --      1.9762                 0.0561                 1.8048

                      4                      5                      6
                      A                      A                      A
 Frequencies --    202.5103               321.0914               367.9350
 Red. masses --      3.4874                 2.2233                 2.3203
 Frc consts  --      0.0843                 0.1351                 0.1851
 IR Inten    --      0.1823                 1.4022                 0.0819

                      7                      8                      9
                      A                      A                      A
 Frequencies --    430.7445               443.9313               504.0397
 Red. masses --      2.4942                 2.9912                 3.2901
 Frc consts  --      0.2727                 0.3473                 0.4925
 IR Inten    --      0.0739                 0.0953                 0.4019

                     10                     11                     12
                      A                      A                      A
 Frequencies --    554.9744               670.3650               769.4356
 Red. masses --      3.8407                 4.8202                 3.3519
 Frc consts  --      0.6970                 1.2763                 1.1692
 IR Inten    --      0.3000                 9.4126                 0.7978

                     13                     14                     15
                      A                      A                      A
 Frequencies --    787.2538               814.1301               832.2070
 Red. masses --      3.5752                 1.1722                 1.9673
 Frc consts  --      1.3055                 0.4578                 0.8028
 IR Inten    --      0.3526                 0.3241                 0.4420

                     16                     17                     18
                      A                      A                      A
 Frequencies --    854.3157               869.2725               931.1008
 Red. masses --      5.7089                 1.9692                 2.6427
 Frc consts  --      2.4549                 0.8767                 1.3499
 IR Inten    --      5.0934                 0.5329                 0.0569

                     19                     20                     21
                      A                      A                      A
 Frequencies --    931.8781               965.8739               972.4361
 Red. masses --      2.2165                 1.9465                 2.6470
 Frc consts  --      1.1340                 1.0699                 1.4748
 IR Inten    --      0.8031                 0.2494                 0.5182

                     22                     23                     24
                      A                      A                      A
 Frequencies --    973.2058              1005.7050              1031.0545
 Red. masses --      1.8005                 1.6563                 2.3155
 Frc consts  --      1.0047                 0.9870                 1.4503
 IR Inten    --      0.2447                 0.6060                 0.6200

                     25                     26                     27
                      A                      A                      A
 Frequencies --   1043.3872              1060.4888              1084.8428
 Red. masses --      1.3971                 1.3914                 4.2623
 Frc consts  --      0.8961                 0.9220                 2.9554
 IR Inten    --      7.6479                 3.0473                 0.6447

                     28                     29                     30
                      A                      A                      A
 Frequencies --   1137.1832              1150.1857              1189.4166
 Red. masses --      1.4900                 1.0643                 2.0139
 Frc consts  --      1.1353                 0.8296                 1.6786
 IR Inten    --      1.4346                 0.1896                 0.2624

                     31                     32                     33
                      A                      A                      A
 Frequencies --   1234.1235              1239.5928              1254.5165
 Red. masses --      1.4690                 1.9112                 1.6073
 Frc consts  --      1.3182                 1.7303                 1.4904
 IR Inten    --      0.7770                 0.6336                 1.8739

                     34                     35                     36
                      A                      A                      A
 Frequencies --   1269.1012              1287.6200              1293.3533
 Red. masses --      1.3700                 1.2496                 1.3565
 Frc consts  --      1.3001                 1.2206                 1.3369
 IR Inten    --      4.0564                 0.1319                 0.4112

                     37                     38                     39
                      A                      A                      A
 Frequencies --   1315.6702              1326.0383              1354.7534
 Red. masses --      1.5564                 1.5454                 1.5823
 Frc consts  --      1.5874                 1.6011                 1.7111
 IR Inten    --      1.9366                 0.0074                 2.3122

                     40                     41                     42
                      A                      A                      A
 Frequencies --   1358.0325              1385.3528              1415.2723
 Red. masses --      1.5034                 1.7917                 1.4692
 Frc consts  --      1.6336                 2.0260                 1.7339
 IR Inten    --      0.3492                 2.1235                 2.8238

                     43                     44                     45
                      A                      A                      A
 Frequencies --   1513.5508              1523.5423              1527.0376
 Red. masses --      1.0784                 1.0990                 1.0832
 Frc consts  --      1.4555                 1.5030                 1.4882
 IR Inten    --      0.0056                 3.4854                 0.5262

                     46                     47                     48
                      A                      A                      A
 Frequencies --   1531.7322              1557.1335              1718.9205
 Red. masses --      1.0965                 1.1070                11.9021
 Frc consts  --      1.5157                 1.5814                20.7198
 IR Inten    --      3.6081                 0.0226                42.1136

                     49                     50                     51
                      A                      A                      A
 Frequencies --   3057.8774              3059.0253              3064.3107
 Red. masses --      1.0587                 1.0594                 1.0582
 Frc consts  --      5.8328                 5.8410                 5.8543
 IR Inten    --      0.0703                55.1404                41.8640

                     52                     53                     54
                      A                      A                      A
 Frequencies --   3067.6661              3071.6052              3091.6940
 Red. masses --      1.0602                 1.0613                 1.1084
 Frc consts  --      5.8781                 5.8996                 6.2422
 IR Inten    --     63.5517                 7.2012                 0.0200

                     55                     56                     57
                      A                      A                      A
 Frequencies --   3094.9799              3109.6562              3110.2549
 Red. masses --      1.1065                 1.1073                 1.0887
 Frc consts  --      6.2449                 6.3087                 6.2049
 IR Inten    --      3.4085                 4.5838                46.1057

                     58                     59                     60
                      A                      A                      A
 Frequencies --   3115.3794              3117.5746              3161.5713
 Red. masses --      1.1074                 1.1051                 1.0865
 Frc consts  --      6.3324                 6.3281                 6.3986
 IR Inten    --     47.1130                80.2323                28.4604

 - Thermochemistry -
 -------------------
 Temperature   298.150 Kelvin.  Pressure   1.00000 Atm.
 Atom     1 has atomic number  6 and mass  12.00000

 Molecular mass:   136.10005 amu.
 Principal axes and moments of inertia in atomic units:
                           1         2         3
     Eigenvalues --   661.855911649.699881789.79302
           X            0.99996   0.00001  -0.00933
           Y           -0.00001   1.00000  -0.00005
           Z            0.00933   0.00005   0.99996
 This molecule is an asymmetric top.
 Rotational symmetry number  1.
 Warning -- assumption of classical behavior for rotation
           may cause significant error
 Rotational temperatures (Kelvin)      0.13087     0.05250     0.04839
 Rotational constants (GHZ):           2.72679     1.09398     1.00835
 Zero-point vibrational energy     505358.3 (Joules/Mol)
                                  120.78352 (Kcal/Mol)
 Warning -- explicit consideration of  10 degrees of freedom as
           vibrations may cause significant error
 Vibrational temperatures:     74.43   204.50   243.92   291.37   461.98
          (Kelvin)            529.38   619.75   638.72   725.20   798.48
                              964.51  1107.05  1132.68  1171.35  1197.36
                             1229.17  1250.69  1339.65  1340.76  1389.68
                             1399.12  1400.23  1446.99  1483.46  1501.20
                             1525.81  1560.85  1636.15  1654.86  1711.31
                             1775.63  1783.50  1804.97  1825.95  1852.60
                             1860.85  1892.96  1907.87  1949.19  1953.91
                             1993.21  2036.26  2177.66  2192.04  2197.07
                             2203.82  2240.37  2473.14  4399.60  4401.26
                             4408.86  4413.69  4419.35  4448.26  4452.99
                             4474.10  4474.96  4482.34  4485.49  4548.80

 Zero-point correction=                           0.192481 (Hartree/Particle)
 Thermal correction to Energy=                    0.200816
 Thermal correction to Enthalpy=                  0.201760
 Thermal correction to Gibbs Free Energy=         0.159000
 Sum of electronic and zero-point Energies=           -421.344590
 Sum of electronic and thermal Energies=              -421.336255
 Sum of electronic and thermal Enthalpies=            -421.335311
 Sum of electronic and thermal Free Energies=         -421.378071

                     E (Thermal)             CV                S
                      KCal/Mol        Cal/Mol-Kelvin    Cal/Mol-Kelvin
 Total                  126.014             33.099             89.995
 Electronic               0.000              0.000              0.000
 Translational            0.889              2.981             40.637
 Rotational               0.889              2.981             29.059
 Vibrational            124.236             27.138             20.299
 Vibration     1          0.596              1.977              4.750
 Vibration     2          0.616              1.911              2.775
 Vibration     3          0.625              1.880              2.441
 Vibration     4          0.639              1.836              2.110
 Vibration     5          0.707              1.633              1.305
 Vibration     6          0.741              1.538              1.088
 Vibration     7          0.792              1.403              0.856
 Vibration     8          0.803              1.374              0.814
 Vibration     9          0.859              1.241              0.648
 Vibration    10          0.910              1.129              0.534

 Optimization completed.
    -- Stationary point found.

 1\1\GINC-NODE320\Freq\RB3LYP\6-31G(d)\C8H12N2\VSC10255\08-Dec-2020\0\\
 #N Geom=AllCheck Guess=TCheck SCRF=Check GenChk RB3LYP/6-31G(d) Freq\\
 CID_85867903_JID_43_neutraal\\0,1\C,-1.2419513427,-0.8023464375,-0.516
 9407241\C,-1.243811605,0.757984409,-0.545757099\C,0.007456207,1.132824
 6727,0.2940762343\C,1.264324705,0.7598171633,-0.5382090905\C,1.2646557
 936,-0.8005123189,-0.5092531313\C,0.009030782,-1.136343725,0.325616970
 9\C,0.0050622463,0.0087734994,1.3562987003\C,0.0048955693,2.547843047,
 0.7861562047\N,0.6179922821,2.8875214896,2.0891295948\N,-0.6148143602,

 Normal termination of Gaussian 16 at Tue Dec  8 10:17:43 2020.

 ----------------------------------------------------------------------
 # B3LYP/6-311++G(d,p) empiricaldispersion=gd3bj scf=xqc pop=npa geom=c
 heck
 ----------------------------------------------------------------------

 ------------------------------------
 CID_85867903_JID_43_Energie_neutraal
 ------------------------------------
 Structure from the checkpoint file:  "JID_43.chk"
 Charge =  0 Multiplicity = 1

 SCF Done:  E(RB3LYP) =  -421.644343876     A.U. after   15 cycles
 Normal termination of Gaussian 16 at Tue Dec  8 10:19:09 2020.

 ----------------------------------------------------------------------
 # B3LYP/6-311++G(d,p) empiricaldispersion=gd3bj scf=xqc pop=npa geom=c
 heck
 ----------------------------------------------------------------------

 ----------------------------------
 CID_85867903_JID_43_Energie_kation
 ----------------------------------
 Structure from the checkpoint file:  "JID_43.chk"
 Charge =  1 Multiplicity = 2

 SCF Done:  E(UB3LYP) =  -421.302094621     A.U. after   19 cycles
 Normal termination of Gaussian 16 at Tue Dec  8 10:21:33 2020.
 Gaussian 16:  ES64L-G16RevA.03 25-Dec-2016

 ---------------------------------
 CID_85867903_JID_43_Energie_anion
 ---------------------------------
 Structure from the checkpoint file:  "JID_43.chk"
 Charge = -1 Multiplicity = 2

                         Standard orientation:
 ---------------------------------------------------------------------
 Center     Atomic      Atomic             Coordinates (Angstroms)
 Number     Number       Type             X           Y           Z
 ---------------------------------------------------------------------
      1          6           0       -1.822885    1.253074   -0.032883
      2          6           0       -0.485920    1.254231   -0.837863
      3          6           0        0.256118    0.000238   -0.300853
      4          6           0       -0.485453   -1.253918   -0.838177
      5          6           0       -1.822344   -1.253546   -0.033074
      6          6           0       -1.693392   -0.000282    0.860842
      7          6           0       -0.186379   -0.000011    1.181041
      8          6           0        1.727631    0.000593   -0.582053
      9          7           0        2.671989   -0.616614    0.375158
     10          7           0        2.671942    0.616196    0.376248
     11          1           0       -1.911764    2.158557    0.576737
     12          1           0       -2.705961    1.205818   -0.678744
     13          1           0       -0.639566    1.200519   -1.920972
     14          1           0        0.100647    2.156302   -0.633556
     15          1           0       -0.639225   -1.199913   -1.921255
     16          1           0        0.101500   -2.155812   -0.634222
     17          1           0       -2.705507   -1.206662   -0.678839
     18          1           0       -1.910691   -2.159158    0.576439
     19          1           0       -2.366013   -0.000502    1.722706
     20          1           0        0.146931   -0.890659    1.725372
     21          1           0        0.146599    0.890650    1.725555
     22          1           0        2.051278    0.001513   -1.620941
 ---------------------------------------------------------------------

 SCF Done:  E(UB3LYP) =  -421.639091676     A.U. after   33 cycles
 SCF Done:  E(UB3LYP) =  -421.639091676     a.u. after    1 cycles

 The electronic state is 2-A.
 Alpha  occ. eigenvalues --  -14.18647 -14.18490 -10.06396 -10.05196 -10.05043
 Alpha  occ. eigenvalues --  -10.04587 -10.04545 -10.04347 -10.04301 -10.03678
 Alpha  occ. eigenvalues --   -0.93793  -0.75245  -0.62185  -0.61793  -0.57497
 Alpha  occ. eigenvalues --   -0.50123  -0.48684  -0.42817  -0.42506  -0.40892
 Alpha  occ. eigenvalues --   -0.37284  -0.35129  -0.34636  -0.32548  -0.27862
 Alpha  occ. eigenvalues --   -0.27394  -0.25542  -0.24569  -0.23875  -0.21782
 Alpha  occ. eigenvalues --   -0.21566  -0.21017  -0.20350  -0.18274  -0.17783
 Alpha  occ. eigenvalues --   -0.17363  -0.08841   0.05494
 Alpha virt. eigenvalues --    0.07088   0.08748   0.09388   0.09989   0.10966
 Alpha virt. eigenvalues --    0.11705   0.12180   0.12387   0.13005   0.14378
 Alpha virt. eigenvalues --    0.15353   0.15402   0.16387   0.17818   0.18037

  Beta  occ. eigenvalues --  -14.18108 -14.17880 -10.06428 -10.05202 -10.05032
  Beta  occ. eigenvalues --  -10.04570 -10.04527 -10.04344 -10.04295 -10.03665
  Beta  occ. eigenvalues --   -0.92882  -0.75224  -0.62162  -0.61761  -0.57463
  Beta  occ. eigenvalues --   -0.50025  -0.48630  -0.42757  -0.40882  -0.40811
  Beta  occ. eigenvalues --   -0.36931  -0.35044  -0.34615  -0.31918  -0.27843
  Beta  occ. eigenvalues --   -0.27309  -0.24679  -0.24523  -0.23831  -0.21744
  Beta  occ. eigenvalues --   -0.21509  -0.20568  -0.19865  -0.18168  -0.17752
  Beta  occ. eigenvalues --   -0.15542  -0.08378
  Beta virt. eigenvalues --    0.07861   0.09293   0.09754   0.10325   0.11333
  Beta virt. eigenvalues --    0.11716   0.12298   0.12490   0.13111   0.13181
  Beta virt. eigenvalues --    0.14493   0.15428   0.15557   0.16379   0.17804

 Mulliken charges and spin densities:
               1          2
     1  C    1.404112  -1.949378
     2  C   -1.255109   0.644005
     3  C    1.440960  -0.157070
     4  C   -0.787611   0.174735
     5  C    1.244886  -1.785930
     6  C   -1.587306   2.076315
     7  C    0.135225  -1.059434
     8  C   -0.450216  -0.164699
     9  N   -0.129216   0.260902
    10  N   -0.122327   0.282997
    11  H    0.006508   0.109643
    12  H   -0.313713   0.451945
    13  H    0.068523   0.041423
    14  H    0.113883   0.059639
    15  H    0.086323   0.022983
    16  H    0.121645   0.053999
    17  H   -0.268951   0.403841
    18  H   -0.054503   0.173585
    19  H   -0.984724   1.215840
    20  H   -0.008243   0.176772
    21  H    0.221511  -0.058458
    22  H    0.118344   0.026345
 Sum of Mulliken charges =  -1.00000   1.00000

 Dipole moment (field-independent basis, Debye):
    X=             -0.1329    Y=              0.2107    Z=             -2.5188  Tot=              2.5311
 Quadrupole moment (field-independent basis, Debye-Ang):
   XX=           -118.9081   YY=            -82.9611   ZZ=            -81.6586
   XY=              0.0642   XZ=              0.0526   YZ=              1.5530

 Summary of Natural Population Analysis:

                                       Natural Population
                Natural  -----------------------------------------------
    Atom  No    Charge         Core      Valence    Rydberg      Total
 -----------------------------------------------------------------------
      C    1   -0.19183      0.99963     2.18328    0.00892     3.19183
      C    2   -0.18850      0.99960     2.17932    0.00957     3.18850
      C    3   -0.05743      0.99954     2.04369    0.01420     3.05743
      C    4   -0.18799      0.99960     2.17906    0.00932     3.18799
      C    5   -0.19135      0.99963     2.18276    0.00896     3.19135
      C    6   -0.11346      0.99960     2.10098    0.01287     3.11346
      C    7   -0.18793      0.99960     2.17708    0.01126     3.18793
      C    8   -0.02444      0.99954     2.00672    0.01817     3.02444
      N    9   -0.01414      0.99980     2.49649    0.01785     3.51414
      N   10   -0.00293      0.99980     2.48499    0.01815     3.50293
      H   11    0.09621      0.00000     0.40279    0.00100     0.40379
      H   12    0.09617      0.00000     0.40235    0.00148     0.40383
      H   13    0.09423      0.00000     0.40473    0.00105     0.40577
      H   14    0.10060      0.00000     0.39835    0.00104     0.39940
      H   15    0.09398      0.00000     0.40497    0.00106     0.40602
      H   16    0.10136      0.00000     0.39765    0.00099     0.39864
      H   17    0.09544      0.00000     0.40331    0.00125     0.40456
      H   18    0.09676      0.00000     0.40209    0.00115     0.40324
      H   19    0.10013      0.00000     0.39801    0.00186     0.39987
      H   20    0.10481      0.00000     0.39401    0.00118     0.39519
      H   21    0.10318      0.00000     0.39565    0.00117     0.39682
      H   22    0.07713      0.00000     0.42111    0.00176     0.42287
 =======================================================================
   * Total *    0.00000      9.99636    26.85939    0.14425    37.00000

 Normal termination of Gaussian 16 at Tue Dec  8 10:25:44 2020.
