 Gaussian 16, Revision A.03,

 -----------------------------------------------------------
 # opt freq B3LYP/6-31G(d) empiricaldispersion=gd3bj scf=xqc
 -----------------------------------------------------------

 ------------------------------
 CID_2357280_JID_10910_neutraal
 ------------------------------
 Symbolic Z-matrix:
 Charge =  0 Multiplicity = 1

 SCF Done:  E(RB3LYP) =  -1295.18160157     A.U. after   15 cycles
 SCF Done:  E(RB3LYP) =  -1295.18467508     A.U. after   12 cycles
 SCF Done:  E(RB3LYP) =  -1295.18508802     A.U. after   11 cycles
 SCF Done:  E(RB3LYP) =  -1295.18489483     A.U. after   12 cycles
 SCF Done:  E(RB3LYP) =  -1295.18525575     A.U. after   11 cycles
 SCF Done:  E(RB3LYP) =  -1295.18534208     A.U. after   11 cycles
 SCF Done:  E(RB3LYP) =  -1295.18537891     A.U. after   11 cycles
 SCF Done:  E(RB3LYP) =  -1295.18538840     A.U. after   10 cycles
 SCF Done:  E(RB3LYP) =  -1295.18539020     A.U. after    9 cycles
 SCF Done:  E(RB3LYP) =  -1295.18539173     A.U. after   10 cycles
 SCF Done:  E(RB3LYP) =  -1295.18539266     A.U. after    9 cycles
 SCF Done:  E(RB3LYP) =  -1295.18539311     A.U. after    8 cycles
 SCF Done:  E(RB3LYP) =  -1295.18539316     A.U. after    7 cycles
 Optimization completed.
    -- Stationary point found.
 Normal termination of Gaussian 16 at Sun Dec 13 16:49:46 2020.

 --------------------------------------------------------------------
 #N Geom=AllCheck Guess=TCheck SCRF=Check GenChk RB3LYP/6-31G(d) Freq
 --------------------------------------------------------------------

 Structure from the checkpoint file:  "JID_10910.chk"
 ------------------------------
 CID_2357280_JID_10910_neutraal
 ------------------------------
 Charge =  0 Multiplicity = 1

 SCF Done:  E(RB3LYP) =  -1295.18539316     A.U. after    1 cycles

  Exact polarizability: 228.805  19.171 172.132 -23.299  21.215 120.730
 Approx polarizability: 322.245  37.757 285.444 -55.142  53.527 228.817

                      1                      2                      3
                      A                      A                      A
 Frequencies --     17.6017                20.5104                39.7502
 Red. masses --      6.0574                 5.4880                 4.4827
 Frc consts  --      0.0011                 0.0014                 0.0042
 IR Inten    --      0.2097                 0.5655                 0.2600

                      4                      5                      6
                      A                      A                      A
 Frequencies --     68.8916                78.1286                90.4007
 Red. masses --      6.6387                 6.0397                 5.7926
 Frc consts  --      0.0186                 0.0217                 0.0279
 IR Inten    --      0.9997                 0.1623                 0.9380

                      7                      8                      9
                      A                      A                      A
 Frequencies --    129.3569               143.8926               170.2882
 Red. masses --      7.3511                 4.9127                 1.3200
 Frc consts  --      0.0725                 0.0599                 0.0226
 IR Inten    --      1.5272                 0.4076                 0.9993

                     10                     11                     12
                      A                      A                      A
 Frequencies --    192.9434               222.1368               242.6962
 Red. masses --      2.2630                 8.2435                 8.9032
 Frc consts  --      0.0496                 0.2397                 0.3090
 IR Inten    --      1.6397                 2.9424                 0.7576

                     13                     14                     15
                      A                      A                      A
 Frequencies --    260.9322               275.8833               298.5109
 Red. masses --      6.1169                 4.5495                 6.7604
 Frc consts  --      0.2454                 0.2040                 0.3549
 IR Inten    --      0.8216                 3.5610                 1.0504

                     16                     17                     18
                      A                      A                      A
 Frequencies --    351.2050               407.0048               414.5691
 Red. masses --      3.5549                 5.4092                 3.1448
 Frc consts  --      0.2583                 0.5279                 0.3184
 IR Inten    --      1.5985                 3.4543                 0.2209

                     19                     20                     21
                      A                      A                      A
 Frequencies --    431.0466               443.9771               456.4931
 Red. masses --      4.3604                 5.1037                 2.8870
 Frc consts  --      0.4773                 0.5927                 0.3545
 IR Inten    --      8.7955                57.4010                 4.2739

                     22                     23                     24
                      A                      A                      A
 Frequencies --    468.8250               500.6766               513.0690
 Red. masses --      3.5751                 3.7145                 5.5681
 Frc consts  --      0.4630                 0.5486                 0.8636
 IR Inten    --     21.3589                 6.7419                12.4766

                     25                     26                     27
                      A                      A                      A
 Frequencies --    524.3891               560.4083               573.7985
 Red. masses --      3.1333                 6.2839                 4.0549
 Frc consts  --      0.5076                 1.1628                 0.7866
 IR Inten    --      9.3577                59.5132               140.0305

                     28                     29                     30
                      A                      A                      A
 Frequencies --    592.9973               613.2164               638.9635
 Red. masses --      5.9979                 1.4266                 4.7435
 Frc consts  --      1.2427                 0.3161                 1.1411
 IR Inten    --     22.0230                28.3763                16.2337

                     31                     32                     33
                      A                      A                      A
 Frequencies --    645.0519               674.1355               709.2449
 Red. masses --      7.0776                 4.4120                 3.4090
 Frc consts  --      1.7351                 1.1813                 1.0103
 IR Inten    --      0.4383               106.7269                68.9668

                     34                     35                     36
                      A                      A                      A
 Frequencies --    730.6050               769.0125               772.9577
 Red. masses --      3.4185                 1.3190                 3.3053
 Frc consts  --      1.0751                 0.4596                 1.1635
 IR Inten    --     35.4634                30.8393                49.7115

                     37                     38                     39
                      A                      A                      A
 Frequencies --    788.1724               804.0118               859.3451
 Red. masses --      4.9413                 4.8110                 2.7992
 Frc consts  --      1.8086                 1.8324                 1.2179
 IR Inten    --     19.8477                 2.2431                24.9940

                     40                     41                     42
                      A                      A                      A
 Frequencies --    863.7972               873.5841               882.0586
 Red. masses --      1.2593                 1.7370                 1.8040
 Frc consts  --      0.5536                 0.7810                 0.8270
 IR Inten    --      1.0063                18.2618                14.6563

                     43                     44                     45
                      A                      A                      A
 Frequencies --    899.8318               955.3829               987.6566
 Red. masses --      2.3085                 1.3960                 1.2643
 Frc consts  --      1.1013                 0.7507                 0.7266
 IR Inten    --    110.7172                13.0553                 0.6847

                     46                     47                     48
                      A                      A                      A
 Frequencies --    990.9808               995.5566              1021.8304
 Red. masses --      1.3349                 1.3147                 1.5878
 Frc consts  --      0.7724                 0.7677                 0.9768
 IR Inten    --      0.0496                 0.5059                 0.8643

                     49                     50                     51
                      A                      A                      A
 Frequencies --   1040.3037              1077.1618              1079.3955
 Red. masses --      3.7316                 1.6243                 1.9396
 Frc consts  --      2.3794                 1.1104                 1.3315
 IR Inten    --     14.4877                 2.8335                 1.6865

                     52                     53                     54
                      A                      A                      A
 Frequencies --   1093.3536              1122.1792              1136.7924
 Red. masses --      4.6535                 4.3206                 2.0672
 Frc consts  --      3.2775                 3.2057                 1.5740
 IR Inten    --     82.2726               152.6542                19.0598

                     55                     56                     57
                      A                      A                      A
 Frequencies --   1140.7120              1149.5470              1195.7019
 Red. masses --      1.5995                 3.0808                 1.0996
 Frc consts  --      1.2263                 2.3987                 0.9263
 IR Inten    --     22.5958                96.8483                 1.7644

                     58                     59                     60
                      A                      A                      A
 Frequencies --   1204.5573              1215.8566              1225.0887
 Red. masses --      1.2797                 2.1917                 1.6269
 Frc consts  --      1.0940                 1.9090                 1.4386
 IR Inten    --    114.2528                15.3407               131.4566

                     61                     62                     63
                      A                      A                      A
 Frequencies --   1266.6114              1302.3712              1322.6084
 Red. masses --      3.1734                 2.2769                 2.8253
 Frc consts  --      2.9996                 2.2754                 2.9119
 IR Inten    --     16.7434                44.7748                83.0294

                     64                     65                     66
                      A                      A                      A
 Frequencies --   1338.1212              1344.6800              1369.6063
 Red. masses --      1.3447                 3.9655                 9.3899
 Frc consts  --      1.4187                 4.2246                10.3778
 IR Inten    --      5.1614                22.0626                 1.2238

                     67                     68                     69
                      A                      A                      A
 Frequencies --   1398.5709              1401.2618              1444.0131
 Red. masses --      2.6326                 1.5816                 1.2491
 Frc consts  --      3.0339                 1.8297                 1.5345
 IR Inten    --    126.2155                32.9908                 1.9575

                     70                     71                     72
                      A                      A                      A
 Frequencies --   1446.7340              1496.9809              1521.1266
 Red. masses --      3.0083                 1.8742                 1.0697
 Frc consts  --      3.7097                 2.4746                 1.4584
 IR Inten    --     47.2993                 2.9839                 6.7259

                     73                     74                     75
                      A                      A                      A
 Frequencies --   1532.3125              1540.3434              1542.8095
 Red. masses --      1.4275                 2.3256                 1.8838
 Frc consts  --      1.9748                 3.2510                 2.6419
 IR Inten    --     11.5712                 2.6922                32.0441

                     76                     77                     78
                      A                      A                      A
 Frequencies --   1633.7492              1640.5305              1660.3528
 Red. masses --      7.3194                 5.6356                 5.6582
 Frc consts  --     11.5106                 8.9364                 9.1902
 IR Inten    --      6.3253                 1.8007                12.0180

                     79                     80                     81
                      A                      A                      A
 Frequencies --   1668.5513              1827.1703              3037.2809
 Red. masses --      6.0024                10.0165                 1.0466
 Frc consts  --      9.8459                19.7026                 5.6883
 IR Inten    --      2.5808               307.8102                24.6736

                     82                     83                     84
                      A                      A                      A
 Frequencies --   3104.9979              3141.0036              3184.1421
 Red. masses --      1.0893                 1.1024                 1.0866
 Frc consts  --      6.1877                 6.4083                 6.4910
 IR Inten    --     11.2169                12.3992                 5.9636

                     85                     86                     87
                      A                      A                      A
 Frequencies --   3196.5210              3209.4723              3223.4204
 Red. masses --      1.0895                 1.0942                 1.0952
 Frc consts  --      6.5592                 6.6405                 6.7046
 IR Inten    --     12.2246                25.9721                 8.0167

                     88                     89                     90
                      A                      A                      A
 Frequencies --   3226.3856              3234.4427              3238.5749
 Red. masses --      1.0885                 1.0886                 1.0948
 Frc consts  --      6.6759                 6.7096                 6.7656
 IR Inten    --      0.2951                 0.5777                 0.1593

                     91                     92                     93
                      A                      A                      A
 Frequencies --   3246.2669              3517.3746              3699.4125
 Red. masses --      1.0948                 1.0744                 1.0642
 Frc consts  --      6.7976                 7.8314                 8.5811
 IR Inten    --      0.5557                32.7531                89.1655

 - Thermochemistry -
 -------------------
 Temperature   298.150 Kelvin.  Pressure   1.00000 Atm.
 Atom     1 has atomic number  6 and mass  12.00000

 Molecular mass:   291.05653 amu.
 Principal axes and moments of inertia in atomic units:
                           1         2         3
     Eigenvalues --  3302.985879316.10217**********
           X            0.99999  -0.00422  -0.00018
           Y            0.00422   0.99988   0.01500
           Z            0.00012  -0.01500   0.99989
 This molecule is an asymmetric top.
 Rotational symmetry number  1.
 Warning -- assumption of classical behavior for rotation
           may cause significant error
 Rotational temperatures (Kelvin)      0.02622     0.00930     0.00763
 Rotational constants (GHZ):           0.54640     0.19372     0.15894
 Zero-point vibrational energy     661560.2 (Joules/Mol)
                                  158.11668 (Kcal/Mol)
 Warning -- explicit consideration of  29 degrees of freedom as
           vibrations may cause significant error
 Vibrational temperatures:     25.32    29.51    57.19    99.12   112.41
          (Kelvin)            130.07   186.12   207.03   245.01   277.60
                              319.61   349.19   375.42   396.93   429.49
                              505.31   585.59   596.47   620.18   638.78
                              656.79   674.53   720.36   738.19   754.48
                              806.30   825.57   853.19   882.28   919.33
                              928.09   969.93  1020.45  1051.18  1106.44
                             1112.11  1134.00  1156.79  1236.41  1242.81
                             1256.89  1269.09  1294.66  1374.58  1421.02
                             1425.80  1432.38  1470.19  1496.77  1549.80
                             1553.01  1573.09  1614.57  1635.59  1641.23
                             1653.94  1720.35  1733.09  1749.35  1762.63
                             1822.37  1873.82  1902.94  1925.26  1934.69
                             1970.56  2012.23  2016.10  2077.61  2081.53
                             2153.82  2188.56  2204.66  2216.21  2219.76
                             2350.60  2360.36  2388.88  2400.67  2628.89
                             4369.97  4467.40  4519.20  4581.27  4599.08
                             4617.71  4637.78  4642.05  4653.64  4659.59
                             4670.65  5060.72  5322.63

 Zero-point correction=                           0.251975 (Hartree/Particle)
 Thermal correction to Energy=                    0.269826
 Thermal correction to Enthalpy=                  0.270770
 Thermal correction to Gibbs Free Energy=         0.203736
 Sum of electronic and zero-point Energies=          -1294.933418
 Sum of electronic and thermal Energies=             -1294.915567
 Sum of electronic and thermal Enthalpies=           -1294.914623
 Sum of electronic and thermal Free Energies=        -1294.981658

                     E (Thermal)             CV                S
                      KCal/Mol        Cal/Mol-Kelvin    Cal/Mol-Kelvin
 Total                  169.318             68.365            141.085
 Electronic               0.000              0.000              0.000
 Translational            0.889              2.981             42.903
 Rotational               0.889              2.981             34.212
 Vibrational            167.541             62.404             63.971
 Vibration     1          0.593              1.986              6.888
 Vibration     2          0.593              1.986              6.584
 Vibration     3          0.594              1.981              5.271
 Vibration     4          0.598              1.969              4.185
 Vibration     5          0.599              1.964              3.937
 Vibration     6          0.602              1.956              3.651
 Vibration     7          0.612              1.924              2.956
 Vibration     8          0.616              1.909              2.751
 Vibration     9          0.625              1.879              2.432
 Vibration    10          0.635              1.850              2.199
 Vibration    11          0.648              1.807              1.942
 Vibration    12          0.659              1.775              1.783
 Vibration    13          0.669              1.744              1.656
 Vibration    14          0.678              1.718              1.559
 Vibration    15          0.692              1.676              1.425
 Vibration    16          0.728              1.573              1.161
 Vibration    17          0.772              1.455              0.937
 Vibration    18          0.778              1.439              0.911
 Vibration    19          0.792              1.403              0.855
 Vibration    20          0.803              1.374              0.814
 Vibration    21          0.815              1.347              0.776
 Vibration    22          0.826              1.319              0.741
 Vibration    23          0.856              1.249              0.656
 Vibration    24          0.868              1.221              0.626
 Vibration    25          0.879              1.196              0.600
 Vibration    26          0.916              1.117              0.523
 Vibration    27          0.930              1.088              0.497
 Vibration    28          0.951              1.047              0.462
 Vibration    29          0.973              1.004              0.427

 Optimization completed.
    -- Stationary point found.
 Normal termination of Gaussian 16 at Sun Dec 13 17:06:39 2020.

 ----------------------------------------------------------------------
 # B3LYP/6-311++G(d,p) empiricaldispersion=gd3bj scf=xqc pop=npa geom=c
 heck
 ----------------------------------------------------------------------

 --------------------------------------
 CID_2357280_JID_10910_Energie_neutraal
 --------------------------------------
 Structure from the checkpoint file:  "JID_10910.chk"
 Charge =  0 Multiplicity = 1

 SCF Done:  E(RB3LYP) =  -1295.46732300     A.U. after   17 cycles
 Normal termination of Gaussian 16 at Sun Dec 13 17:13:32 2020.

 ----------------------------------------------------------------------
 # B3LYP/6-311++G(d,p) empiricaldispersion=gd3bj scf=xqc pop=npa geom=c
 heck
 ----------------------------------------------------------------------

 ------------------------------------
 CID_2357280_JID_10910_Energie_kation
 ------------------------------------
 Structure from the checkpoint file:  "JID_10910.chk"
 Charge =  1 Multiplicity = 2

 SCF Done:  E(UB3LYP) =  -1295.14929177     A.U. after   30 cycles
 Normal termination of Gaussian 16 at Sun Dec 13 17:30:07 2020.
 Gaussian 16:  ES64L-G16RevA.03 25-Dec-2016

 ----------------------------------------------------------------------
 # B3LYP/6-311++G(d,p) empiricaldispersion=gd3bj scf=xqc pop=npa geom=c
 heck
 ----------------------------------------------------------------------

 -----------------------------------
 CID_2357280_JID_10910_Energie_anion
 -----------------------------------
 Structure from the checkpoint file:  "JID_10910.chk"
 Charge = -1 Multiplicity = 2

                         Standard orientation:
 ---------------------------------------------------------------------
 Center     Atomic      Atomic             Coordinates (Angstroms)
 Number     Number       Type             X           Y           Z
 ---------------------------------------------------------------------
      1          6           0       -4.418406   -0.407230    0.177049
      2          6           0       -3.449797    0.716640   -0.089851
      3          6           0       -3.780765    2.042803    0.204853
      4          6           0       -2.875014    3.083528   -0.003123
      5          6           0       -1.613025    2.814774   -0.531388
      6          6           0       -1.270206    1.503908   -0.856487
      7          6           0       -2.176718    0.465555   -0.633226
      8          7           0       -1.758286   -0.865028   -0.974954
      9         16           0       -0.969090   -1.780071    0.230608
     10          8           0       -1.518854   -1.510964    1.564121
     11          8           0       -0.931908   -3.141502   -0.309536
     12          6           0        0.668628   -1.060690    0.177434
     13          6           0        1.057659   -0.189659    1.192526
     14          6           0        2.321266    0.393699    1.129858
     15          6           0        3.173115    0.098898    0.059003
     16          6           0        2.766163   -0.787065   -0.948662
     17          6           0        1.508225   -1.373654   -0.893262
     18          6           0        4.529369    0.700737   -0.058185
     19          8           0        5.305114    0.482846   -0.965723
     20          8           0        4.825416    1.537268    0.966535
     21          1           0       -5.348532   -0.023138    0.604442
     22          1           0       -4.682602   -0.951302   -0.740117
     23          1           0       -3.990345   -1.130462    0.879030
     24          1           0       -4.762348    2.257870    0.618896
     25          1           0       -3.157868    4.102312    0.245690
     26          1           0       -0.904440    3.619391   -0.703441
     27          1           0       -0.305749    1.268893   -1.293611
     28          1           0       -2.489506   -1.461956   -1.358876
     29          1           0        0.375708    0.021075    2.007796
     30          1           0        2.647444    1.076586    1.905181
     31          1           0        3.450584   -1.001158   -1.761888
     32          1           0        1.174381   -2.063827   -1.659923
     33          1           0        5.725601    1.867386    0.789355
 ---------------------------------------------------------------------

 SCF Done:  E(UB3LYP) =  -1295.50103205     A.U. after   25 cycles

 The electronic state is 2-A.
 Alpha  occ. eigenvalues --  -88.93716 -19.03253 -18.99773 -18.99758 -18.95719
 Alpha  occ. eigenvalues --  -14.23657 -10.14235 -10.12277 -10.10213 -10.09275
 Alpha  occ. eigenvalues --  -10.09120 -10.08855 -10.08810 -10.08347 -10.05320
 Alpha  occ. eigenvalues --  -10.04373 -10.04340 -10.03674 -10.03478 -10.03058
 Alpha  occ. eigenvalues --   -7.99901  -5.96226  -5.96170  -5.95918  -0.99869
 Alpha  occ. eigenvalues --   -0.96838  -0.89027  -0.87374  -0.83378  -0.76307
 Alpha  occ. eigenvalues --   -0.72940  -0.69152  -0.65643  -0.64219  -0.61690
 Alpha  occ. eigenvalues --   -0.60652  -0.56314  -0.52290  -0.51184  -0.49701
 Alpha  occ. eigenvalues --   -0.47908  -0.45014  -0.43841  -0.41179  -0.40284
 Alpha  occ. eigenvalues --   -0.39068  -0.38149  -0.36500  -0.35152  -0.34925
 Alpha  occ. eigenvalues --   -0.34074  -0.33744  -0.32944  -0.31845  -0.31484
 Alpha  occ. eigenvalues --   -0.31227  -0.30615  -0.29569  -0.28252  -0.27799
 Alpha  occ. eigenvalues --   -0.27360  -0.26735  -0.24608  -0.24333  -0.23488
 Alpha  occ. eigenvalues --   -0.21715  -0.21391  -0.20106  -0.19428  -0.19119
 Alpha  occ. eigenvalues --   -0.18049  -0.16646  -0.15229  -0.14003  -0.13243
 Alpha  occ. eigenvalues --   -0.13019   0.02539
 Alpha virt. eigenvalues --    0.06186   0.06582   0.07128   0.07394   0.08513
 Alpha virt. eigenvalues --    0.08987   0.10096   0.10651   0.11014   0.11450
 Alpha virt. eigenvalues --    0.11744   0.12542   0.13031   0.13759   0.13852

  Beta  occ. eigenvalues --  -88.93706 -19.03190 -18.99745 -18.99721 -18.95412
  Beta  occ. eigenvalues --  -14.23612 -10.14020 -10.12276 -10.10214 -10.09275
  Beta  occ. eigenvalues --  -10.09110 -10.08853 -10.08809 -10.08333 -10.04966
  Beta  occ. eigenvalues --  -10.04353 -10.04288 -10.03618 -10.03352 -10.02761
  Beta  occ. eigenvalues --   -7.99891  -5.96192  -5.96151  -5.95920  -0.99764
  Beta  occ. eigenvalues --   -0.96558  -0.88956  -0.86919  -0.83306  -0.76274
  Beta  occ. eigenvalues --   -0.72489  -0.69138  -0.65540  -0.63592  -0.61320
  Beta  occ. eigenvalues --   -0.60636  -0.55874  -0.52064  -0.51152  -0.49522
  Beta  occ. eigenvalues --   -0.47702  -0.44750  -0.43703  -0.40950  -0.40239
  Beta  occ. eigenvalues --   -0.38920  -0.38127  -0.36228  -0.34987  -0.34803
  Beta  occ. eigenvalues --   -0.34018  -0.33672  -0.32925  -0.31626  -0.31210
  Beta  occ. eigenvalues --   -0.30417  -0.30228  -0.29482  -0.28077  -0.27758
  Beta  occ. eigenvalues --   -0.27325  -0.26715  -0.24317  -0.23537  -0.23112
  Beta  occ. eigenvalues --   -0.21561  -0.21249  -0.20069  -0.19027  -0.18108
  Beta  occ. eigenvalues --   -0.17844  -0.16538  -0.15028  -0.13672  -0.11940
  Beta  occ. eigenvalues --   -0.11358
  Beta virt. eigenvalues --    0.06175   0.06599   0.07127   0.07316   0.08502
  Beta virt. eigenvalues --    0.08630   0.08991   0.10101   0.10653   0.10998
  Beta virt. eigenvalues --    0.11431   0.12064   0.12539   0.13023   0.13730

 Mulliken charges and spin densities:
               1          2
     1  C   -0.544531  -0.005862
     2  C    0.971165  -0.013622
     3  C   -0.332566  -0.007914
     4  C   -0.405843   0.008327
     5  C   -0.282655  -0.033145
     6  C   -0.053264  -0.032220
     7  C   -0.591594   0.105622
     8  N   -0.059719  -0.007659
     9  S    0.310768   0.006353
    10  O   -0.181481   0.007416
    11  O   -0.176095  -0.009922
    12  C    0.002043   0.133461
    13  C   -0.431773   0.070390
    14  C   -0.534737   0.160171
    15  C    0.208702   0.107576
    16  C   -0.631038   0.113110
    17  C   -0.279381   0.115727
    18  C    0.262794   0.137465
    19  O   -0.416596   0.109709
    20  O   -0.220512   0.015777
    21  H    0.155817   0.000160
    22  H    0.122539   0.002166
    23  H    0.196366  -0.000036
    24  H    0.111549  -0.001163
    25  H    0.137604   0.001293
    26  H    0.155428   0.005645
    27  H    0.231552   0.003029
    28  H    0.276072   0.016848
    29  H    0.173442   0.000292
    30  H    0.177970  -0.005671
    31  H    0.188125  -0.002962
    32  H    0.193375   0.000824
    33  H    0.266477  -0.001186
 Sum of Mulliken charges =  -1.00000   1.00000

 Dipole moment (field-independent basis, Debye):
    X=             -8.4834    Y=              4.3053    Z=             -0.3660  Tot=              9.5204
 Quadrupole moment (field-independent basis, Debye-Ang):
   XX=           -175.6841   YY=           -145.4377   ZZ=           -138.7188
   XY=             -1.7364   XZ=             10.5623   YZ=              4.8907

 Summary of Natural Population Analysis:

                                       Natural Population
                Natural  -----------------------------------------------
    Atom  No    Charge         Core      Valence    Rydberg      Total
 -----------------------------------------------------------------------
      C    1   -0.30014      0.99964     2.29532    0.00518     3.30014
      C    2   -0.01638      0.99947     2.00913    0.00778     3.01638
      C    3   -0.10303      0.99953     2.09486    0.00864     3.10303
      C    4   -0.10386      0.99958     2.09525    0.00903     3.10386
      C    5   -0.10301      0.99957     2.09460    0.00884     3.10301
      C    6   -0.08791      0.99952     2.07943    0.00896     3.08791
      C    7    0.06630      0.99941     1.92121    0.01308     2.93370
      N    8   -0.42901      0.99972     2.91488    0.01441     3.92901
      S    9    1.10628      4.99917     1.79653    0.09802     6.89372
      O   10   -0.46922      0.99990     3.46213    0.00719     4.46922
      O   11   -0.46778      0.99991     3.46242    0.00545     4.46778
      C   12   -0.07894      0.99936     2.06486    0.01472     3.07894
      C   13   -0.09907      0.99951     2.09008    0.00948     3.09907
      C   14   -0.06589      0.99955     2.05736    0.00898     3.06589
      C   15   -0.02184      0.99946     2.01245    0.00994     3.02184
      C   16   -0.07232      0.99955     2.06379    0.00898     3.07232
      C   17   -0.09393      0.99951     2.08488    0.00954     3.09393
      C   18    0.42122      0.99967     1.55434    0.02477     2.57878
      O   19   -0.30091      0.99987     3.29321    0.00783     4.30091
      O   20   -0.35199      0.99988     3.34617    0.00594     4.35199
      H   21    0.09885      0.00000     0.40036    0.00080     0.40115
      H   22    0.09816      0.00000     0.40082    0.00103     0.40184
      H   23    0.12023      0.00000     0.37851    0.00126     0.37977
      H   24    0.09498      0.00000     0.40370    0.00133     0.40502
      H   25    0.09656      0.00000     0.40247    0.00097     0.40344
      H   26    0.10080      0.00000     0.39828    0.00092     0.39920
      H   27    0.11725      0.00000     0.38126    0.00149     0.38275
      H   28    0.19353      0.00000     0.30472    0.00175     0.30647
      H   29    0.10830      0.00000     0.39063    0.00107     0.39170
      H   30    0.10185      0.00000     0.39707    0.00108     0.39815
      H   31    0.10597      0.00000     0.39297    0.00106     0.39403
      H   32    0.10421      0.00000     0.39471    0.00107     0.39579
      H   33    0.23075      0.00000     0.26598    0.00327     0.26925
 =======================================================================
   * Total *    0.00000     23.99176    51.70438    0.30385    76.00000

 Normal termination of Gaussian 16 at Sun Dec 13 17:43:37 2020.
