 Gaussian 16, Revision A.03,

 -----------------------------------------------------------
 # opt freq B3LYP/6-31G(d) empiricaldispersion=gd3bj scf=xqc
 -----------------------------------------------------------

 -------------------------------
 CID_152298980_JID_6405_neutraal
 -------------------------------
 Symbolic Z-matrix:
 Charge =  0 Multiplicity = 1

 SCF Done:  E(RB3LYP) =  -761.572449531     A.U. after   15 cycles
 SCF Done:  E(RB3LYP) =  -761.577704069     A.U. after   12 cycles
 SCF Done:  E(RB3LYP) =  -761.578204316     A.U. after   12 cycles
 SCF Done:  E(RB3LYP) =  -761.577423007     A.U. after   13 cycles
 SCF Done:  E(RB3LYP) =  -761.578744455     A.U. after   12 cycles
 SCF Done:  E(RB3LYP) =  -761.578965420     A.U. after   12 cycles
 SCF Done:  E(RB3LYP) =  -761.579090170     A.U. after   12 cycles
 SCF Done:  E(RB3LYP) =  -761.579113083     A.U. after   11 cycles
 SCF Done:  E(RB3LYP) =  -761.579119976     A.U. after   10 cycles
 SCF Done:  E(RB3LYP) =  -761.579121825     A.U. after    9 cycles
 SCF Done:  E(RB3LYP) =  -761.579124758     A.U. after   10 cycles
 SCF Done:  E(RB3LYP) =  -761.579126854     A.U. after   10 cycles
 SCF Done:  E(RB3LYP) =  -761.579127246     A.U. after    8 cycles
 SCF Done:  E(RB3LYP) =  -761.579127380     A.U. after    8 cycles
 Optimization completed.
    -- Stationary point found.
 Normal termination of Gaussian 16 at Thu Dec 10 22:36:01 2020.

 --------------------------------------------------------------------
 #N Geom=AllCheck Guess=TCheck SCRF=Check GenChk RB3LYP/6-31G(d) Freq
 --------------------------------------------------------------------

 Structure from the checkpoint file:  "JID_6405.chk"
 -------------------------------
 CID_152298980_JID_6405_neutraal
 -------------------------------
 Charge =  0 Multiplicity = 1

 SCF Done:  E(RB3LYP) =  -761.579127380     A.U. after    1 cycles

  Exact polarizability: 197.030 -18.961  93.224   4.138  -4.094 118.563
 Approx polarizability: 278.349 -38.243 130.646  17.154 -16.479 218.921

                      1                      2                      3
                      A                      A                      A
 Frequencies --     18.7633                39.0439                46.9930
 Red. masses --      4.6751                 5.9827                 4.3322
 Frc consts  --      0.0010                 0.0054                 0.0056
 IR Inten    --      0.1158                 1.4380                 1.5974

                      4                      5                      6
                      A                      A                      A
 Frequencies --    102.4565               115.4112               127.3168
 Red. masses --      4.4716                 4.3099                 1.5310
 Frc consts  --      0.0277                 0.0338                 0.0146
 IR Inten    --      5.1205                 4.4978                 1.3366

                      7                      8                      9
                      A                      A                      A
 Frequencies --    139.0906               188.8993               236.0294
 Red. masses --      2.0288                 3.1595                 1.7498
 Frc consts  --      0.0231                 0.0664                 0.0574
 IR Inten    --      1.7025                 0.6030                 2.8846

                     10                     11                     12
                      A                      A                      A
 Frequencies --    241.3060               271.8543               311.5226
 Red. masses --      1.7254                 5.1538                 4.7982
 Frc consts  --      0.0592                 0.2244                 0.2744
 IR Inten    --      1.6146                 3.7073                 5.0236

                     13                     14                     15
                      A                      A                      A
 Frequencies --    336.6240               350.1211               360.6945
 Red. masses --      3.5065                 3.4508                 4.2535
 Frc consts  --      0.2341                 0.2492                 0.3260
 IR Inten    --      4.4106                 1.3091                 9.3681

                     16                     17                     18
                      A                      A                      A
 Frequencies --    417.5830               456.5047               467.1465
 Red. masses --      3.7091                 6.3266                 4.1694
 Frc consts  --      0.3811                 0.7768                 0.5361
 IR Inten    --      4.0491                 1.4802                 2.0477

                     19                     20                     21
                      A                      A                      A
 Frequencies --    485.4624               553.2268               576.9312
 Red. masses --      4.8655                 3.0877                 3.8412
 Frc consts  --      0.6756                 0.5568                 0.7533
 IR Inten    --     13.3449                 9.9756                 0.2325

                     22                     23                     24
                      A                      A                      A
 Frequencies --    635.7577               717.5994               760.6050
 Red. masses --      7.1708                 6.2951                 2.0021
 Frc consts  --      1.7077                 1.9099                 0.6824
 IR Inten    --      5.0391                19.5345                 8.3276

                     25                     26                     27
                      A                      A                      A
 Frequencies --    762.3210               771.8284               800.8195
 Red. masses --      7.5809                 5.1573                 2.0764
 Frc consts  --      2.5956                 1.8101                 0.7846
 IR Inten    --     18.7172                 9.8085                30.7714

                     28                     29                     30
                      A                      A                      A
 Frequencies --    811.7823               860.1978               909.7641
 Red. masses --      5.7287                 4.0887                 3.4231
 Frc consts  --      2.2243                 1.7825                 1.6693
 IR Inten    --     18.3522                 0.5190                14.3798

                     31                     32                     33
                      A                      A                      A
 Frequencies --    917.5473               953.0993               966.5584
 Red. masses --      1.3497                 4.7867                 1.6624
 Frc consts  --      0.6695                 2.5619                 0.9150
 IR Inten    --      1.3977                78.5579                 2.7650

                     34                     35                     36
                      A                      A                      A
 Frequencies --    980.4319               983.1693              1011.4414
 Red. masses --      1.4406                 3.7498                 1.2906
 Frc consts  --      0.8159                 2.1355                 0.7779
 IR Inten    --      3.7337               116.9801                 0.0354

                     37                     38                     39
                      A                      A                      A
 Frequencies --   1015.0940              1030.8055              1065.6505
 Red. masses --      7.0784                 4.5649                 3.7939
 Frc consts  --      4.2973                 2.8578                 2.5384
 IR Inten    --     12.1934                19.6147                 6.9678

                     40                     41                     42
                      A                      A                      A
 Frequencies --   1090.7563              1122.5216              1131.9089
 Red. masses --      2.0963                 1.7858                 1.7285
 Frc consts  --      1.4694                 1.3258                 1.3048
 IR Inten    --      1.8663                 8.1461                15.4971

                     43                     44                     45
                      A                      A                      A
 Frequencies --   1144.3647              1186.1109              1186.3778
 Red. masses --      1.6899                 1.1205                 1.2741
 Frc consts  --      1.3039                 0.9288                 1.0566
 IR Inten    --     24.4831                 3.8544                 0.9788

                     46                     47                     48
                      A                      A                      A
 Frequencies --   1210.7163              1236.2355              1242.8025
 Red. masses --      1.5917                 2.0921                 2.7917
 Frc consts  --      1.3747                 1.8838                 2.5405
 IR Inten    --     55.3136               173.2976                38.9943

                     49                     50                     51
                      A                      A                      A
 Frequencies --   1303.8635              1325.5420              1328.1096
 Red. masses --      2.3853                 5.2927                 1.5250
 Frc consts  --      2.3893                 5.4792                 1.5848
 IR Inten    --     16.3339                13.3565                 3.3306

                     52                     53                     54
                      A                      A                      A
 Frequencies --   1337.3865              1406.3303              1440.2885
 Red. masses --      3.8443                 3.0829                 1.2750
 Frc consts  --      4.0512                 3.5924                 1.5583
 IR Inten    --    100.8252                48.7739                 6.9619

                     55                     56                     57
                      A                      A                      A
 Frequencies --   1486.3154              1492.2035              1504.4247
 Red. masses --      2.3251                 1.1933                 1.1088
 Frc consts  --      3.0263                 1.5655                 1.4786
 IR Inten    --     10.0323                 4.2762                16.9689

                     58                     59                     60
                      A                      A                      A
 Frequencies --   1513.0147              1513.3605              1518.0572
 Red. masses --      1.0504                 1.0613                 1.0580
 Frc consts  --      1.4167                 1.4321                 1.4365
 IR Inten    --      4.9008                 1.7079                 7.8656

                     61                     62                     63
                      A                      A                      A
 Frequencies --   1523.6926              1524.7754              1625.4245
 Red. masses --      1.0494                 2.5158                 5.7802
 Frc consts  --      1.4355                 3.4462                 8.9975
 IR Inten    --      6.5606                24.0802                16.1381

                     64                     65                     66
                      A                      A                      A
 Frequencies --   1646.2818              1679.0057              1828.6301
 Red. masses --      5.4682                 9.8251                11.6837
 Frc consts  --      8.7318                16.3190                23.0188
 IR Inten    --     70.9253                25.9415               256.6937

                     67                     68                     69
                      A                      A                      A
 Frequencies --   3072.2735              3078.0069              3088.9919
 Red. masses --      1.0357                 1.0296                 1.0635
 Frc consts  --      5.7595                 5.7474                 5.9789
 IR Inten    --     10.4493                31.6759                 6.5668

                     70                     71                     72
                      A                      A                      A
 Frequencies --   3133.7142              3144.3818              3153.5127
 Red. masses --      1.1014                 1.1036                 1.1076
 Frc consts  --      6.3725                 6.4288                 6.4898
 IR Inten    --      3.3278                15.1667                17.5719

                     73                     74                     75
                      A                      A                      A
 Frequencies --   3162.9052              3175.4273              3188.3139
 Red. masses --      1.1028                 1.0892                 1.1072
 Frc consts  --      6.5000                 6.4710                 6.6311
 IR Inten    --      9.3585                25.1826                13.4229

                     76                     77                     78
                      A                      A                      A
 Frequencies --   3198.8595              3217.8913              3233.7562
 Red. masses --      1.0889                 1.0955                 1.0944
 Frc consts  --      6.5648                 6.6836                 6.7428
 IR Inten    --     11.3113                21.4515                 1.9538

 - Thermochemistry -
 -------------------
 Temperature   298.150 Kelvin.  Pressure   1.00000 Atm.
 Atom     1 has atomic number  6 and mass  12.00000

 Molecular mass:   220.08479 amu.
 Principal axes and moments of inertia in atomic units:
                           1         2         3
     Eigenvalues --  1516.085036501.247676827.05392
           X            0.99999   0.00145  -0.00291
           Y           -0.00125   0.99770   0.06772
           Z            0.00300  -0.06772   0.99770
 This molecule is an asymmetric top.
 Rotational symmetry number  1.
 Warning -- assumption of classical behavior for rotation
           may cause significant error
 Rotational temperatures (Kelvin)      0.05713     0.01332     0.01269
 Rotational constants (GHZ):           1.19040     0.27760     0.26435
 Zero-point vibrational energy     581349.2 (Joules/Mol)
                                  138.94578 (Kcal/Mol)
 Warning -- explicit consideration of  21 degrees of freedom as
           vibrations may cause significant error
 Vibrational temperatures:     27.00    56.18    67.61   147.41   166.05
          (Kelvin)            183.18   200.12   271.78   339.59   347.19
                              391.14   448.21   484.33   503.75   518.96
                              600.81   656.81   672.12   698.47   795.97
                              830.08   914.71  1032.47  1094.34  1096.81
                             1110.49  1152.20  1167.97  1237.63  1308.95
                             1320.15  1371.30  1390.66  1410.62  1414.56
                             1455.24  1460.49  1483.10  1533.23  1569.36
                             1615.06  1628.56  1646.49  1706.55  1706.93
                             1741.95  1778.67  1788.12  1875.97  1907.16
                             1910.85  1924.20  2023.40  2072.25  2138.48
                             2146.95  2164.53  2176.89  2177.39  2184.15
                             2192.25  2193.81  2338.62  2368.63  2415.71
                             2630.99  4420.32  4428.57  4444.37  4508.72
                             4524.06  4537.20  4550.72  4568.73  4587.27
                             4602.45  4629.83  4652.65

 Zero-point correction=                           0.221424 (Hartree/Particle)
 Thermal correction to Energy=                    0.235971
 Thermal correction to Enthalpy=                  0.236916
 Thermal correction to Gibbs Free Energy=         0.177929
 Sum of electronic and zero-point Energies=           -761.357703
 Sum of electronic and thermal Energies=              -761.343156
 Sum of electronic and thermal Enthalpies=            -761.342212
 Sum of electronic and thermal Free Energies=         -761.401198

                     E (Thermal)             CV                S
                      KCal/Mol        Cal/Mol-Kelvin    Cal/Mol-Kelvin
 Total                  148.074             53.976            124.147
 Electronic               0.000              0.000              0.000
 Translational            0.889              2.981             42.069
 Rotational               0.889              2.981             32.576
 Vibrational            146.297             48.015             49.502
 Vibration     1          0.593              1.986              6.761
 Vibration     2          0.594              1.981              5.307
 Vibration     3          0.595              1.979              4.940
 Vibration     4          0.605              1.947              3.407
 Vibration     5          0.608              1.937              3.176
 Vibration     6          0.611              1.926              2.986
 Vibration     7          0.615              1.914              2.816
 Vibration     8          0.633              1.855              2.239
 Vibration     9          0.655              1.786              1.833
 Vibration    10          0.658              1.777              1.793
 Vibration    11          0.675              1.725              1.584
 Vibration    12          0.700              1.652              1.354
 Vibration    13          0.717              1.602              1.228
 Vibration    14          0.727              1.575              1.166
 Vibration    15          0.735              1.553              1.119
 Vibration    16          0.781              1.432              0.900
 Vibration    17          0.815              1.347              0.776
 Vibration    18          0.824              1.323              0.746
 Vibration    19          0.842              1.282              0.695
 Vibration    20          0.909              1.133              0.538
 Vibration    21          0.933              1.081              0.491

                           ! Non-Optimized Parameters !
 Normal termination of Gaussian 16 at Thu Dec 10 22:44:26 2020.

 ----------------------------------------------------------------------
 # B3LYP/6-311++G(d,p) empiricaldispersion=gd3bj scf=xqc pop=npa geom=c
 heck
 ----------------------------------------------------------------------

 ---------------------------------------
 CID_152298980_JID_6405_Energie_neutraal
 ---------------------------------------
 Structure from the checkpoint file:  "JID_6405.chk"
 Charge =  0 Multiplicity = 1

 SCF Done:  E(RB3LYP) =  -761.787519646     A.U. after   15 cycles
 Normal termination of Gaussian 16 at Thu Dec 10 22:47:41 2020.

 ----------------------------------------------------------------------
 # B3LYP/6-311++G(d,p) empiricaldispersion=gd3bj scf=xqc pop=npa geom=c
 heck
 ----------------------------------------------------------------------

 -------------------------------------
 CID_152298980_JID_6405_Energie_kation
 -------------------------------------
 Structure from the checkpoint file:  "JID_6405.chk"
 Charge =  1 Multiplicity = 2

 SCF Done:  E(UB3LYP) =  -761.483355312     A.U. after   22 cycles
 Normal termination of Gaussian 16 at Thu Dec 10 22:54:00 2020.
 Gaussian 16:  ES64L-G16RevA.03 25-Dec-2016

 ----------------------------------------------------------------------
 # B3LYP/6-311++G(d,p) empiricaldispersion=gd3bj scf=xqc pop=npa geom=c
 heck
 ----------------------------------------------------------------------

 ------------------------------------
 CID_152298980_JID_6405_Energie_anion
 ------------------------------------
 Structure from the checkpoint file:  "JID_6405.chk"
 Charge = -1 Multiplicity = 2

                         Standard orientation:
 ---------------------------------------------------------------------
 Center     Atomic      Atomic             Coordinates (Angstroms)
 Number     Number       Type             X           Y           Z
 ---------------------------------------------------------------------
      1          6           0        2.305572   -2.214895   -0.587260
      2          6           0        1.720024   -0.879804   -0.162555
      3          6           0        0.429005   -0.481134   -0.904860
      4          6           0       -0.551075   -0.432094    0.236224
      5          7           0       -0.041735   -0.711952    1.382132
      6          8           0        1.307365   -0.993918    1.250404
      7          6           0       -1.971215   -0.105030    0.076359
      8          6           0       -2.846931   -0.062847    1.173039
      9          6           0       -4.179051    0.255165    0.944195
     10          6           0       -4.597146    0.520029   -0.362069
     11          6           0       -3.651335    0.452669   -1.384083
     12          7           0       -2.364500    0.148803   -1.184923
     13          6           0        2.778983    0.226002   -0.187113
     14          8           0        3.941902    0.065661   -0.483293
     15          8           0        2.247061    1.407148    0.175884
     16          6           0        3.172237    2.504470    0.241042
     17          1           0        1.537894   -2.989306   -0.501367
     18          1           0        3.156108   -2.479445    0.044484
     19          1           0        2.651534   -2.165967   -1.624120
     20          1           0        0.493795    0.487377   -1.406094
     21          1           0        0.130292   -1.219279   -1.655743
     22          1           0       -2.469605   -0.276902    2.166546
     23          1           0       -4.882950    0.296669    1.770462
     24          1           0       -5.629047    0.772567   -0.584386
     25          1           0       -3.937986    0.652297   -2.414897
     26          1           0        3.957364    2.294905    0.971760
     27          1           0        3.630754    2.676170   -0.736232
     28          1           0        2.580454    3.366633    0.547652
 ---------------------------------------------------------------------

 SCF Done:  E(UB3LYP) =  -761.796123236     A.U. after   30 cycles

 The electronic state is 2-A.
 Alpha  occ. eigenvalues --  -19.06269 -19.01670 -19.00521 -14.17834 -14.14491
 Alpha  occ. eigenvalues --  -10.18632 -10.13229 -10.11896 -10.05553 -10.05452
 Alpha  occ. eigenvalues --  -10.04865 -10.04111 -10.03679 -10.03652 -10.02223
 Alpha  occ. eigenvalues --  -10.01734  -1.00527  -0.94856  -0.91681  -0.78840
 Alpha  occ. eigenvalues --   -0.71377  -0.68414  -0.65053  -0.63271  -0.60593
 Alpha  occ. eigenvalues --   -0.57985  -0.51465  -0.49574  -0.47619  -0.45480
 Alpha  occ. eigenvalues --   -0.43233  -0.40187  -0.38436  -0.37970  -0.36114
 Alpha  occ. eigenvalues --   -0.34146  -0.33733  -0.32952  -0.31902  -0.29975
 Alpha  occ. eigenvalues --   -0.29615  -0.29476  -0.28156  -0.27410  -0.26382
 Alpha  occ. eigenvalues --   -0.25872  -0.25077  -0.23951  -0.23522  -0.22020
 Alpha  occ. eigenvalues --   -0.20727  -0.20603  -0.17758  -0.14665  -0.13907
 Alpha  occ. eigenvalues --   -0.13512  -0.10867  -0.08427   0.05008
 Alpha virt. eigenvalues --    0.07301   0.08902   0.09189   0.10072   0.10386
 Alpha virt. eigenvalues --    0.10840   0.11207   0.11713   0.11761   0.12312
 Alpha virt. eigenvalues --    0.12588   0.13271   0.14056   0.15037   0.15628

  Beta  occ. eigenvalues --  -19.06249 -19.01581 -19.00462 -14.17139 -14.14256
  Beta  occ. eigenvalues --  -10.18572 -10.13228 -10.11905 -10.05621 -10.05449
  Beta  occ. eigenvalues --  -10.04871 -10.03804 -10.03655 -10.03594 -10.02171
  Beta  occ. eigenvalues --  -10.01429  -1.00452  -0.94426  -0.91593  -0.78359
  Beta  occ. eigenvalues --   -0.70782  -0.68275  -0.64658  -0.63236  -0.60143
  Beta  occ. eigenvalues --   -0.57810  -0.51355  -0.48827  -0.47523  -0.45394
  Beta  occ. eigenvalues --   -0.42977  -0.40036  -0.38325  -0.37887  -0.35987
  Beta  occ. eigenvalues --   -0.34039  -0.33589  -0.32689  -0.31626  -0.29786
  Beta  occ. eigenvalues --   -0.29398  -0.29249  -0.28042  -0.27200  -0.26150
  Beta  occ. eigenvalues --   -0.25730  -0.24165  -0.23596  -0.22686  -0.21816
  Beta  occ. eigenvalues --   -0.20534  -0.20379  -0.17452  -0.13330  -0.13109
  Beta  occ. eigenvalues --   -0.12456  -0.10561  -0.06601
  Beta virt. eigenvalues --    0.07237   0.08856   0.09146   0.10226   0.10351
  Beta virt. eigenvalues --    0.10815   0.11147   0.11663   0.11772   0.12036
  Beta virt. eigenvalues --    0.12366   0.12557   0.13241   0.13999   0.15040

 Mulliken charges and spin densities:
               1          2
     1  C   -0.463505   0.025558
     2  C    0.167802  -0.022168
     3  C   -0.478896  -0.006754
     4  C    0.099273   0.008926
     5  N   -0.622565   0.325095
     6  O    0.295529   0.011155
     7  C   -0.498885   0.146326
     8  C    0.425122   0.091151
     9  C   -0.779369   0.029973
    10  C   -0.144281   0.243287
    11  C   -0.123792  -0.041132
    12  N    0.005226   0.109003
    13  C   -0.136657   0.026708
    14  O   -0.304421   0.017946
    15  O   -0.039001   0.000105
    16  C   -0.204955  -0.026925
    17  H    0.153743  -0.000389
    18  H    0.162023   0.000987
    19  H    0.144298   0.007731
    20  H    0.175839   0.028832
    21  H    0.186111  -0.003623
    22  H    0.220163  -0.003053
    23  H    0.111085  -0.002148
    24  H    0.109370  -0.019506
    25  H    0.120609   0.004296
    26  H    0.154208   0.007249
    27  H    0.137867   0.026015
    28  H    0.128059   0.015354
 Sum of Mulliken charges =  -1.00000   1.00000

 Dipole moment (field-independent basis, Debye):
    X=              3.6790    Y=              1.7184    Z=             -1.4022  Tot=              4.2958
 Quadrupole moment (field-independent basis, Debye-Ang):
   XX=           -143.0150   YY=            -99.1116   ZZ=           -108.2557
   XY=              6.2256   XZ=             -1.6061   YZ=              3.8004

 Summary of Natural Population Analysis:

                                       Natural Population
                Natural  -----------------------------------------------
    Atom  No    Charge         Core      Valence    Rydberg      Total
 -----------------------------------------------------------------------
      C    1   -0.28878      0.99962     2.28279    0.00636     3.28878
      C    2    0.08391      0.99952     1.90201    0.01456     2.91609
      C    3   -0.21377      0.99957     2.20584    0.00836     3.21377
      C    4    0.07782      0.99958     1.90788    0.01472     2.92218
      N    5    0.04048      0.99960     2.44695    0.01297     3.45952
      O    6   -0.21940      0.99988     3.20696    0.01255     4.21940
      C    7    0.12748      0.99951     1.85948    0.01353     2.87252
      C    8   -0.09127      0.99944     2.08338    0.00845     3.09127
      C    9   -0.09798      0.99960     2.08847    0.00991     3.09798
      C   10   -0.08738      0.99957     2.07817    0.00965     3.08738
      C   11    0.00281      0.99960     1.98236    0.01523     2.99719
      N   12   -0.21366      0.99969     2.70314    0.01082     3.71366
      C   13    0.41442      0.99961     1.55930    0.02666     2.58558
      O   14   -0.31042      0.99987     3.30479    0.00576     4.31042
      O   15   -0.26998      0.99986     3.26096    0.00916     4.26998
      C   16   -0.10509      0.99961     2.09731    0.00817     3.10509
      H   17    0.10230      0.00000     0.39680    0.00090     0.39770
      H   18    0.10496      0.00000     0.39411    0.00094     0.39504
      H   19    0.09908      0.00000     0.39998    0.00095     0.40092
      H   20    0.11303      0.00000     0.38555    0.00142     0.38697
      H   21    0.10709      0.00000     0.39161    0.00131     0.39291
      H   22    0.10461      0.00000     0.39403    0.00136     0.39539
      H   23    0.08893      0.00000     0.40992    0.00115     0.41107
      H   24    0.08748      0.00000     0.41130    0.00122     0.41252
      H   25    0.07720      0.00000     0.42143    0.00136     0.42280
      H   26    0.08876      0.00000     0.41020    0.00104     0.41124
      H   27    0.08734      0.00000     0.41118    0.00148     0.41266
      H   28    0.09004      0.00000     0.40896    0.00099     0.40996
 =======================================================================
   * Total *    0.00002     15.99414    41.80484    0.20100    57.99998

 Normal termination of Gaussian 16 at Thu Dec 10 23:02:45 2020.
