 Gaussian 16, Revision A.03,

 -----------------------------------------------------------
 # opt freq B3LYP/6-31G(d) empiricaldispersion=gd3bj scf=xqc
 -----------------------------------------------------------

 -------------------------------
 CID_112702152_JID_8134_neutraal
 -------------------------------
 Symbolic Z-matrix:
 Charge =  0 Multiplicity = 1

 SCF Done:  E(RB3LYP) =  -783.277806288     A.U. after   15 cycles
 SCF Done:  E(RB3LYP) =  -783.281430481     A.U. after   13 cycles
 SCF Done:  E(RB3LYP) =  -783.281756290     A.U. after   11 cycles
 SCF Done:  E(RB3LYP) =  -783.281804282     A.U. after   12 cycles
 SCF Done:  E(RB3LYP) =  -783.281884215     A.U. after   11 cycles
 SCF Done:  E(RB3LYP) =  -783.281936296     A.U. after   11 cycles
 SCF Done:  E(RB3LYP) =  -783.281989697     A.U. after   11 cycles
 SCF Done:  E(RB3LYP) =  -783.282013317     A.U. after   10 cycles
 SCF Done:  E(RB3LYP) =  -783.282080324     A.U. after   12 cycles
 SCF Done:  E(RB3LYP) =  -783.282152978     A.U. after   12 cycles
 SCF Done:  E(RB3LYP) =  -783.284566105     A.U. after   10 cycles
 SCF Done:  E(RB3LYP) =  -783.284567977     A.U. after    8 cycles
 SCF Done:  E(RB3LYP) =  -783.284567986     A.U. after    8 cycles
 SCF Done:  E(RB3LYP) =  -783.284568551     A.U. after    8 cycles
 Optimization completed.
    -- Stationary point found.
 Normal termination of Gaussian 16 at Fri Dec 11 19:28:03 2020.

 --------------------------------------------------------------------
 #N Geom=AllCheck Guess=TCheck SCRF=Check GenChk RB3LYP/6-31G(d) Freq
 --------------------------------------------------------------------

 Structure from the checkpoint file:  "JID_8134.chk"
 -------------------------------
 CID_112702152_JID_8134_neutraal
 -------------------------------
 Charge =  0 Multiplicity = 1

 SCF Done:  E(RB3LYP) =  -783.284568551     A.U. after    1 cycles

  Exact polarizability: 179.984  17.805 161.269  18.234  -5.303 141.254
 Approx polarizability: 246.978  30.836 261.815  39.715 -17.563 235.934

                      1                      2                      3
                      A                      A                      A
 Frequencies --     25.4642                39.9930                48.9589
 Red. masses --      3.9387                 3.6896                 4.1494
 Frc consts  --      0.0015                 0.0035                 0.0059
 IR Inten    --      0.1942                 0.4236                 0.1997

                      4                      5                      6
                      A                      A                      A
 Frequencies --     67.2045                72.1507                80.9837
 Red. masses --      1.1533                 3.2005                 3.9745
 Frc consts  --      0.0031                 0.0098                 0.0154
 IR Inten    --      0.1124                 0.0377                 1.0510

                      7                      8                      9
                      A                      A                      A
 Frequencies --    107.2485               113.0830               138.7868
 Red. masses --      1.1035                 3.2387                 3.6393
 Frc consts  --      0.0075                 0.0244                 0.0413
 IR Inten    --      0.1945                 0.2525                 0.3346

                     10                     11                     12
                      A                      A                      A
 Frequencies --    170.1228               205.2050               228.6459
 Red. masses --      3.1376                 1.8804                 1.6599
 Frc consts  --      0.0535                 0.0467                 0.0511
 IR Inten    --      2.1461                 0.7730                 0.3347

                     13                     14                     15
                      A                      A                      A
 Frequencies --    236.7297               263.1940               277.5655
 Red. masses --      3.2427                 3.0530                 3.6854
 Frc consts  --      0.1071                 0.1246                 0.1673
 IR Inten    --      2.1471                 0.3201                 3.3522

                     16                     17                     18
                      A                      A                      A
 Frequencies --    310.5953               325.0760               353.8523
 Red. masses --      5.2888                 4.0328                 3.5740
 Frc consts  --      0.3006                 0.2511                 0.2637
 IR Inten    --      3.3587                 2.5409                 2.3748

                     19                     20                     21
                      A                      A                      A
 Frequencies --    413.2773               423.6060               458.8838
 Red. masses --      2.8954                 3.4596                 2.5690
 Frc consts  --      0.2914                 0.3658                 0.3187
 IR Inten    --      1.2272                 3.3339                10.3064

                     22                     23                     24
                      A                      A                      A
 Frequencies --    472.3944               520.6671               539.8859
 Red. masses --      1.9923                 4.2013                 4.3345
 Frc consts  --      0.2619                 0.6710                 0.7444
 IR Inten    --     64.2969                 8.7252                 3.8754

                     25                     26                     27
                      A                      A                      A
 Frequencies --    561.7605               582.8038               626.1277
 Red. masses --      1.7188                 2.5552                 4.1656
 Frc consts  --      0.3196                 0.5114                 0.9622
 IR Inten    --     35.8069                26.4877                21.7518

                     28                     29                     30
                      A                      A                      A
 Frequencies --    655.6912               665.9890               711.3477
 Red. masses --      4.0655                 2.7843                 5.5281
 Frc consts  --      1.0298                 0.7276                 1.6481
 IR Inten    --      2.9183                18.2214                 5.6107

                     31                     32                     33
                      A                      A                      A
 Frequencies --    725.3417               736.3849               750.8947
 Red. masses --      5.0537                 4.2126                 4.6973
 Frc consts  --      1.5666                 1.3459                 1.5605
 IR Inten    --      1.5174                17.8684                16.5717

                     34                     35                     36
                      A                      A                      A
 Frequencies --    763.6213               796.2427               800.9902
 Red. masses --      1.6653                 2.3301                 1.4749
 Frc consts  --      0.5721                 0.8704                 0.5575
 IR Inten    --     31.3552                 8.4038                 2.3007

                     37                     38                     39
                      A                      A                      A
 Frequencies --    825.4479               888.5522               906.1654
 Red. masses --      2.9382                 1.4583                 4.6395
 Frc consts  --      1.1795                 0.6783                 2.2446
 IR Inten    --      1.0195                 1.4572                13.5100

                     40                     41                     42
                      A                      A                      A
 Frequencies --    951.3049               976.5712               983.1684
 Red. masses --      1.3813                 1.9190                 1.3086
 Frc consts  --      0.7365                 1.0783                 0.7453
 IR Inten    --      1.6100                 8.6289                 0.2565

                     43                     44                     45
                      A                      A                      A
 Frequencies --    985.5316              1010.5480              1066.6359
 Red. masses --      2.2697                 1.6516                 2.2673
 Frc consts  --      1.2989                 0.9937                 1.5198
 IR Inten    --      1.2752                 1.5709                 4.6011

                     46                     47                     48
                      A                      A                      A
 Frequencies --   1068.7604              1082.3591              1086.9900
 Red. masses --      1.4014                 1.4895                 2.1591
 Frc consts  --      0.9431                 1.0281                 1.5031
 IR Inten    --      6.5617                 2.7833                 6.7177

                     49                     50                     51
                      A                      A                      A
 Frequencies --   1102.0094              1115.8960              1145.4815
 Red. masses --      1.7086                 2.8166                 2.2334
 Frc consts  --      1.2225                 2.0665                 1.7266
 IR Inten    --      1.2784                 6.7158                15.7450

                     52                     53                     54
                      A                      A                      A
 Frequencies --   1175.3067              1197.7696              1204.7489
 Red. masses --      1.7596                 1.1040                 3.4542
 Frc consts  --      1.4321                 0.9332                 2.9539
 IR Inten    --     31.3958                 0.2765                 9.8889

                     55                     56                     57
                      A                      A                      A
 Frequencies --   1234.3513              1250.5300              1283.0134
 Red. masses --      2.3805                 4.4454                 1.3880
 Frc consts  --      2.1370                 4.0959                 1.3462
 IR Inten    --      0.1314                10.3016                 6.5060

                     58                     59                     60
                      A                      A                      A
 Frequencies --   1310.8985              1325.1642              1354.9829
 Red. masses --      2.7667                 1.6414                 3.4843
 Frc consts  --      2.8012                 1.6983                 3.7691
 IR Inten    --     16.8984                11.0007                65.5476

                     61                     62                     63
                      A                      A                      A
 Frequencies --   1365.2064              1383.3025              1403.9217
 Red. masses --      3.3620                 1.5293                 1.8858
 Frc consts  --      3.6918                 1.7242                 2.1900
 IR Inten    --    281.3861                10.6950                 5.4703

                     64                     65                     66
                      A                      A                      A
 Frequencies --   1441.8265              1445.9476              1453.0479
 Red. masses --      1.2178                 1.3370                 1.2407
 Frc consts  --      1.4916                 1.6470                 1.5434
 IR Inten    --      3.4647                 3.0108                 2.2965

                     67                     68                     69
                      A                      A                      A
 Frequencies --   1472.9932              1496.6106              1509.3713
 Red. masses --      2.2684                 2.3290                 1.2369
 Frc consts  --      2.8999                 3.0735                 1.6603
 IR Inten    --      9.3157                14.9054                17.7122

                     70                     71                     72
                      A                      A                      A
 Frequencies --   1511.1967              1515.6754              1523.6456
 Red. masses --      1.1340                 1.1046                 1.1216
 Frc consts  --      1.5258                 1.4950                 1.5341
 IR Inten    --      7.7112                 6.4228                12.2337

                     73                     74                     75
                      A                      A                      A
 Frequencies --   1528.5854              1529.6130              1537.5597
 Red. masses --      1.0903                 1.0812                 2.2251
 Frc consts  --      1.5010                 1.4905                 3.0992
 IR Inten    --      5.0144                 2.7981                 9.2070

                     76                     77                     78
                      A                      A                      A
 Frequencies --   1540.5297              1542.1781              1562.3719
 Red. masses --      1.5946                 1.4201                 4.2301
 Frc consts  --      2.2297                 1.9900                 6.0838
 IR Inten    --      2.9973                 5.9660               146.4607

                     79                     80                     81
                      A                      A                      A
 Frequencies --   1633.6193              1647.8877              1665.6355
 Red. masses --      5.9719                 5.3531                 5.7771
 Frc consts  --      9.3899                 8.5646                 9.4433
 IR Inten    --      0.8316                14.4020                 8.8008

                     82                     83                     84
                      A                      A                      A
 Frequencies --   1770.2062              3035.3763              3044.9806
 Red. masses --      8.8747                 1.0410                 1.0396
 Frc consts  --     16.3852                 5.6510                 5.6793
 IR Inten    --    369.4329                36.7863                35.7598

                     85                     86                     87
                      A                      A                      A
 Frequencies --   3052.5224              3060.4936              3088.5963
 Red. masses --      1.0371                 1.0679                 1.0957
 Frc consts  --      5.6936                 5.8933                 6.1584
 IR Inten    --     35.2885                24.4012                18.8686

                     88                     89                     90
                      A                      A                      A
 Frequencies --   3099.9500              3108.2729              3117.6990
 Red. masses --      1.0993                 1.0978                 1.1014
 Frc consts  --      6.2242                 6.2489                 6.3077
 IR Inten    --     14.9897                 3.7823                21.0357

                     91                     92                     93
                      A                      A                      A
 Frequencies --   3122.5907              3132.0946              3138.0997
 Red. masses --      1.0970                 1.1000                 1.1019
 Frc consts  --      6.3021                 6.3578                 6.3933
 IR Inten    --     33.9825                12.4748                26.0311

                     94                     95                     96
                      A                      A                      A
 Frequencies --   3174.8249              3189.9532              3203.1164
 Red. masses --      1.0865                 1.0890                 1.0932
 Frc consts  --      6.4521                 6.5289                 6.6084
 IR Inten    --      7.5353                14.8284                27.4700

                     97                     98                     99
                      A                      A                      A
 Frequencies --   3216.6698              3573.4464              3664.1610
 Red. masses --      1.0955                 1.0751                 1.0812
 Frc consts  --      6.6784                 8.0886                 8.5524
 IR Inten    --     16.0791                27.4235                65.2646

 - Thermochemistry -
 -------------------
 Temperature   298.150 Kelvin.  Pressure   1.00000 Atm.
 Atom     1 has atomic number  6 and mass  12.00000

 Molecular mass:   243.13716 amu.
 Principal axes and moments of inertia in atomic units:
                           1         2         3
     Eigenvalues --  2842.152635801.675766296.94119
           X            0.99996   0.00667   0.00536
           Y           -0.00710   0.99641   0.08431
           Z           -0.00478  -0.08435   0.99642
 This molecule is an asymmetric top.
 Rotational symmetry number  1.
 Warning -- assumption of classical behavior for rotation
           may cause significant error
 Rotational temperatures (Kelvin)      0.03047     0.01493     0.01375
 Rotational constants (GHZ):           0.63499     0.31107     0.28661
 Zero-point vibrational energy     767444.7 (Joules/Mol)
                                  183.42369 (Kcal/Mol)
 Warning -- explicit consideration of  26 degrees of freedom as
           vibrations may cause significant error
 Vibrational temperatures:     36.64    57.54    70.44    96.69   103.81
          (Kelvin)            116.52   154.31   162.70   199.68   244.77
                              295.24   328.97   340.60   378.68   399.35
                              446.88   467.71   509.11   594.61   609.47
                              660.23   679.67   749.12   776.78   808.25
                              838.52   900.86   943.39   958.21  1023.47
                             1043.60  1059.49  1080.37  1098.68  1145.62
                             1152.45  1187.64  1278.43  1303.77  1368.72
                             1405.07  1414.56  1417.96  1453.95  1534.65
                             1537.71  1557.27  1563.94  1585.55  1605.53
                             1648.09  1691.00  1723.32  1733.36  1775.96
                             1799.23  1845.97  1886.09  1906.62  1949.52
                             1964.23  1990.26  2019.93  2074.47  2080.40
                             2090.61  2119.31  2153.29  2171.65  2174.27
                             2180.72  2192.19  2199.29  2200.77  2212.21
                             2216.48  2218.85  2247.90  2350.41  2370.94
                             2396.48  2546.93  4367.23  4381.05  4391.90
                             4403.37  4443.80  4460.14  4472.11  4485.67
                             4492.71  4506.39  4515.03  4567.86  4589.63
                             4608.57  4628.07  5141.39  5271.91

 Zero-point correction=                           0.292304 (Hartree/Particle)
 Thermal correction to Energy=                    0.310110
 Thermal correction to Enthalpy=                  0.311055
 Thermal correction to Gibbs Free Energy=         0.245144
 Sum of electronic and zero-point Energies=           -782.992264
 Sum of electronic and thermal Energies=              -782.974458
 Sum of electronic and thermal Enthalpies=            -782.973514
 Sum of electronic and thermal Free Energies=         -783.039424

                     E (Thermal)             CV                S
                      KCal/Mol        Cal/Mol-Kelvin    Cal/Mol-Kelvin
 Total                  194.597             65.900            138.720
 Electronic               0.000              0.000              0.000
 Translational            0.889              2.981             42.366
 Rotational               0.889              2.981             33.007
 Vibrational            192.820             59.939             63.347
 Vibration     1          0.593              1.985              6.155
 Vibration     2          0.594              1.981              5.259
 Vibration     3          0.595              1.978              4.859
 Vibration     4          0.598              1.970              4.234
 Vibration     5          0.598              1.967              4.094
 Vibration     6          0.600              1.962              3.867
 Vibration     7          0.606              1.943              3.318
 Vibration     8          0.607              1.939              3.215
 Vibration     9          0.614              1.915              2.821
 Vibration    10          0.625              1.879              2.434
 Vibration    11          0.640              1.832              2.086
 Vibration    12          0.651              1.797              1.890
 Vibration    13          0.656              1.784              1.827
 Vibration    14          0.670              1.740              1.640
 Vibration    15          0.679              1.715              1.549
 Vibration    16          0.699              1.654              1.359
 Vibration    17          0.709              1.625              1.284
 Vibration    18          0.730              1.567              1.149
 Vibration    19          0.777              1.441              0.915
 Vibration    20          0.786              1.419              0.880
 Vibration    21          0.817              1.341              0.769
 Vibration    22          0.829              1.311              0.731
 Vibration    23          0.876              1.204              0.608
 Vibration    24          0.895              1.162              0.566
 Vibration    25          0.917              1.114              0.520
 Vibration    26          0.940              1.069              0.480

                           ! Non-Optimized Parameters !
 Normal termination of Gaussian 16 at Fri Dec 11 19:43:57 2020.

 ----------------------------------------------------------------------
 # B3LYP/6-311++G(d,p) empiricaldispersion=gd3bj scf=xqc pop=npa geom=c
 heck
 ----------------------------------------------------------------------

 ---------------------------------------
 CID_112702152_JID_8134_Energie_neutraal
 ---------------------------------------
 Structure from the checkpoint file:  "JID_8134.chk"
 Charge =  0 Multiplicity = 1

 SCF Done:  E(RB3LYP) =  -783.498985562     A.U. after   16 cycles
 Normal termination of Gaussian 16 at Fri Dec 11 19:50:09 2020.

 ----------------------------------------------------------------------
 # B3LYP/6-311++G(d,p) empiricaldispersion=gd3bj scf=xqc pop=npa geom=c
 heck
 ----------------------------------------------------------------------

 -------------------------------------
 CID_112702152_JID_8134_Energie_kation
 -------------------------------------
 Structure from the checkpoint file:  "JID_8134.chk"
 Charge =  1 Multiplicity = 2

 SCF Done:  E(UB3LYP) =  -783.205107817     A.U. after   33 cycles
 SCF Done:  E(UB3LYP) =  -783.205107817     a.u. after    1 cycles
 Normal termination of Gaussian 16 at Fri Dec 11 20:08:00 2020.
 Gaussian 16:  ES64L-G16RevA.03 25-Dec-2016

 ----------------------------------------------------------------------
 # B3LYP/6-311++G(d,p) empiricaldispersion=gd3bj scf=xqc pop=npa geom=c
 heck
 ----------------------------------------------------------------------

 ------------------------------------
 CID_112702152_JID_8134_Energie_anion
 ------------------------------------
 Structure from the checkpoint file:  "JID_8134.chk"
 Charge = -1 Multiplicity = 2

                         Standard orientation:
 ---------------------------------------------------------------------
 Center     Atomic      Atomic             Coordinates (Angstroms)
 Number     Number       Type             X           Y           Z
 ---------------------------------------------------------------------
      1          6           0       -1.197810    2.250821    1.907488
      2          6           0       -0.675560    0.808381    1.803806
      3          6           0       -1.551488   -0.074303    0.939988
      4          6           0       -2.319915   -1.076397    1.543400
      5          6           0       -3.196521   -1.873070    0.808326
      6          6           0       -3.339777   -1.662524   -0.562239
      7          6           0       -2.596464   -0.661051   -1.179937
      8          6           0       -1.690020    0.113511   -0.449534
      9          6           0       -0.977816    1.189389   -1.218019
     10          8           0       -1.588921    2.029214   -1.866319
     11          7           0        0.404419    1.227958   -1.168454
     12          6           0        1.278544    0.187933   -0.817870
     13          7           0        1.020322   -1.082075   -1.124020
     14          7           0        2.062605   -1.753562   -0.585282
     15          6           0        2.979058   -0.952962    0.029318
     16          6           0        2.496318    0.341732   -0.099608
     17          6           0        3.086372    1.619514    0.408536
     18          6           0        4.218194   -1.488714    0.667420
     19          1           0       -0.538464    2.856958    2.539449
     20          1           0       -2.201817    2.268477    2.345173
     21          1           0       -1.258674    2.727449    0.924516
     22          1           0        0.350626    0.816961    1.425824
     23          1           0       -0.627317    0.371523    2.808232
     24          1           0       -2.230860   -1.226078    2.616791
     25          1           0       -3.772991   -2.646916    1.308006
     26          1           0       -4.028462   -2.267557   -1.144781
     27          1           0       -2.703851   -0.470578   -2.242942
     28          1           0        0.787948    2.005599   -1.694084
     29          1           0        2.079496   -2.758960   -0.663135
     30          1           0        2.297552    2.301694    0.745936
     31          1           0        3.758223    1.441500    1.254912
     32          1           0        3.667027    2.147738   -0.359657
     33          1           0        4.566089   -0.811379    1.452834
     34          1           0        4.040542   -2.467769    1.126733
     35          1           0        5.036177   -1.602197   -0.055421
 ---------------------------------------------------------------------

 SCF Done:  E(UB3LYP) =  -783.492965999     A.U. after   33 cycles
 SCF Done:  E(UB3LYP) =  -783.492965999     a.u. after    1 cycles

 The electronic state is 2-A.
 Alpha  occ. eigenvalues --  -18.99237 -14.28245 -14.24701 -14.22781 -10.17571
 Alpha  occ. eigenvalues --  -10.12808 -10.11485 -10.08588 -10.08214 -10.07881
 Alpha  occ. eigenvalues --  -10.07849 -10.07738 -10.07697 -10.07665 -10.07387
 Alpha  occ. eigenvalues --  -10.07371 -10.07336 -10.06628  -0.95237  -0.94189
 Alpha  occ. eigenvalues --   -0.83536  -0.76535  -0.72330  -0.70426  -0.69252
 Alpha  occ. eigenvalues --   -0.66103  -0.63095  -0.62837  -0.59424  -0.55960
 Alpha  occ. eigenvalues --   -0.53806  -0.52261  -0.49510  -0.47981  -0.46316
 Alpha  occ. eigenvalues --   -0.42442  -0.41633  -0.39457  -0.38700  -0.36912
 Alpha  occ. eigenvalues --   -0.36020  -0.34936  -0.33908  -0.33612  -0.32691
 Alpha  occ. eigenvalues --   -0.32188  -0.31674  -0.31372  -0.30575  -0.30252
 Alpha  occ. eigenvalues --   -0.29918  -0.29368  -0.28168  -0.27584  -0.26349
 Alpha  occ. eigenvalues --   -0.25817  -0.24535  -0.23792  -0.20699  -0.20020
 Alpha  occ. eigenvalues --   -0.17108  -0.15434  -0.15112  -0.13737  -0.13386
 Alpha  occ. eigenvalues --    0.03921
 Alpha virt. eigenvalues --    0.05736   0.06777   0.06822   0.07785   0.08254
 Alpha virt. eigenvalues --    0.08496   0.08886   0.09137   0.09714   0.09879
 Alpha virt. eigenvalues --    0.10538   0.10979   0.11161   0.11647   0.12096

  Beta  occ. eigenvalues --  -18.99172 -14.28222 -14.24702 -14.22767 -10.17507
  Beta  occ. eigenvalues --  -10.12806 -10.11487 -10.08540 -10.08156 -10.07850
  Beta  occ. eigenvalues --  -10.07822 -10.07720 -10.07704 -10.07590 -10.07368
  Beta  occ. eigenvalues --  -10.07352 -10.07324 -10.06614  -0.95191  -0.94085
  Beta  occ. eigenvalues --   -0.83497  -0.76449  -0.72297  -0.70385  -0.69185
  Beta  occ. eigenvalues --   -0.65990  -0.63038  -0.62757  -0.59341  -0.55831
  Beta  occ. eigenvalues --   -0.53761  -0.52205  -0.49467  -0.47930  -0.46246
  Beta  occ. eigenvalues --   -0.42382  -0.41585  -0.39418  -0.38642  -0.36824
  Beta  occ. eigenvalues --   -0.35980  -0.34867  -0.33849  -0.33560  -0.32659
  Beta  occ. eigenvalues --   -0.32109  -0.31601  -0.31321  -0.30492  -0.30095
  Beta  occ. eigenvalues --   -0.29851  -0.29297  -0.28104  -0.27518  -0.26307
  Beta  occ. eigenvalues --   -0.25679  -0.24511  -0.23748  -0.20604  -0.19954
  Beta  occ. eigenvalues --   -0.16984  -0.15274  -0.14848  -0.13677  -0.13290
  Beta virt. eigenvalues --    0.06265   0.06668   0.07002   0.07519   0.07965
  Beta virt. eigenvalues --    0.08339   0.08840   0.09140   0.09726   0.09872
  Beta virt. eigenvalues --    0.10145   0.10934   0.11270   0.11383   0.12024

 Mulliken charges and spin densities:
               1          2
     1  C   -0.287598  -0.378211
     2  C   -0.568928  -0.063631
     3  C    0.322629   0.498365
     4  C   -0.127512  -0.251086
     5  C   -0.146872  -0.027168
     6  C   -0.416011  -0.071063
     7  C    0.073933  -0.078588
     8  C    0.903572   0.135857
     9  C   -1.066396   0.133270
    10  O   -0.262248   0.022801
    11  N   -0.167916   0.081856
    12  C   -0.527844  -0.155157
    13  N   -0.034173   0.073677
    14  N   -0.228406   0.033983
    15  C   -2.088485   2.195593
    16  C    0.071149   0.639096
    17  C    0.893622  -1.533652
    18  C    3.261823  -3.807347
    19  H   -0.012359   0.136595
    20  H    0.112389   0.015245
    21  H    0.124171   0.081146
    22  H    0.422451  -0.286632
    23  H   -0.094371   0.254243
    24  H    0.049125   0.084766
    25  H    0.093870   0.044029
    26  H    0.128924  -0.000911
    27  H    0.193574   0.005280
    28  H    0.232541   0.070045
    29  H    0.052978   0.283245
    30  H   -0.132333   0.288294
    31  H   -0.163679   0.317716
    32  H   -0.114624   0.270102
    33  H   -0.379301   0.531051
    34  H   -0.709432   0.864067
    35  H   -0.408261   0.593122
 Sum of Mulliken charges =  -1.00000   1.00000

 Dipole moment (field-independent basis, Debye):
    X=             -6.7509    Y=              0.7056    Z=             -0.8968  Tot=              6.8467
 Quadrupole moment (field-independent basis, Debye-Ang):
   XX=           -188.6874   YY=           -150.2616   ZZ=           -139.1042
   XY=             19.4785   XZ=            -13.5902   YZ=              5.8737

 Summary of Natural Population Analysis:

                                       Natural Population
                Natural  -----------------------------------------------
    Atom  No    Charge         Core      Valence    Rydberg      Total
 -----------------------------------------------------------------------
      C    1   -0.28183      0.99966     2.27690    0.00527     3.28183
      C    2   -0.20298      0.99960     2.19504    0.00834     3.20298
      C    3    0.00758      0.99948     1.98275    0.01019     2.99242
      C    4   -0.10604      0.99952     2.09660    0.00993     3.10604
      C    5   -0.09026      0.99957     2.08139    0.00931     3.09026
      C    6   -0.10793      0.99958     2.09893    0.00942     3.10793
      C    7   -0.07333      0.99946     2.06598    0.00788     3.07333
      C    8   -0.05079      0.99942     2.03860    0.01277     3.05079
      C    9    0.35287      0.99962     1.62329    0.02422     2.64713
      O   10   -0.31032      0.99988     3.30527    0.00517     4.31032
      N   11   -0.31829      0.99963     2.80979    0.00888     3.81829
      C   12    0.15367      0.99950     1.83031    0.01653     2.84633
      N   13   -0.16027      0.99969     2.64868    0.01190     3.66027
      N   14   -0.16590      0.99965     2.65378    0.01247     3.66590
      C   15    0.08846      0.99949     1.90000    0.01205     2.91154
      C   16   -0.07792      0.99942     2.06764    0.01086     3.07792
      C   17   -0.29419      0.99964     2.28854    0.00601     3.29419
      C   18   -0.30244      0.99964     2.29685    0.00595     3.30244
      H   19    0.09681      0.00000     0.40242    0.00077     0.40319
      H   20    0.09480      0.00000     0.40442    0.00079     0.40520
      H   21    0.10291      0.00000     0.39625    0.00084     0.39709
      H   22    0.10962      0.00000     0.38812    0.00226     0.39038
      H   23    0.09641      0.00000     0.40241    0.00117     0.40359
      H   24    0.09780      0.00000     0.40122    0.00098     0.40220
      H   25    0.09617      0.00000     0.40306    0.00077     0.40383
      H   26    0.09638      0.00000     0.40280    0.00081     0.40362
      H   27    0.10338      0.00000     0.39548    0.00114     0.39662
      H   28    0.19777      0.00000     0.30015    0.00209     0.30223
      H   29    0.19948      0.00000     0.29790    0.00262     0.30052
      H   30    0.10507      0.00000     0.39352    0.00141     0.39493
      H   31    0.10831      0.00000     0.39042    0.00127     0.39169
      H   32    0.10239      0.00000     0.39653    0.00107     0.39761
      H   33    0.11241      0.00000     0.38549    0.00210     0.38759
      H   34    0.11033      0.00000     0.38600    0.00367     0.38967
      H   35    0.10986      0.00000     0.38795    0.00218     0.39014
 =======================================================================
   * Total *    0.00000     17.99244    46.79447    0.21309    65.00000

 Normal termination of Gaussian 16 at Fri Dec 11 20:25:21 2020.
