 Gaussian 16, Revision A.03,

 -----------------------------------------------------------
 # opt freq B3LYP/6-31G(d) empiricaldispersion=gd3bj scf=xqc
 -----------------------------------------------------------

 -------------------------------
 CID_133301319_JID_9524_neutraal
 -------------------------------
 Symbolic Z-matrix:
 Charge =  0 Multiplicity = 1

 SCF Done:  E(RB3LYP) =  -842.262661049     A.U. after   14 cycles
 SCF Done:  E(RB3LYP) =  -842.269656746     A.U. after   12 cycles
 SCF Done:  E(RB3LYP) =  -842.272007963     A.U. after   12 cycles
 SCF Done:  E(RB3LYP) =  -842.273727452     A.U. after   14 cycles
 SCF Done:  E(RB3LYP) =  -842.274577615     A.U. after   12 cycles
 SCF Done:  E(RB3LYP) =  -842.275240638     A.U. after   12 cycles
 SCF Done:  E(RB3LYP) =  -842.276603155     A.U. after   14 cycles
 SCF Done:  E(RB3LYP) =  -842.277173279     A.U. after   11 cycles
 SCF Done:  E(RB3LYP) =  -842.276874722     A.U. after   12 cycles
 SCF Done:  E(RB3LYP) =  -842.278119109     A.U. after   11 cycles
 SCF Done:  E(RB3LYP) =  -842.279793277     A.U. after   10 cycles
 SCF Done:  E(RB3LYP) =  -842.279798777     A.U. after    9 cycles
 SCF Done:  E(RB3LYP) =  -842.279800673     A.U. after    8 cycles
 SCF Done:  E(RB3LYP) =  -842.279801026     A.U. after    8 cycles
 SCF Done:  E(RB3LYP) =  -842.279801127     A.U. after    7 cycles
 Optimization completed.
    -- Stationary point found.
 Normal termination of Gaussian 16 at Sun Dec 13 16:51:16 2020.

 --------------------------------------------------------------------
 #N Geom=AllCheck Guess=TCheck SCRF=Check GenChk RB3LYP/6-31G(d) Freq
 --------------------------------------------------------------------

 Structure from the checkpoint file:  "JID_9524.chk"
 -------------------------------
 CID_133301319_JID_9524_neutraal
 -------------------------------
 Charge =  0 Multiplicity = 1

 SCF Done:  E(RB3LYP) =  -842.279801127     A.U. after    1 cycles

  Exact polarizability: 231.124  -6.306 180.887  15.074  -3.490 127.087
 Approx polarizability: 300.495 -13.457 273.296  37.270 -15.696 196.687

                      1                      2                      3
                      A                      A                      A
 Frequencies --     19.9872                30.0901                40.3127
 Red. masses --      3.6621                 3.7554                 4.0417
 Frc consts  --      0.0009                 0.0020                 0.0039
 IR Inten    --      0.0434                 0.6076                 0.7922

                      4                      5                      6
                      A                      A                      A
 Frequencies --     54.7386                65.3532               102.0616
 Red. masses --      3.5511                 4.0859                 2.0700
 Frc consts  --      0.0063                 0.0103                 0.0127
 IR Inten    --      0.3754                 1.4344                 0.6472

                      7                      8                      9
                      A                      A                      A
 Frequencies --    129.2060               151.6466               179.2133
 Red. masses --      3.3494                 3.3896                 5.2373
 Frc consts  --      0.0329                 0.0459                 0.0991
 IR Inten    --      0.4524                 0.3074                 0.2451

                     10                     11                     12
                      A                      A                      A
 Frequencies --    200.8710               205.5283               239.7913
 Red. masses --      2.7909                 1.0474                 2.9227
 Frc consts  --      0.0663                 0.0261                 0.0990
 IR Inten    --      0.2445                 0.0025                 0.9591

                     13                     14                     15
                      A                      A                      A
 Frequencies --    245.5337               274.0920               285.1517
 Red. masses --      2.1232                 1.9988                 2.6407
 Frc consts  --      0.0754                 0.0885                 0.1265
 IR Inten    --      4.8997                 3.0093                 2.8903

                     16                     17                     18
                      A                      A                      A
 Frequencies --    297.2361               338.9559               373.5897
 Red. masses --      2.7234                 2.7945                 2.6349
 Frc consts  --      0.1418                 0.1892                 0.2167
 IR Inten    --      6.4024                 0.7106                 0.4897

                     19                     20                     21
                      A                      A                      A
 Frequencies --    384.0905               403.6962               431.6173
 Red. masses --      3.5297                 2.2527                 2.6133
 Frc consts  --      0.3068                 0.2163                 0.2868
 IR Inten    --      4.8929                 0.9628                 0.6419

                     22                     23                     24
                      A                      A                      A
 Frequencies --    448.2061               451.6328               469.9280
 Red. masses --      2.2094                 2.5231                 1.2254
 Frc consts  --      0.2615                 0.3032                 0.1594
 IR Inten    --      8.1058                 8.2311                91.1990

                     25                     26                     27
                      A                      A                      A
 Frequencies --    476.1278               516.5379               525.3241
 Red. masses --      2.2374                 3.0140                 2.6092
 Frc consts  --      0.2988                 0.4738                 0.4242
 IR Inten    --     52.5618                19.6252                50.2064

                     28                     29                     30
                      A                      A                      A
 Frequencies --    548.0941               567.4553               588.1047
 Red. masses --      3.4907                 2.0668                 1.8541
 Frc consts  --      0.6178                 0.3921                 0.3778
 IR Inten    --     26.7260                82.4574                22.1090

                     31                     32                     33
                      A                      A                      A
 Frequencies --    621.9317               659.0989               705.7747
 Red. masses --      2.6092                 2.3630                10.1837
 Frc consts  --      0.5946                 0.6048                 2.9887
 IR Inten    --     12.0787                64.1229                 9.0957

                     34                     35                     36
                      A                      A                      A
 Frequencies --    741.1060               779.2402               785.0517
 Red. masses --      3.3651                 3.0276                 3.0229
 Frc consts  --      1.0890                 1.0831                 1.0977
 IR Inten    --      1.7676                 7.1102                 6.1600

                     37                     38                     39
                      A                      A                      A
 Frequencies --    803.9137               823.4024               830.5706
 Red. masses --      1.2097                 2.1210                 1.7229
 Frc consts  --      0.4606                 0.8473                 0.7003
 IR Inten    --      0.9056                16.8340                 9.8373

                     40                     41                     42
                      A                      A                      A
 Frequencies --    834.2969               868.2347               875.2792
 Red. masses --      2.7616                 1.4900                 2.5874
 Frc consts  --      1.1325                 0.6618                 1.1679
 IR Inten    --      7.3994                 7.1284                 7.0314

                     43                     44                     45
                      A                      A                      A
 Frequencies --    899.3999               918.3978               938.3611
 Red. masses --      2.4198                 2.6468                 2.0129
 Frc consts  --      1.1533                 1.3153                 1.0442
 IR Inten    --      1.8589                 5.2962                17.1431

                     46                     47                     48
                      A                      A                      A
 Frequencies --    976.5391               982.3711               993.2749
 Red. masses --      1.4674                 1.6982                 1.4409
 Frc consts  --      0.8245                 0.9656                 0.8376
 IR Inten    --     13.0815                23.6263                 1.4108

                     49                     50                     51
                      A                      A                      A
 Frequencies --    996.8404              1011.6630              1017.6821
 Red. masses --      7.4761                 1.7976                 1.6241
 Frc consts  --      4.3770                 1.0839                 0.9911
 IR Inten    --     33.8517                14.4048                 2.5281

                     52                     53                     54
                      A                      A                      A
 Frequencies --   1032.1579              1046.6215              1058.8450
 Red. masses --      1.9530                 2.3803                 2.0461
 Frc consts  --      1.2259                 1.5363                 1.3516
 IR Inten    --     22.1054                44.9074                17.7401

                     55                     56                     57
                      A                      A                      A
 Frequencies --   1079.6551              1085.9605              1118.9781
 Red. masses --      1.6737                 2.0439                 2.6090
 Frc consts  --      1.1494                 1.4201                 1.9247
 IR Inten    --      0.3145                 4.3330                22.6813

                     58                     59                     60
                      A                      A                      A
 Frequencies --   1145.9032              1162.9884              1184.3042
 Red. masses --      2.1553                 1.7311                 2.2165
 Frc consts  --      1.6674                 1.3795                 1.8317
 IR Inten    --     12.2653                13.6290                 8.9005

                     61                     62                     63
                      A                      A                      A
 Frequencies --   1194.6106              1216.3249              1228.0911
 Red. masses --      1.2873                 1.9717                 2.5907
 Frc consts  --      1.0823                 1.7186                 2.3021
 IR Inten    --      0.3429                88.4023                19.6708

                     64                     65                     66
                      A                      A                      A
 Frequencies --   1247.7912              1256.4304              1284.9135
 Red. masses --      2.0520                 2.0228                 1.8225
 Frc consts  --      1.8824                 1.8814                 1.7728
 IR Inten    --     13.4642               192.2644                12.6986

                     67                     68                     69
                      A                      A                      A
 Frequencies --   1296.3573              1308.9449              1315.1202
 Red. masses --      1.2486                 1.4591                 1.5975
 Frc consts  --      1.2363                 1.4729                 1.6278
 IR Inten    --     19.6424                12.6666                 2.1225

                     70                     71                     72
                      A                      A                      A
 Frequencies --   1330.2505              1340.6829              1364.1891
 Red. masses --      1.6818                 1.8291                 1.2902
 Frc consts  --      1.7534                 1.9370                 1.4147
 IR Inten    --     24.1453                 7.4928                35.4663

                     73                     74                     75
                      A                      A                      A
 Frequencies --   1368.8680              1376.3454              1392.4415
 Red. masses --      1.3336                 1.5145                 1.5438
 Frc consts  --      1.4723                 1.6904                 1.7636
 IR Inten    --      4.0093                28.9142                 4.8320

                     76                     77                     78
                      A                      A                      A
 Frequencies --   1393.2336              1393.9461              1403.4247
 Red. masses --      1.3264                 1.5506                 1.4522
 Frc consts  --      1.5169                 1.7752                 1.6852
 IR Inten    --      3.7369                15.9182                 4.2973

                     79                     80                     81
                      A                      A                      A
 Frequencies --   1409.8674              1423.1492              1428.0420
 Red. masses --      1.5052                 1.5095                 1.3932
 Frc consts  --      1.7628                 1.8013                 1.6740
 IR Inten    --     38.2299                31.5040                10.5703

                     82                     83                     84
                      A                      A                      A
 Frequencies --   1439.1216              1450.7777              1470.1239
 Red. masses --      1.2382                 1.5804                 1.7501
 Frc consts  --      1.5110                 1.9599                 2.2285
 IR Inten    --      4.9220                10.0951                68.6300

                     85                     86                     87
                      A                      A                      A
 Frequencies --   1502.3808              1505.8671              1509.4293
 Red. masses --      1.2048                 1.1011                 1.1125
 Frc consts  --      1.6023                 1.4712                 1.4934
 IR Inten    --      9.0239                16.5079                10.1339

                     88                     89                     90
                      A                      A                      A
 Frequencies --   1513.2956              1514.9489              1521.1329
 Red. masses --      1.0838                 1.0830                 1.0620
 Frc consts  --      1.4624                 1.4645                 1.4478
 IR Inten    --      5.4665                 5.3470                 4.3059

                     91                     92                     93
                      A                      A                      A
 Frequencies --   1526.6490              1528.4542              1535.2417
 Red. masses --      1.1094                 1.0551                 1.3074
 Frc consts  --      1.5234                 1.4523                 1.8155
 IR Inten    --      4.2138                 3.1105                18.7011

                     94                     95                     96
                      A                      A                      A
 Frequencies --   1538.7616              1544.7519              1549.8691
 Red. masses --      1.0673                 1.0609                 2.6409
 Frc consts  --      1.4889                 1.4916                 3.7375
 IR Inten    --     17.7690                 0.3391               182.9269

                     97                     98                     99
                      A                      A                      A
 Frequencies --   1560.6835              1602.9235              1653.0242
 Red. masses --      2.2531                 3.9218                 5.5479
 Frc consts  --      3.2335                 5.9370                 8.9317
 IR Inten    --     74.1343               415.4650               883.7754

                    100                    101                    102
                      A                      A                      A
 Frequencies --   3022.8560              3029.4687              3037.2171
 Red. masses --      1.0683                 1.0597                 1.0707
 Frc consts  --      5.7515                 5.7303                 5.8192
 IR Inten    --     26.2725                21.7176                24.6477

                    103                    104                    105
                      A                      A                      A
 Frequencies --   3040.9628              3045.3508              3047.1816
 Red. masses --      1.0665                 1.0627                 1.0692
 Frc consts  --      5.8106                 5.8070                 5.8496
 IR Inten    --     12.5635                19.3596                70.0112

                    106                    107                    108
                      A                      A                      A
 Frequencies --   3049.2648              3057.9194              3061.7960
 Red. masses --      1.0576                 1.0374                 1.0501
 Frc consts  --      5.7939                 5.7157                 5.8003
 IR Inten    --     18.7033                31.7029                 5.7185

                    109                    110                    111
                      A                      A                      A
 Frequencies --   3065.7731              3078.2988              3085.4555
 Red. masses --      1.0871                 1.0934                 1.1039
 Frc consts  --      6.0202                 6.1046                 6.1919
 IR Inten    --     48.2799                59.2808                32.8394

                    112                    113                    114
                      A                      A                      A
 Frequencies --   3091.4672              3098.2851              3119.5443
 Red. masses --      1.1043                 1.1069                 1.1024
 Frc consts  --      6.2181                 6.2602                 6.3206
 IR Inten    --    102.0303                16.6974                40.5630

                    115                    116                    117
                      A                      A                      A
 Frequencies --   3127.2996              3137.0804              3148.0441
 Red. masses --      1.1027                 1.1020                 1.1006
 Frc consts  --      6.3541                 6.3899                 6.4261
 IR Inten    --     27.7434                30.4735                20.3292

                    118                    119                    120
                      A                      A                      A
 Frequencies --   3149.8721              3167.1222              3182.8345
 Red. masses --      1.0919                 1.0901                 1.0920
 Frc consts  --      6.3828                 6.4425                 6.5175
 IR Inten    --     17.0001                53.4463                 3.5735

                    121                    122                    123
                      A                      A                      A
 Frequencies --   3270.4938              3601.7685              3704.5107
 Red. masses --      1.0897                 1.0759                 1.0653
 Frc consts  --      6.8670                 8.2236                 8.6139
 IR Inten    --      1.3747                35.8611                19.5313

 - Thermochemistry -
 -------------------
 Temperature   298.150 Kelvin.  Pressure   1.00000 Atm.
 Atom     1 has atomic number  6 and mass  12.00000

 Molecular mass:   264.19501 amu.
 Principal axes and moments of inertia in atomic units:
                           1         2         3
     Eigenvalues --  2726.656849242.00258**********
           X            0.99999  -0.00336  -0.00273
           Y            0.00339   0.99995   0.00987
           Z            0.00270  -0.00988   0.99995
 This molecule is an asymmetric top.
 Rotational symmetry number  1.
 Warning -- assumption of classical behavior for rotation
           may cause significant error
 Rotational temperatures (Kelvin)      0.03177     0.00937     0.00795
 Rotational constants (GHZ):           0.66189     0.19528     0.16566
 Zero-point vibrational energy    1004159.4 (Joules/Mol)
                                  239.99986 (Kcal/Mol)
 Warning -- explicit consideration of  30 degrees of freedom as
           vibrations may cause significant error
 Vibrational temperatures:     28.76    43.29    58.00    78.76    94.03
          (Kelvin)            146.84   185.90   218.19   257.85   289.01
                              295.71   345.01   353.27   394.36   410.27
                              427.66   487.68   537.51   552.62   580.83
                              621.00   644.87   649.80   676.12   685.04
                              743.18   755.82   788.59   816.44   846.15
                              894.82   948.30  1015.45  1066.29  1121.15
                             1129.51  1156.65  1184.69  1195.01  1200.37
                             1249.20  1259.33  1294.04  1321.37  1350.09
                             1405.02  1413.41  1429.10  1434.23  1455.56
                             1464.22  1485.05  1505.85  1523.44  1553.38
                             1562.45  1609.96  1648.70  1673.28  1703.95
                             1718.78  1750.02  1766.95  1795.29  1807.72
                             1848.70  1865.17  1883.28  1892.16  1913.93
                             1928.94  1962.76  1969.50  1980.25  2003.41
                             2004.55  2005.58  2019.22  2028.48  2047.59
                             2054.63  2070.58  2087.35  2115.18  2161.59
                             2166.61  2171.73  2177.29  2179.67  2188.57
                             2196.51  2199.10  2208.87  2213.93  2222.55
                             2229.92  2245.48  2306.25  2378.33  4349.22
                             4358.73  4369.88  4375.27  4381.58  4384.21
                             4387.21  4399.66  4405.24  4410.96  4428.99
                             4439.28  4447.93  4457.74  4488.33  4499.49
                             4513.56  4529.33  4531.96  4556.78  4579.39
                             4705.51  5182.14  5329.96

 Zero-point correction=                           0.382464 (Hartree/Particle)
 Thermal correction to Energy=                    0.401177
 Thermal correction to Enthalpy=                  0.402121
 Thermal correction to Gibbs Free Energy=         0.334247
 Sum of electronic and zero-point Energies=           -841.897337
 Sum of electronic and thermal Energies=              -841.878624
 Sum of electronic and thermal Enthalpies=            -841.877680
 Sum of electronic and thermal Free Energies=         -841.945554

                     E (Thermal)             CV                S
                      KCal/Mol        Cal/Mol-Kelvin    Cal/Mol-Kelvin
 Total                  251.742             73.090            142.853
 Electronic               0.000              0.000              0.000
 Translational            0.889              2.981             42.614
 Rotational               0.889              2.981             33.973
 Vibrational            249.965             67.128             66.266
 Vibration     1          0.593              1.986              6.635
 Vibration     2          0.594              1.984              5.823
 Vibration     3          0.594              1.981              5.244
 Vibration     4          0.596              1.976              4.638
 Vibration     5          0.597              1.971              4.289
 Vibration     6          0.604              1.948              3.415
 Vibration     7          0.612              1.924              2.958
 Vibration     8          0.619              1.901              2.651
 Vibration     9          0.629              1.868              2.337
 Vibration    10          0.638              1.839              2.125
 Vibration    11          0.640              1.832              2.083
 Vibration    12          0.657              1.780              1.804
 Vibration    13          0.660              1.770              1.762
 Vibration    14          0.676              1.721              1.570
 Vibration    15          0.683              1.701              1.503
 Vibration    16          0.691              1.679              1.432
 Vibration    17          0.719              1.598              1.217
 Vibration    18          0.745              1.526              1.065
 Vibration    19          0.753              1.504              1.023
 Vibration    20          0.769              1.462              0.949
 Vibration    21          0.793              1.401              0.853
 Vibration    22          0.807              1.365              0.801
 Vibration    23          0.810              1.357              0.791
 Vibration    24          0.827              1.317              0.738
 Vibration    25          0.833              1.303              0.721
 Vibration    26          0.872              1.213              0.618
 Vibration    27          0.880              1.194              0.598
 Vibration    28          0.903              1.144              0.548
 Vibration    29          0.923              1.102              0.509
 Vibration    30          0.945              1.057              0.471

                           ! Non-Optimized Parameters !
 Normal termination of Gaussian 16 at Sun Dec 13 17:15:05 2020.

 ----------------------------------------------------------------------
 # B3LYP/6-311++G(d,p) empiricaldispersion=gd3bj scf=xqc pop=npa geom=c
 heck
 ----------------------------------------------------------------------

 ---------------------------------------
 CID_133301319_JID_9524_Energie_neutraal
 ---------------------------------------
 Structure from the checkpoint file:  "JID_9524.chk"
 Charge =  0 Multiplicity = 1

 SCF Done:  E(RB3LYP) =  -842.516297040     A.U. after   14 cycles
 Normal termination of Gaussian 16 at Sun Dec 13 17:26:06 2020.

 ----------------------------------------------------------------------
 # B3LYP/6-311++G(d,p) empiricaldispersion=gd3bj scf=xqc pop=npa geom=c
 heck
 ----------------------------------------------------------------------

 -------------------------------------
 CID_133301319_JID_9524_Energie_kation
 -------------------------------------
 Structure from the checkpoint file:  "JID_9524.chk"
 Charge =  1 Multiplicity = 2

 SCF Done:  E(UB3LYP) =  -842.241399432     A.U. after   24 cycles
 Normal termination of Gaussian 16 at Sun Dec 13 17:52:45 2020.
 Gaussian 16:  ES64L-G16RevA.03 25-Dec-2016

 ----------------------------------------------------------------------
 # B3LYP/6-311++G(d,p) empiricaldispersion=gd3bj scf=xqc pop=npa geom=c
 heck
 ----------------------------------------------------------------------

 ------------------------------------
 CID_133301319_JID_9524_Energie_anion
 ------------------------------------
 Structure from the checkpoint file:  "JID_9524.chk"
 Charge = -1 Multiplicity = 2

                         Standard orientation:
 ---------------------------------------------------------------------
 Center     Atomic      Atomic             Coordinates (Angstroms)
 Number     Number       Type             X           Y           Z
 ---------------------------------------------------------------------
      1          6           0       -5.344155   -0.516960    1.223170
      2          6           0       -4.480044    0.123948    0.135620
      3          6           0       -3.222732   -0.685536   -0.240375
      4          6           0       -3.560415   -2.062750   -0.803916
      5          6           0       -2.377961    0.097635   -1.270602
      6          7           0       -1.836689    1.342214   -0.740316
      7          6           0       -0.519688    1.509037   -0.363857
      8          6           0        0.287163    0.448337    0.055774
      9          6           0        1.613743    0.758678    0.413145
     10          7           0        2.068861    2.033854    0.342393
     11          6           0        1.191241    2.953236   -0.047413
     12          7           0       -0.078011    2.786800   -0.411553
     13          7           0        2.499790   -0.184223    0.876810
     14          6           0        3.935133    0.115119    0.886346
     15          6           0        4.584845   -0.358480   -0.421577
     16          6           0        4.295366   -1.846083   -0.677075
     17          6           0        2.792293   -2.151175   -0.577468
     18          6           0        2.232655   -1.614271    0.747101
     19          8           0       -2.423162   -0.925067    0.926001
     20          1           0       -5.820913   -1.438917    0.873598
     21          1           0       -6.139432    0.166386    1.539419
     22          1           0       -4.734617   -0.765390    2.097058
     23          1           0       -5.076793    0.291528   -0.771744
     24          1           0       -4.145174    1.114518    0.472403
     25          1           0       -4.188020   -1.975487   -1.697472
     26          1           0       -2.642416   -2.596360   -1.071339
     27          1           0       -4.093165   -2.662564   -0.061954
     28          1           0       -1.552740   -0.538378   -1.611076
     29          1           0       -2.995119    0.330942   -2.145987
     30          1           0       -2.226458    2.204219   -1.098741
     31          1           0       -0.123348   -0.546364    0.133955
     32          1           0        1.563978    3.976527   -0.083226
     33          1           0        4.377347   -0.411606    1.742564
     34          1           0        4.060648    1.186092    1.030642
     35          1           0        5.666552   -0.178706   -0.385980
     36          1           0        4.182524    0.248657   -1.242950
     37          1           0        4.682963   -2.149444   -1.656860
     38          1           0        4.829156   -2.448964    0.072499
     39          1           0        2.254304   -1.670148   -1.405153
     40          1           0        2.610007   -3.230414   -0.652707
     41          1           0        1.166216   -1.813451    0.852929
     42          1           0        2.730088   -2.115636    1.588020
     43          1           0       -2.142607   -0.051444    1.249521
 ---------------------------------------------------------------------

 SCF Done:  E(UB3LYP) =  -842.506177013     A.U. after   33 cycles
 SCF Done:  E(UB3LYP) =  -842.506177013     a.u. after    1 cycles

 The electronic state is 2-A.
 Alpha  occ. eigenvalues --  -19.03125 -14.24842 -14.24347 -14.20781 -14.20611
 Alpha  occ. eigenvalues --  -10.16242 -10.16043 -10.14348 -10.13891 -10.11681
 Alpha  occ. eigenvalues --  -10.11567 -10.11021 -10.08241 -10.08229 -10.08201
 Alpha  occ. eigenvalues --  -10.07638 -10.07594 -10.06943 -10.06846  -0.93841
 Alpha  occ. eigenvalues --   -0.90576  -0.87486  -0.83881  -0.77501  -0.71725
 Alpha  occ. eigenvalues --   -0.70710  -0.68272  -0.67275  -0.64913  -0.60968
 Alpha  occ. eigenvalues --   -0.59786  -0.56028  -0.54696  -0.53464  -0.52183
 Alpha  occ. eigenvalues --   -0.49099  -0.47856  -0.45595  -0.44206  -0.40648
 Alpha  occ. eigenvalues --   -0.40013  -0.39669  -0.38582  -0.37845  -0.37434
 Alpha  occ. eigenvalues --   -0.36260  -0.35790  -0.35468  -0.34375  -0.33600
 Alpha  occ. eigenvalues --   -0.32563  -0.31800  -0.31562  -0.30560  -0.30295
 Alpha  occ. eigenvalues --   -0.29972  -0.29129  -0.28117  -0.27725  -0.26961
 Alpha  occ. eigenvalues --   -0.26561  -0.25138  -0.24744  -0.24310  -0.24148
 Alpha  occ. eigenvalues --   -0.23165  -0.21533  -0.20448  -0.18999  -0.16864
 Alpha  occ. eigenvalues --   -0.14383  -0.12783   0.03788
 Alpha virt. eigenvalues --    0.05167   0.06659   0.06854   0.07116   0.07317
 Alpha virt. eigenvalues --    0.07729   0.07799   0.08224   0.09027   0.09549
 Alpha virt. eigenvalues --    0.09632   0.09891   0.10094   0.10537   0.10667

  Beta  occ. eigenvalues --  -19.03113 -14.24846 -14.24342 -14.20772 -14.20599
  Beta  occ. eigenvalues --  -10.16230 -10.16028 -10.14348 -10.13890 -10.11668
  Beta  occ. eigenvalues --  -10.11541 -10.11014 -10.08229 -10.08212 -10.08181
  Beta  occ. eigenvalues --  -10.07634 -10.07568 -10.06926 -10.06817  -0.93814
  Beta  occ. eigenvalues --   -0.90558  -0.87471  -0.83864  -0.77479  -0.71698
  Beta  occ. eigenvalues --   -0.70681  -0.68250  -0.67252  -0.64880  -0.60925
  Beta  occ. eigenvalues --   -0.59759  -0.55998  -0.54647  -0.53432  -0.52146
  Beta  occ. eigenvalues --   -0.49061  -0.47807  -0.45566  -0.44181  -0.40617
  Beta  occ. eigenvalues --   -0.39983  -0.39636  -0.38555  -0.37822  -0.37403
  Beta  occ. eigenvalues --   -0.36238  -0.35759  -0.35446  -0.34341  -0.33568
  Beta  occ. eigenvalues --   -0.32546  -0.31766  -0.31533  -0.30533  -0.30269
  Beta  occ. eigenvalues --   -0.29939  -0.29094  -0.28086  -0.27681  -0.26937
  Beta  occ. eigenvalues --   -0.26529  -0.25110  -0.24706  -0.24272  -0.24115
  Beta  occ. eigenvalues --   -0.23134  -0.21498  -0.20429  -0.18976  -0.16850
  Beta  occ. eigenvalues --   -0.14348  -0.12778
  Beta virt. eigenvalues --    0.05748   0.06121   0.06925   0.07261   0.07416
  Beta virt. eigenvalues --    0.07675   0.08027   0.08170   0.08416   0.09147
  Beta virt. eigenvalues --    0.09739   0.09856   0.10262   0.10336   0.10836

 Mulliken charges and spin densities:
               1          2
     1  C    0.285204  -0.911998
     2  C   -0.420125   0.279234
     3  C   -0.566101   0.705802
     4  C    1.243331  -1.741987
     5  C   -0.152049  -0.504729
     6  N   -0.277458   0.080392
     7  C   -1.948394   1.397965
     8  C    0.454393  -0.566841
     9  C    0.970892  -0.889907
    10  N   -0.259025   0.050962
    11  C    0.096855   0.035473
    12  N   -0.074945  -0.008935
    13  N    0.240108  -0.018301
    14  C   -0.079728  -0.326721
    15  C   -0.315122   0.157970
    16  C    0.773061  -1.257428
    17  C   -0.115506  -0.086756
    18  C   -0.068682  -0.163418
    19  O   -0.108801  -0.005534
    20  H   -0.000135   0.134031
    21  H   -0.127145   0.262730
    22  H    0.074315   0.084462
    23  H   -0.332194   0.505000
    24  H    0.120975   0.016368
    25  H   -0.273997   0.438227
    26  H   -0.125989   0.264890
    27  H    0.098694   0.050030
    28  H   -0.065340   0.281252
    29  H   -0.570629   0.781722
    30  H    0.035941   0.286792
    31  H    1.094543  -1.072262
    32  H    0.146600   0.054249
    33  H   -0.074828   0.219365
    34  H    0.204963   0.028959
    35  H   -0.123070   0.286624
    36  H    0.123705   0.019981
    37  H   -0.293141   0.456031
    38  H   -0.042094   0.181076
    39  H    0.080174   0.054338
    40  H   -0.268793   0.433711
    41  H   -0.276325   0.496769
    42  H   -0.111543   0.284339
    43  H    0.027405   0.226073
 Sum of Mulliken charges =  -1.00000   1.00000

 Dipole moment (field-independent basis, Debye):
    X=              2.4384    Y=              2.5190    Z=              2.6885  Tot=              4.4181
 Quadrupole moment (field-independent basis, Debye-Ang):
   XX=           -225.1619   YY=           -169.0371   ZZ=           -155.5445
   XY=              8.0777   XZ=             -8.7710   YZ=             -1.4054

 Summary of Natural Population Analysis:

                                       Natural Population
                Natural  -----------------------------------------------
    Atom  No    Charge         Core      Valence    Rydberg      Total
 -----------------------------------------------------------------------
      C    1   -0.28686      0.99966     2.28256    0.00464     3.28686
      C    2   -0.20394      0.99958     2.19462    0.00973     3.20394
      C    3    0.12476      0.99953     1.85929    0.01641     2.87524
      C    4   -0.29396      0.99961     2.28673    0.00762     3.29396
      C    5   -0.09745      0.99955     2.08561    0.01229     3.09745
      N    6   -0.31844      0.99966     2.80782    0.01096     3.81844
      C    7    0.21841      0.99953     1.76679    0.01528     2.78159
      C    8   -0.20568      0.99947     2.19981    0.00641     3.20568
      C    9    0.22854      0.99952     1.75791    0.01403     2.77146
      N   10   -0.29143      0.99967     2.78268    0.00907     3.79143
      C   11    0.15429      0.99967     1.82740    0.01864     2.84571
      N   12   -0.28885      0.99968     2.77881    0.01037     3.78885
      N   13   -0.24444      0.99965     2.73395    0.01084     3.74444
      C   14   -0.08676      0.99961     2.07637    0.01078     3.08676
      C   15   -0.19841      0.99963     2.19019    0.00859     3.19841
      C   16   -0.19068      0.99963     2.18277    0.00828     3.19068
      C   17   -0.19779      0.99963     2.18990    0.00826     3.19779
      C   18   -0.08330      0.99961     2.07289    0.01079     3.08330
      O   19   -0.37871      0.99989     3.37234    0.00649     4.37871
      H   20    0.09619      0.00000     0.40278    0.00103     0.40381
      H   21    0.09770      0.00000     0.40144    0.00086     0.40230
      H   22    0.10233      0.00000     0.39651    0.00116     0.39767
      H   23    0.10179      0.00000     0.39625    0.00196     0.39821
      H   24    0.09793      0.00000     0.40056    0.00151     0.40207
      H   25    0.10419      0.00000     0.39439    0.00142     0.39581
      H   26    0.10397      0.00000     0.39488    0.00115     0.39603
      H   27    0.10492      0.00000     0.39413    0.00095     0.39508
      H   28    0.10000      0.00000     0.39824    0.00176     0.40000
      H   29    0.10540      0.00000     0.39243    0.00217     0.39460
      H   30    0.19653      0.00000     0.30032    0.00315     0.30347
      H   31    0.11796      0.00000     0.38014    0.00190     0.38204
      H   32    0.08042      0.00000     0.41860    0.00098     0.41958
      H   33    0.09092      0.00000     0.40800    0.00108     0.40908
      H   34    0.11701      0.00000     0.38144    0.00155     0.38299
      H   35    0.09944      0.00000     0.39959    0.00097     0.40056
      H   36    0.09834      0.00000     0.40047    0.00119     0.40166
      H   37    0.10077      0.00000     0.39813    0.00109     0.39923
      H   38    0.09344      0.00000     0.40493    0.00163     0.40656
      H   39    0.09774      0.00000     0.40087    0.00138     0.40226
      H   40    0.10277      0.00000     0.39591    0.00132     0.39723
      H   41    0.10466      0.00000     0.39407    0.00127     0.39534
      H   42    0.09492      0.00000     0.40383    0.00125     0.40508
      H   43    0.23136      0.00000     0.26584    0.00281     0.26864
 =======================================================================
   * Total *    0.00000     18.99276    52.77220    0.23504    72.00000

 Normal termination of Gaussian 16 at Sun Dec 13 18:29:28 2020.
