 Gaussian 16, Revision A.03,

 -----------------------------------------------------------
 # opt freq B3LYP/6-31G(d) empiricaldispersion=gd3bj scf=xqc
 -----------------------------------------------------------

 ------------------------------
 CID_80573009_JID_7630_neutraal
 ------------------------------
 Symbolic Z-matrix:
 Charge =  0 Multiplicity = 1

 SCF Done:  E(RB3LYP) =  -1127.54125116     A.U. after   15 cycles
 SCF Done:  E(RB3LYP) =  -1127.54843748     A.U. after   13 cycles
 SCF Done:  E(RB3LYP) =  -1127.54957543     A.U. after   11 cycles
 SCF Done:  E(RB3LYP) =  -1127.54951265     A.U. after   12 cycles
 SCF Done:  E(RB3LYP) =  -1127.54984110     A.U. after   12 cycles
 SCF Done:  E(RB3LYP) =  -1127.54988544     A.U. after   11 cycles
 SCF Done:  E(RB3LYP) =  -1127.54989542     A.U. after   10 cycles
 SCF Done:  E(RB3LYP) =  -1127.54989763     A.U. after    9 cycles
 SCF Done:  E(RB3LYP) =  -1127.54989812     A.U. after    8 cycles
 SCF Done:  E(RB3LYP) =  -1127.54989836     A.U. after    7 cycles
 SCF Done:  E(RB3LYP) =  -1127.54989844     A.U. after    7 cycles
 SCF Done:  E(RB3LYP) =  -1127.54989848     A.U. after    6 cycles
 SCF Done:  E(RB3LYP) =  -1127.54989850     A.U. after    6 cycles
 Optimization completed.
    -- Stationary point found.
 Normal termination of Gaussian 16 at Fri Dec 11 13:04:07 2020.

 --------------------------------------------------------------------
 #N Geom=AllCheck Guess=TCheck SCRF=Check GenChk RB3LYP/6-31G(d) Freq
 --------------------------------------------------------------------

 Structure from the checkpoint file:  "JID_7630.chk"
 ------------------------------
 CID_80573009_JID_7630_neutraal
 ------------------------------
 Charge =  0 Multiplicity = 1

 SCF Done:  E(RB3LYP) =  -1127.54989850     A.U. after    1 cycles

  Exact polarizability: 239.427  14.073 152.229 -10.012  14.383 122.247
 Approx polarizability: 319.573   9.483 229.920 -29.244  46.982 203.180

                      1                      2                      3
                      A                      A                      A
 Frequencies --     30.2920                39.4732                49.6398
 Red. masses --      4.2575                 3.6725                 3.5853
 Frc consts  --      0.0023                 0.0034                 0.0052
 IR Inten    --      0.1045                 0.0488                 0.8406

                      4                      5                      6
                      A                      A                      A
 Frequencies --     58.2761                76.5414                84.2295
 Red. masses --      3.3554                 3.3727                 2.4683
 Frc consts  --      0.0067                 0.0116                 0.0103
 IR Inten    --      1.6083                 0.2400                 0.4445

                      7                      8                      9
                      A                      A                      A
 Frequencies --     93.8517               102.6402               120.5226
 Red. masses --      5.1345                 2.7572                 3.1139
 Frc consts  --      0.0266                 0.0171                 0.0266
 IR Inten    --      0.6763                 0.1393                 3.3120

                     10                     11                     12
                      A                      A                      A
 Frequencies --    132.9480               156.5403               192.5487
 Red. masses --      1.4315                 3.0882                 3.2035
 Frc consts  --      0.0149                 0.0446                 0.0700
 IR Inten    --      0.9860                 1.7037                 0.9832

                     13                     14                     15
                      A                      A                      A
 Frequencies --    211.5559               214.6721               234.4535
 Red. masses --      1.3414                 1.0880                 1.5873
 Frc consts  --      0.0354                 0.0295                 0.0514
 IR Inten    --      0.6463                 0.2372                 0.8711

                     16                     17                     18
                      A                      A                      A
 Frequencies --    245.9182               269.8516               279.1832
 Red. masses --      3.3130                 2.1832                 5.0254
 Frc consts  --      0.1180                 0.0937                 0.2308
 IR Inten    --      0.3398                 1.0257                 1.9692

                     19                     20                     21
                      A                      A                      A
 Frequencies --    298.3962               320.0687               338.9583
 Red. masses --      1.9499                 4.1166                 2.9850
 Frc consts  --      0.1023                 0.2485                 0.2021
 IR Inten    --      1.2007                27.5974                 1.2253

                     22                     23                     24
                      A                      A                      A
 Frequencies --    396.1424               406.7096               421.2968
 Red. masses --      4.1411                 2.9007                 2.2180
 Frc consts  --      0.3829                 0.2827                 0.2319
 IR Inten    --      7.5472                 0.8972                 1.2202

                     25                     26                     27
                      A                      A                      A
 Frequencies --    461.7287               481.9887               511.1144
 Red. masses --      4.3629                 3.1092                 4.0364
 Frc consts  --      0.5480                 0.4256                 0.6213
 IR Inten    --      0.2406                 4.5324                 2.4602

                     28                     29                     30
                      A                      A                      A
 Frequencies --    562.3275               630.0197               647.7054
 Red. masses --      3.9205                 5.3470                 7.7202
 Frc consts  --      0.7304                 1.2505                 1.9082
 IR Inten    --      2.1717                 5.1708                18.2427

                     31                     32                     33
                      A                      A                      A
 Frequencies --    681.3011               748.7475               769.2086
 Red. masses --      6.5590                10.0974                 4.3720
 Frc consts  --      1.7938                 3.3353                 1.5241
 IR Inten    --      3.5849                18.4238                 7.5908

                     34                     35                     36
                      A                      A                      A
 Frequencies --    775.1402               803.2483               806.7132
 Red. masses --      1.8172                 4.1022                 1.4418
 Frc consts  --      0.6433                 1.5594                 0.5528
 IR Inten    --      1.2091                 1.9484                 0.6914

                     37                     38                     39
                      A                      A                      A
 Frequencies --    810.2736               885.2847               914.2544
 Red. masses --      1.3510                 1.9533                 1.4084
 Frc consts  --      0.5226                 0.9020                 0.6936
 IR Inten    --     10.2409                14.6111                 4.3157

                     40                     41                     42
                      A                      A                      A
 Frequencies --    940.8712               959.3839               970.5169
 Red. masses --      1.8006                 1.7432                 6.4677
 Frc consts  --      0.9391                 0.9453                 3.5893
 IR Inten    --      7.7816                 0.0554                11.3521

                     43                     44                     45
                      A                      A                      A
 Frequencies --    990.5384              1001.2649              1020.9546
 Red. masses --      1.6215                 1.5137                 2.1915
 Frc consts  --      0.9374                 0.8941                 1.3459
 IR Inten    --     16.2419                 0.4548                30.6183

                     46                     47                     48
                      A                      A                      A
 Frequencies --   1059.7505              1106.6280              1128.8831
 Red. masses --      2.7958                 1.9681                 7.1721
 Frc consts  --      1.8500                 1.4201                 5.3851
 IR Inten    --      0.7070                14.6286               208.4683

                     49                     50                     51
                      A                      A                      A
 Frequencies --   1137.6604              1161.5535              1164.7183
 Red. masses --      1.7333                 2.1461                 2.4167
 Frc consts  --      1.3218                 1.7060                 1.9316
 IR Inten    --     26.7746                11.8534               127.5657

                     52                     53                     54
                      A                      A                      A
 Frequencies --   1185.7055              1185.9631              1213.5540
 Red. masses --      1.2717                 2.1180                 2.0600
 Frc consts  --      1.0534                 1.7551                 1.7875
 IR Inten    --      0.6271                15.5648                19.8156

                     55                     56                     57
                      A                      A                      A
 Frequencies --   1219.7538              1256.3459              1292.7127
 Red. masses --      1.5384                 1.6939                 1.7920
 Frc consts  --      1.3486                 1.5753                 1.7644
 IR Inten    --     74.1934                74.4800                21.8221

                     58                     59                     60
                      A                      A                      A
 Frequencies --   1310.0470              1314.7933              1333.1989
 Red. masses --      1.7267                 2.8118                 1.4296
 Frc consts  --      1.7460                 2.8638                 1.4971
 IR Inten    --    155.4521               606.1473               136.7527

                     61                     62                     63
                      A                      A                      A
 Frequencies --   1352.2330              1369.6834              1372.7861
 Red. masses --      1.2541                 1.8077                 1.8557
 Frc consts  --      1.3510                 1.9981                 2.0605
 IR Inten    --     36.1898                29.0841                33.3336

                     64                     65                     66
                      A                      A                      A
 Frequencies --   1401.4747              1406.1608              1415.8410
 Red. masses --      2.1037                 1.3571                 1.4898
 Frc consts  --      2.4345                 1.5810                 1.7596
 IR Inten    --     32.9664                20.9235                16.7409

                     67                     68                     69
                      A                      A                      A
 Frequencies --   1432.6736              1439.2845              1441.0075
 Red. masses --      1.4493                 1.2650                 1.2565
 Frc consts  --      1.7527                 1.5439                 1.5372
 IR Inten    --      0.3437                 5.1306                15.0978

                     70                     71                     72
                      A                      A                      A
 Frequencies --   1444.3784              1493.3290              1504.7271
 Red. masses --      1.2203                 1.2292                 1.1157
 Frc consts  --      1.5000                 1.6151                 1.4884
 IR Inten    --      3.5735                21.6465                32.6592

                     73                     74                     75
                      A                      A                      A
 Frequencies --   1510.9114              1511.6719              1517.3962
 Red. masses --      1.0751                 1.0485                 1.0992
 Frc consts  --      1.4460                 1.4117                 1.4912
 IR Inten    --      2.3875                 5.1417                58.2063

                     76                     77                     78
                      A                      A                      A
 Frequencies --   1523.8553              1526.7752              1527.0580
 Red. masses --      1.0575                 1.0464                 1.0496
 Frc consts  --      1.4468                 1.4371                 1.4421
 IR Inten    --      3.5761                23.6930                 3.7810

                     79                     80                     81
                      A                      A                      A
 Frequencies --   1531.5082              1534.9908              1535.8918
 Red. masses --      1.0617                 1.0796                 1.0811
 Frc consts  --      1.4673                 1.4987                 1.5026
 IR Inten    --      4.3461                42.2651                 9.1116

                     82                     83                     84
                      A                      A                      A
 Frequencies --   1543.5927              1574.6461              1603.7114
 Red. masses --      1.0484                 4.4097                 4.4585
 Frc consts  --      1.4718                 6.4421                 6.7560
 IR Inten    --      2.5339               458.2477               321.2793

                     85                     86                     87
                      A                      A                      A
 Frequencies --   1783.8540              2998.9884              3042.3663
 Red. masses --     11.7449                 1.0822                 1.0440
 Frc consts  --     22.0200                 5.7345                 5.6934
 IR Inten    --    334.0355                23.2479                 6.4792

                     88                     89                     90
                      A                      A                      A
 Frequencies --   3043.9089              3047.5933              3051.3042
 Red. masses --      1.0489                 1.0532                 1.0598
 Frc consts  --      5.7262                 5.7632                 5.8137
 IR Inten    --     34.1787                61.5341                21.8271

                     91                     92                     93
                      A                      A                      A
 Frequencies --   3059.2116              3061.8271              3072.1286
 Red. masses --      1.0398                 1.0602                 1.0296
 Frc consts  --      5.7335                 5.8561                 5.7252
 IR Inten    --     25.1475                16.4492                48.7341

                     94                     95                     96
                      A                      A                      A
 Frequencies --   3085.1029              3103.6806              3106.0454
 Red. masses --      1.1000                 1.1018                 1.1011
 Frc consts  --      6.1687                 6.2533                 6.2587
 IR Inten    --      5.8493                21.6646                15.8542

                     97                     98                     99
                      A                      A                      A
 Frequencies --   3110.1442              3119.3822              3128.0372
 Red. masses --      1.1009                 1.1022                 1.1029
 Frc consts  --      6.2740                 6.3187                 6.3582
 IR Inten    --     52.4208                42.7066                27.1762

                    100                    101                    102
                      A                      A                      A
 Frequencies --   3131.8710              3143.0027              3144.7032
 Red. masses --      1.0992                 1.1027                 1.1073
 Frc consts  --      6.3524                 6.4179                 6.4519
 IR Inten    --     33.8192                28.6692                23.5856

                    103                    104                    105
                      A                      A                      A
 Frequencies --   3145.3558              3177.7010              3240.0461
 Red. masses --      1.0956                 1.1068                 1.0936
 Frc consts  --      6.3860                 6.5849                 6.7643
 IR Inten    --      7.7069                19.7648                 5.3048

 - Thermochemistry -
 -------------------
 Temperature   298.150 Kelvin.  Pressure   1.00000 Atm.
 Atom     1 has atomic number  6 and mass  12.00000

 Molecular mass:   256.12455 amu.
 Principal axes and moments of inertia in atomic units:
                           1         2         3
     Eigenvalues --  2461.237988857.03632**********
           X            0.99999  -0.00059   0.00363
           Y            0.00066   0.99982  -0.01915
           Z           -0.00362   0.01915   0.99981
 This molecule is an asymmetric top.
 Rotational symmetry number  1.
 Warning -- assumption of classical behavior for rotation
           may cause significant error
 Rotational temperatures (Kelvin)      0.03519     0.00978     0.00842
 Rotational constants (GHZ):           0.73327     0.20376     0.17548
 Zero-point vibrational energy     828595.8 (Joules/Mol)
                                  198.03916 (Kcal/Mol)
 Warning -- explicit consideration of  28 degrees of freedom as
           vibrations may cause significant error
 Vibrational temperatures:     43.58    56.79    71.42    83.85   110.13
          (Kelvin)            121.19   135.03   147.68   173.41   191.28
                              225.23   277.03   304.38   308.87   337.33
                              353.82   388.26   401.68   429.33   460.51
                              487.69   569.96   585.16   606.15   664.32
                              693.47   735.38   809.06   906.46   931.90
                              980.24  1077.28  1106.72  1115.25  1155.70
                             1160.68  1165.80  1273.73  1315.41  1353.70
                             1380.34  1396.36  1425.16  1440.60  1468.93
                             1524.74  1592.19  1624.21  1636.84  1671.22
                             1675.77  1705.97  1706.34  1746.03  1754.95
                             1807.60  1859.93  1884.87  1891.69  1918.18
                             1945.56  1970.67  1975.13  2016.41  2023.15
                             2037.08  2061.30  2070.81  2073.29  2078.14
                             2148.57  2164.97  2173.86  2174.96  2183.19
                             2192.49  2196.69  2197.10  2203.50  2208.51
                             2209.81  2220.89  2265.56  2307.38  2566.57
                             4314.88  4377.29  4379.51  4384.81  4390.15
                             4401.52  4405.29  4420.11  4438.77  4465.50
                             4468.91  4474.80  4488.10  4500.55  4506.06
                             4522.08  4524.53  4525.47  4572.00  4661.70

 Zero-point correction=                           0.315595 (Hartree/Particle)
 Thermal correction to Energy=                    0.335025
 Thermal correction to Enthalpy=                  0.335969
 Thermal correction to Gibbs Free Energy=         0.266267
 Sum of electronic and zero-point Energies=          -1127.234303
 Sum of electronic and thermal Energies=             -1127.214874
 Sum of electronic and thermal Enthalpies=           -1127.213930
 Sum of electronic and thermal Free Energies=        -1127.283631

                     E (Thermal)             CV                S
                      KCal/Mol        Cal/Mol-Kelvin    Cal/Mol-Kelvin
 Total                  210.231             69.516            146.700
 Electronic               0.000              0.000              0.000
 Translational            0.889              2.981             42.521
 Rotational               0.889              2.981             33.771
 Vibrational            208.454             63.555             70.407
 Vibration     1          0.594              1.984              5.810
 Vibration     2          0.594              1.981              5.285
 Vibration     3          0.595              1.978              4.832
 Vibration     4          0.596              1.974              4.515
 Vibration     5          0.599              1.965              3.978
 Vibration     6          0.601              1.960              3.790
 Vibration     7          0.603              1.954              3.578
 Vibration     8          0.605              1.947              3.404
 Vibration     9          0.609              1.932              3.092
 Vibration    10          0.613              1.920              2.903
 Vibration    11          0.620              1.895              2.591
 Vibration    12          0.635              1.850              2.203
 Vibration    13          0.643              1.823              2.030
 Vibration    14          0.645              1.819              2.004
 Vibration    15          0.654              1.788              1.845
 Vibration    16          0.660              1.770              1.760
 Vibration    17          0.674              1.729              1.597
 Vibration    18          0.680              1.712              1.539
 Vibration    19          0.691              1.677              1.426
 Vibration    20          0.706              1.635              1.310
 Vibration    21          0.719              1.598              1.217
 Vibration    22          0.763              1.478              0.977
 Vibration    23          0.771              1.456              0.938
 Vibration    24          0.784              1.424              0.888
 Vibration    25          0.819              1.335              0.761
 Vibration    26          0.838              1.290              0.705
 Vibration    27          0.866              1.225              0.631
 Vibration    28          0.918              1.113              0.519

 Optimization completed.
    -- Stationary point found.
 Normal termination of Gaussian 16 at Fri Dec 11 13:17:48 2020.

 ----------------------------------------------------------------------
 # B3LYP/6-311++G(d,p) empiricaldispersion=gd3bj scf=xqc pop=npa geom=c
 heck
 ----------------------------------------------------------------------

 --------------------------------------
 CID_80573009_JID_7630_Energie_neutraal
 --------------------------------------
 Structure from the checkpoint file:  "JID_7630.chk"
 Charge =  0 Multiplicity = 1

 SCF Done:  E(RB3LYP) =  -1127.78045169     A.U. after   16 cycles
 Normal termination of Gaussian 16 at Fri Dec 11 13:25:51 2020.

 ----------------------------------------------------------------------
 # B3LYP/6-311++G(d,p) empiricaldispersion=gd3bj scf=xqc pop=npa geom=c
 heck
 ----------------------------------------------------------------------

 ------------------------------------
 CID_80573009_JID_7630_Energie_kation
 ------------------------------------
 Structure from the checkpoint file:  "JID_7630.chk"
 Charge =  1 Multiplicity = 2

 SCF Done:  E(UB3LYP) =  -1127.50712552     A.U. after   24 cycles
 Normal termination of Gaussian 16 at Fri Dec 11 13:42:58 2020.
 Gaussian 16:  ES64L-G16RevA.03 25-Dec-2016

 ----------------------------------------------------------------------
 # B3LYP/6-311++G(d,p) empiricaldispersion=gd3bj scf=xqc pop=npa geom=c
 heck
 ----------------------------------------------------------------------

 -----------------------------------
 CID_80573009_JID_7630_Energie_anion
 -----------------------------------
 Structure from the checkpoint file:  "JID_7630.chk"
 Charge = -1 Multiplicity = 2

                         Standard orientation:
 ---------------------------------------------------------------------
 Center     Atomic      Atomic             Coordinates (Angstroms)
 Number     Number       Type             X           Y           Z
 ---------------------------------------------------------------------
      1          6           0        3.633199   -2.522072    1.548910
      2          6           0        2.770391   -1.684430    0.601504
      3          6           0        3.523430   -0.524927   -0.070272
      4          6           0        4.676777   -1.003702   -0.960963
      5          6           0        2.576514    0.343680   -0.917681
      6          7           0        1.471915    0.931173   -0.156770
      7          6           0        1.732374    2.141422    0.616314
      8          6           0        1.489816    3.426767   -0.179298
      9          6           0        0.222838    0.425310   -0.278491
     10          7           0       -0.070305   -0.635846   -1.014540
     11          6           0       -1.396455   -0.926844   -0.922360
     12          6           0       -2.166562   -0.115026   -0.128488
     13         16           0       -1.156169    1.143042    0.575213
     14          6           0       -3.587494   -0.158505    0.173422
     15          8           0       -4.170034    0.626154    0.902221
     16          8           0       -4.202118   -1.190516   -0.461266
     17          6           0       -5.609348   -1.295559   -0.210370
     18          1           0        4.431865   -3.051867    1.018714
     19          1           0        3.026481   -3.274579    2.064107
     20          1           0        4.103491   -1.893121    2.315522
     21          1           0        2.332577   -2.323586   -0.176207
     22          1           0        1.923761   -1.271711    1.162074
     23          1           0        3.948630    0.107453    0.725322
     24          1           0        4.306565   -1.675377   -1.745773
     25          1           0        5.178106   -0.160453   -1.450921
     26          1           0        5.431423   -1.546551   -0.384766
     27          1           0        3.140079    1.165716   -1.377408
     28          1           0        2.140149   -0.253979   -1.719991
     29          1           0        1.112777    2.122390    1.520461
     30          1           0        2.771951    2.092122    0.953947
     31          1           0        0.448088    3.492196   -0.506761
     32          1           0        1.711632    4.303915    0.438179
     33          1           0        2.131291    3.461632   -1.066254
     34          1           0       -1.792536   -1.775913   -1.467329
     35          1           0       -5.801798   -1.443138    0.855833
     36          1           0       -6.129168   -0.391950   -0.540391
     37          1           0       -5.943587   -2.160933   -0.783592
 ---------------------------------------------------------------------

 SCF Done:  E(UB3LYP) =  -1127.77699896     A.U. after   33 cycles
 SCF Done:  E(UB3LYP) =  -1127.77699896     a.u. after    1 cycles

 The electronic state is 2-A.
 Alpha  occ. eigenvalues --  -88.75134 -19.04694 -18.97258 -14.23415 -14.18002
 Alpha  occ. eigenvalues --  -10.16348 -10.14076 -10.12642 -10.10908 -10.10012
 Alpha  occ. eigenvalues --  -10.07924 -10.07359 -10.07008 -10.06887 -10.06630
 Alpha  occ. eigenvalues --  -10.06545 -10.06328  -7.83757  -5.80069  -5.79726
 Alpha  occ. eigenvalues --   -5.79284  -0.98333  -0.89052  -0.87559  -0.81249
 Alpha  occ. eigenvalues --   -0.71830  -0.68288  -0.65992  -0.64896  -0.63427
 Alpha  occ. eigenvalues --   -0.60761  -0.57629  -0.54493  -0.53619  -0.49808
 Alpha  occ. eigenvalues --   -0.47035  -0.44457  -0.43722  -0.41166  -0.38946
 Alpha  occ. eigenvalues --   -0.37575  -0.37509  -0.36639  -0.35897  -0.34939
 Alpha  occ. eigenvalues --   -0.33552  -0.33420  -0.32414  -0.31788  -0.30347
 Alpha  occ. eigenvalues --   -0.29891  -0.29597  -0.29381  -0.28079  -0.27691
 Alpha  occ. eigenvalues --   -0.27320  -0.26363  -0.25729  -0.25172  -0.24367
 Alpha  occ. eigenvalues --   -0.23400  -0.23246  -0.22575  -0.19387  -0.18093
 Alpha  occ. eigenvalues --   -0.17183  -0.15778  -0.14580  -0.08981   0.04200
 Alpha virt. eigenvalues --    0.05781   0.06876   0.07125   0.07727   0.08440
 Alpha virt. eigenvalues --    0.09472   0.09677   0.10307   0.10575   0.11062
 Alpha virt. eigenvalues --    0.11341   0.11432   0.12067   0.12360   0.12764

  Beta  occ. eigenvalues --  -88.75118 -19.04653 -18.97076 -14.23353 -14.18112
  Beta  occ. eigenvalues --  -10.16169 -10.13826 -10.12645 -10.10902 -10.10007
  Beta  occ. eigenvalues --  -10.07913 -10.07101 -10.07000 -10.06869 -10.06630
  Beta  occ. eigenvalues --  -10.06507 -10.06283  -7.83743  -5.80065  -5.79721
  Beta  occ. eigenvalues --   -5.79225  -0.98157  -0.88776  -0.87362  -0.81132
  Beta  occ. eigenvalues --   -0.71801  -0.68167  -0.65911  -0.64777  -0.63330
  Beta  occ. eigenvalues --   -0.60617  -0.57484  -0.54429  -0.53518  -0.49441
  Beta  occ. eigenvalues --   -0.46986  -0.44346  -0.43621  -0.41029  -0.38827
  Beta  occ. eigenvalues --   -0.37510  -0.37268  -0.36540  -0.35774  -0.34856
  Beta  occ. eigenvalues --   -0.33427  -0.33349  -0.32302  -0.31621  -0.30169
  Beta  occ. eigenvalues --   -0.29670  -0.29517  -0.29094  -0.28002  -0.27522
  Beta  occ. eigenvalues --   -0.26921  -0.26321  -0.25670  -0.25074  -0.24279
  Beta  occ. eigenvalues --   -0.23296  -0.23217  -0.22543  -0.18858  -0.17374
  Beta  occ. eigenvalues --   -0.17113  -0.15442  -0.14521  -0.08310
  Beta virt. eigenvalues --    0.06261   0.07105   0.07323   0.07950   0.08554
  Beta virt. eigenvalues --    0.08734   0.09671   0.09899   0.10319   0.10704
  Beta virt. eigenvalues --    0.11163   0.11380   0.11451   0.12110   0.12403

 Mulliken charges and spin densities:
               1          2
     1  C   -0.293717  -0.457109
     2  C   -0.461201   0.353250
     3  C    0.294368   0.584716
     4  C    0.239600  -1.038337
     5  C   -0.591058  -0.424469
     6  N    0.558234   0.014094
     7  C   -0.489784   0.489407
     8  C    0.867754  -1.306344
     9  C   -0.281505   0.083128
    10  N   -0.008231  -0.065037
    11  C    0.151244   0.220615
    12  C   -0.587997  -0.014138
    13  S   -0.284732  -0.048637
    14  C    0.028399   0.100960
    15  O   -0.366071   0.060967
    16  O   -0.127412   0.006444
    17  C   -0.203848  -0.004598
    18  H    0.118916   0.012660
    19  H    0.125557   0.003366
    20  H   -0.041534   0.190425
    21  H    0.132208   0.037093
    22  H    0.239048  -0.059962
    23  H    0.165516  -0.021458
    24  H    0.119748   0.020578
    25  H   -0.247638   0.382468
    26  H   -0.145415   0.280251
    27  H    0.146666  -0.001850
    28  H    0.273896  -0.038958
    29  H    0.073383   0.043973
    30  H   -0.548869   0.706807
    31  H   -0.024453   0.163661
    32  H   -0.292931   0.432256
    33  H   -0.162513   0.303126
    34  H    0.175661  -0.012853
    35  H    0.159375   0.002516
    36  H    0.160842   0.001187
    37  H    0.128492  -0.000199
 Sum of Mulliken charges =  -1.00000   1.00000

 Dipole moment (field-independent basis, Debye):
    X=             -2.3135    Y=             -4.6345    Z=             -0.9032  Tot=              5.2581
 Quadrupole moment (field-independent basis, Debye-Ang):
   XX=           -189.1288   YY=           -151.2810   ZZ=           -132.8302
   XY=             -1.3224   XZ=              4.6223   YZ=             -3.3313

 Summary of Natural Population Analysis:

                                       Natural Population
                Natural  -----------------------------------------------
    Atom  No    Charge         Core      Valence    Rydberg      Total
 -----------------------------------------------------------------------
      C    1   -0.28590      0.99967     2.28137    0.00487     3.28590
      C    2   -0.19268      0.99962     2.18475    0.00832     3.19268
      C    3   -0.11623      0.99959     2.10669    0.00995     3.11623
      C    4   -0.28703      0.99965     2.28121    0.00617     3.28703
      C    5   -0.08001      0.99958     2.06844    0.01199     3.08001
      N    6   -0.24683      0.99960     2.73410    0.01313     3.74683
      C    7   -0.08529      0.99962     2.07517    0.01050     3.08529
      C    8   -0.29223      0.99966     2.28754    0.00503     3.29223
      C    9    0.19181      0.99957     1.78891    0.01971     2.80819
      N   10   -0.30943      0.99966     2.79922    0.01055     3.80943
      C   11    0.07208      0.99951     1.91527    0.01314     2.92792
      C   12   -0.18041      0.99944     2.17067    0.01030     3.18041
      S   13    0.16933      4.99945     2.81092    0.02030     7.83067
      C   14    0.40168      0.99957     1.57564    0.02312     2.59832
      O   15   -0.30998      0.99988     3.30458    0.00553     4.30998
      O   16   -0.28210      0.99986     3.27411    0.00812     4.28210
      C   17   -0.10465      0.99961     2.09638    0.00866     3.10465
      H   18    0.09386      0.00000     0.40535    0.00079     0.40614
      H   19    0.09696      0.00000     0.40238    0.00066     0.40304
      H   20    0.09552      0.00000     0.40365    0.00082     0.40448
      H   21    0.09891      0.00000     0.39998    0.00111     0.40109
      H   22    0.10345      0.00000     0.39539    0.00117     0.39655
      H   23    0.09165      0.00000     0.40596    0.00240     0.40835
      H   24    0.09549      0.00000     0.40368    0.00083     0.40451
      H   25    0.10022      0.00000     0.39889    0.00089     0.39978
      H   26    0.10032      0.00000     0.39884    0.00085     0.39968
      H   27    0.09405      0.00000     0.40495    0.00100     0.40595
      H   28    0.11250      0.00000     0.38567    0.00183     0.38750
      H   29    0.09920      0.00000     0.39934    0.00146     0.40080
      H   30    0.09916      0.00000     0.39916    0.00168     0.40084
      H   31    0.10377      0.00000     0.39514    0.00109     0.39623
      H   32    0.10076      0.00000     0.39771    0.00153     0.39924
      H   33    0.09759      0.00000     0.40138    0.00103     0.40241
      H   34    0.09575      0.00000     0.40328    0.00097     0.40425
      H   35    0.08751      0.00000     0.41126    0.00122     0.41249
      H   36    0.08751      0.00000     0.41126    0.00123     0.41249
      H   37    0.08370      0.00000     0.41547    0.00084     0.41630
 =======================================================================
   * Total *   -0.00000     20.99354    47.79370    0.21276    69.00000

 Normal termination of Gaussian 16 at Fri Dec 11 14:06:17 2020.
