 Gaussian 16, Revision A.03,

 -----------------------------------------------------------
 # opt freq B3LYP/6-31G(d) empiricaldispersion=gd3bj scf=xqc
 -----------------------------------------------------------

 -----------------------------
 CID_12317027_JID_458_neutraal
 -----------------------------
 Symbolic Z-matrix:
 Charge =  0 Multiplicity = 1

 SCF Done:  E(RB3LYP) =  -404.318935169     A.U. after   14 cycles
 SCF Done:  E(RB3LYP) =  -404.321614717     A.U. after   12 cycles
 SCF Done:  E(RB3LYP) =  -404.321751842     A.U. after   10 cycles
 SCF Done:  E(RB3LYP) =  -404.321765336     A.U. after   10 cycles
 SCF Done:  E(RB3LYP) =  -404.321773603     A.U. after    8 cycles
 SCF Done:  E(RB3LYP) =  -404.321785606     A.U. after   10 cycles
 SCF Done:  E(RB3LYP) =  -404.321793638     A.U. after   10 cycles
 SCF Done:  E(RB3LYP) =  -404.321797847     A.U. after   10 cycles
 SCF Done:  E(RB3LYP) =  -404.321798464     A.U. after    8 cycles
 SCF Done:  E(RB3LYP) =  -404.321798498     A.U. after    7 cycles
 Optimization completed.
    -- Stationary point found.

 1\1\GINC-NODE318\FOpt\RB3LYP\6-31G(d)\C9H11N1\VSC10255\08-Dec-2020\0\\
 # opt freq B3LYP/6-31G(d) empiricaldispersion=gd3bj scf=xqc\\CID_12317
 027_JID_458_neutraal\\0,1\C,2.1894414097,0.0118045787,-0.0747666754\N,
 0.7442425207,-0.0986114952,-0.0288976382\C,0.0525606556,-1.2822447446,
 0.015014154\C,-1.3006764209,-0.9992433444,0.0496386767\C,-1.4331991799
 ,0.4070074066,0.0257546455\C,-0.1545318649,0.9628634999,-0.0232749644\
 C,0.2880909389,2.3335182116,-0.0637071568\C,-0.5089621687,3.4278794415
 ,-0.0624929724\C,-0.004572054,4.7822965662,-0.1042788462\C,-0.77004379

 Normal termination of Gaussian 16 at Tue Dec  8 10:35:13 2020.

 --------------------------------------------------------------------
 #N Geom=AllCheck Guess=TCheck SCRF=Check GenChk RB3LYP/6-31G(d) Freq
 --------------------------------------------------------------------

 Structure from the checkpoint file:  "JID_458.chk"
 -----------------------------
 CID_12317027_JID_458_neutraal
 -----------------------------
 Charge =  0 Multiplicity = 1

 SCF Done:  E(RB3LYP) =  -404.321798498     A.U. after    1 cycles

  Exact polarizability: 218.797   0.802 102.185   0.007   0.012  40.583
 Approx polarizability: 353.195   8.234 159.058   0.021   0.025  60.579

                      1                      2                      3
                      A                      A                      A
 Frequencies --     49.1237               101.8905               115.2310
 Red. masses --      2.2004                 3.5625                 2.2067
 Frc consts  --      0.0031                 0.0218                 0.0173
 IR Inten    --      0.1654                 0.0184                 0.3943

                      4                      5                      6
                      A                      A                      A
 Frequencies --    120.6045               182.0061               201.8423
 Red. masses --      1.2564                 3.1112                 2.3505
 Frc consts  --      0.0108                 0.0607                 0.0564
 IR Inten    --      0.3406                 0.1243                 2.8286

                      7                      8                      9
                      A                      A                      A
 Frequencies --    263.8074               321.5651               356.1734
 Red. masses --      3.1473                 3.9195                 2.7656
 Frc consts  --      0.1291                 0.2388                 0.2067
 IR Inten    --      6.4300                 1.4871                 0.4219

                     10                     11                     12
                      A                      A                      A
 Frequencies --    435.1231               536.3088               611.0651
 Red. masses --      3.2196                 2.9874                 3.4749
 Frc consts  --      0.3591                 0.5063                 0.7645
 IR Inten    --      0.2574                 1.0625                 1.9872

                     13                     14                     15
                      A                      A                      A
 Frequencies --    630.8776               670.1856               687.9624
 Red. masses --      1.7844                 4.4822                 2.0572
 Frc consts  --      0.4184                 1.1861                 0.5737
 IR Inten    --      1.7643                16.3547                 0.1989

                     16                     17                     18
                      A                      A                      A
 Frequencies --    707.0905               780.4926               818.8180
 Red. masses --      1.2745                 1.4235                 4.8554
 Frc consts  --      0.3754                 0.5109                 1.9180
 IR Inten    --     49.9594                11.8885                 6.3584

                     19                     20                     21
                      A                      A                      A
 Frequencies --    856.6047               874.0040               900.8581
 Red. masses --      1.2797                 1.9385                 1.4334
 Frc consts  --      0.5532                 0.8724                 0.6854
 IR Inten    --      0.0744                 5.6726                34.4862

                     22                     23                     24
                      A                      A                      A
 Frequencies --    922.7317               970.4028               971.7352
 Red. masses --      4.0787                 1.5176                 1.1323
 Frc consts  --      2.0461                 0.8420                 0.6300
 IR Inten    --      2.9251                 1.3098                 9.9823

                     25                     26                     27
                      A                      A                      A
 Frequencies --   1039.5119              1047.0942              1091.8391
 Red. masses --      1.4545                 1.0969                 1.5298
 Frc consts  --      0.9260                 0.7086                 1.0745
 IR Inten    --     10.9898                29.6424                38.7501

                     28                     29                     30
                      A                      A                      A
 Frequencies --   1121.9315              1158.6594              1172.7139
 Red. masses --      1.3413                 1.2989                 1.9854
 Frc consts  --      0.9948                 1.0274                 1.6087
 IR Inten    --     19.2187                 0.0627                 2.5293

                     31                     32                     33
                      A                      A                      A
 Frequencies --   1225.9546              1284.9878              1307.5026
 Red. masses --      2.5431                 1.5531                 1.3669
 Frc consts  --      2.2520                 1.5110                 1.3768
 IR Inten    --     30.0303                 7.6170                 1.9603

                     34                     35                     36
                      A                      A                      A
 Frequencies --   1331.9837              1354.1898              1366.5892
 Red. masses --      1.4387                 1.6094                 3.6107
 Frc consts  --      1.5039                 1.7389                 3.9730
 IR Inten    --      0.6843                 9.1511                39.3472

                     37                     38                     39
                      A                      A                      A
 Frequencies --   1415.4367              1458.2677              1475.1792
 Red. masses --      3.3622                 2.3455                 1.4107
 Frc consts  --      3.9687                 2.9387                 1.8088
 IR Inten    --      3.0970                27.7526                31.8964

                     40                     41                     42
                      A                      A                      A
 Frequencies --   1490.7762              1514.1087              1527.2226
 Red. masses --      1.8325                 1.0417                 2.0966
 Frc consts  --      2.3995                 1.4071                 2.8812
 IR Inten    --     24.4783                 6.8783                96.9386

                     43                     44                     45
                      A                      A                      A
 Frequencies --   1549.4325              1588.8385              1680.7338
 Red. masses --      1.2574                 3.9406                 4.4624
 Frc consts  --      1.7785                 5.8609                 7.4271
 IR Inten    --      1.1827                 5.8966                 7.7323

                     46                     47                     48
                      A                      A                      A
 Frequencies --   1708.1489              3056.2049              3114.3940
 Red. masses --      4.4448                 1.0349                 1.1058
 Frc consts  --      7.6410                 5.6955                 6.3196
 IR Inten    --     68.2361                43.0945                21.7008

                     49                     50                     51
                      A                      A                      A
 Frequencies --   3140.6004              3156.4129              3159.6422
 Red. masses --      1.0853                 1.0944                 1.0957
 Frc consts  --      6.3073                 6.4240                 6.4451
 IR Inten    --     14.3238                 7.1713                 5.3988

                     52                     53                     54
                      A                      A                      A
 Frequencies --   3164.9427              3167.1364              3248.3936
 Red. masses --      1.0667                 1.0827                 1.1156
 Frc consts  --      6.2953                 6.3986                 6.9356
 IR Inten    --      9.2998                37.5079                17.4328

                     55                     56                     57
                      A                      A                      A
 Frequencies --   3252.6646              3263.8001              3278.5525
 Red. masses --      1.0890                 1.0946                 1.1046
 Frc consts  --      6.7884                 6.8697                 6.9958
 IR Inten    --      5.0357                 4.5581                 5.2067

 - Thermochemistry -
 -------------------
 Temperature   298.150 Kelvin.  Pressure   1.00000 Atm.
 Atom     1 has atomic number  6 and mass  12.00000

 Molecular mass:   133.08915 amu.
 Principal axes and moments of inertia in atomic units:
                           1         2         3
     Eigenvalues --   558.688082734.584343281.85301
           X            0.99994   0.01082  -0.00000
           Y           -0.01082   0.99994   0.00001
           Z            0.00000  -0.00001   1.00000
 This molecule is an asymmetric top.
 Rotational symmetry number  1.
 Warning -- assumption of classical behavior for rotation
           may cause significant error
 Rotational temperatures (Kelvin)      0.15503     0.03167     0.02639
 Rotational constants (GHZ):           3.23032     0.65997     0.54992
 Zero-point vibrational energy     466545.7 (Joules/Mol)
                                  111.50710 (Kcal/Mol)
 Warning -- explicit consideration of  12 degrees of freedom as
           vibrations may cause significant error
 Vibrational temperatures:     70.68   146.60   165.79   173.52   261.87
          (Kelvin)            290.41   379.56   462.66   512.45   626.05
                              771.63   879.19   907.69   964.25   989.82
                             1017.35  1122.95  1178.10  1232.46  1257.50
                             1296.13  1327.61  1396.19  1398.11  1495.63
                             1506.54  1570.91  1614.21  1667.05  1687.27
                             1763.88  1848.81  1881.20  1916.43  1948.38
                             1966.22  2036.50  2098.12  2122.45  2144.89
                             2178.46  2197.33  2229.29  2285.98  2418.20
                             2457.65  4397.20  4480.92  4518.62  4541.37
                             4546.02  4553.65  4556.80  4673.71  4679.86
                             4695.88  4717.11

 Zero-point correction=                           0.177698 (Hartree/Particle)
 Thermal correction to Energy=                    0.187714
 Thermal correction to Enthalpy=                  0.188658
 Thermal correction to Gibbs Free Energy=         0.141778
 Sum of electronic and zero-point Energies=           -404.144101
 Sum of electronic and thermal Energies=              -404.134085
 Sum of electronic and thermal Enthalpies=            -404.133141
 Sum of electronic and thermal Free Energies=         -404.180020

                     E (Thermal)             CV                S
                      KCal/Mol        Cal/Mol-Kelvin    Cal/Mol-Kelvin
 Total                  117.792             36.889             98.667
 Electronic               0.000              0.000              0.000
 Translational            0.889              2.981             40.570
 Rotational               0.889              2.981             29.995
 Vibrational            116.015             30.928             28.101
 Vibration     1          0.595              1.978              4.852
 Vibration     2          0.604              1.948              3.418
 Vibration     3          0.608              1.937              3.179
 Vibration     4          0.609              1.932              3.091
 Vibration     5          0.630              1.864              2.308
 Vibration     6          0.639              1.837              2.116
 Vibration     7          0.670              1.739              1.636
 Vibration     8          0.707              1.632              1.302
 Vibration     9          0.732              1.563              1.139
 Vibration    10          0.796              1.394              0.842
 Vibration    11          0.891              1.170              0.573
 Vibration    12          0.970              1.008              0.431

                           ! Non-Optimized Parameters !

 1\1\GINC-NODE318\Freq\RB3LYP\6-31G(d)\C9H11N1\VSC10255\08-Dec-2020\0\\
 #N Geom=AllCheck Guess=TCheck SCRF=Check GenChk RB3LYP/6-31G(d) Freq\\
 CID_12317027_JID_458_neutraal\\0,1\C,2.1894414097,0.0118045787,-0.0747
 666754\N,0.7442425207,-0.0986114952,-0.0288976382\C,0.0525606556,-1.28
 22447446,0.015014154\C,-1.3006764209,-0.9992433444,0.0496386767\C,-1.4
 331991799,0.4070074066,0.0257546455\C,-0.1545318649,0.9628634999,-0.02
 32749644\C,0.2880909389,2.3335182116,-0.0637071568\C,-0.5089621687,3.4
 278794415,-0.0624929724\C,-0.004572054,4.7822965662,-0.1042788462\C,-0

 Normal termination of Gaussian 16 at Tue Dec  8 10:38:31 2020.

 ----------------------------------------------------------------------
 # B3LYP/6-311++G(d,p) empiricaldispersion=gd3bj scf=xqc pop=npa geom=c
 heck
 ----------------------------------------------------------------------

 -------------------------------------
 CID_12317027_JID_458_Energie_neutraal
 -------------------------------------
 Structure from the checkpoint file:  "JID_458.chk"
 Charge =  0 Multiplicity = 1

 SCF Done:  E(RB3LYP) =  -404.432440279     A.U. after   14 cycles
 Normal termination of Gaussian 16 at Tue Dec  8 10:39:37 2020.

 ----------------------------------------------------------------------
 # B3LYP/6-311++G(d,p) empiricaldispersion=gd3bj scf=xqc pop=npa geom=c
 heck
 ----------------------------------------------------------------------

 -----------------------------------
 CID_12317027_JID_458_Energie_kation
 -----------------------------------
 Structure from the checkpoint file:  "JID_458.chk"
 Charge =  1 Multiplicity = 2

 SCF Done:  E(UB3LYP) =  -404.177140817     A.U. after   21 cycles
 Normal termination of Gaussian 16 at Tue Dec  8 10:43:31 2020.
 Gaussian 16:  ES64L-G16RevA.03 25-Dec-2016

 ----------------------------------
 CID_12317027_JID_458_Energie_anion
 ----------------------------------
 Structure from the checkpoint file:  "JID_458.chk"
 Charge = -1 Multiplicity = 2

                         Standard orientation:
 ---------------------------------------------------------------------
 Center     Atomic      Atomic             Coordinates (Angstroms)
 Number     Number       Type             X           Y           Z
 ---------------------------------------------------------------------
      1          6           0        1.795257    2.032201   -0.000416
      2          7           0        1.744107    0.582967    0.000222
      3          6           0        2.843529   -0.237162   -0.000137
      4          6           0        2.411582   -1.550920   -0.000134
      5          6           0        0.999131   -1.525326    0.000171
      6          6           0        0.589020   -0.191842    0.000326
      7          6           0       -0.724019    0.401600    0.000492
      8          6           0       -1.900479   -0.268372   -0.000125
      9          6           0       -3.190499    0.384658    0.000201
     10          6           0       -4.373639   -0.252769   -0.000365
     11          1           0        2.841374    2.343808    0.000847
     12          1           0        1.310585    2.444418   -0.891849
     13          1           0        1.308321    2.445164    0.889414
     14          1           0        3.839750    0.181468   -0.000222
     15          1           0        3.046796   -2.425836   -0.000243
     16          1           0        0.336746   -2.379960    0.000388
     17          1           0       -0.766933    1.489926    0.001174
     18          1           0       -1.900256   -1.357697   -0.000931
     19          1           0       -3.176985    1.475627    0.000979
     20          1           0       -5.314307    0.288572   -0.000070
     21          1           0       -4.433138   -1.338667   -0.001122
 ---------------------------------------------------------------------

 SCF Done:  E(UB3LYP) =  -404.425308078     A.U. after   27 cycles

 The electronic state is 2-A.
 Alpha  occ. eigenvalues --  -14.20848 -10.08824 -10.04219 -10.04017 -10.01597
 Alpha  occ. eigenvalues --  -10.00433  -9.99679  -9.99261  -9.98789  -9.98539
 Alpha  occ. eigenvalues --   -0.83936  -0.66390  -0.64161  -0.59905  -0.55761
 Alpha  occ. eigenvalues --   -0.54266  -0.45623  -0.43307  -0.40361  -0.38533
 Alpha  occ. eigenvalues --   -0.36262  -0.33513  -0.31583  -0.29704  -0.28194
 Alpha  occ. eigenvalues --   -0.28021  -0.24807  -0.24129  -0.23858  -0.22303
 Alpha  occ. eigenvalues --   -0.20906  -0.18308  -0.16800  -0.10989  -0.10115
 Alpha  occ. eigenvalues --   -0.03986   0.06386
 Alpha virt. eigenvalues --    0.08078   0.09570   0.10317   0.11113   0.11847
 Alpha virt. eigenvalues --    0.12092   0.13085   0.13817   0.14741   0.15862
 Alpha virt. eigenvalues --    0.16230   0.16516   0.17064   0.17897   0.18229

  Beta  occ. eigenvalues --  -14.20654 -10.08822 -10.04096 -10.04032 -10.01666
  Beta  occ. eigenvalues --  -10.00408  -9.99503  -9.98984  -9.98524  -9.98169
  Beta  occ. eigenvalues --   -0.83652  -0.66230  -0.63560  -0.59452  -0.55651
  Beta  occ. eigenvalues --   -0.53799  -0.44873  -0.43093  -0.40177  -0.38197
  Beta  occ. eigenvalues --   -0.35993  -0.33184  -0.31467  -0.29490  -0.28010
  Beta  occ. eigenvalues --   -0.27920  -0.24678  -0.23751  -0.23621  -0.22083
  Beta  occ. eigenvalues --   -0.20706  -0.18098  -0.15152  -0.09622  -0.09272
  Beta  occ. eigenvalues --   -0.02223
  Beta virt. eigenvalues --    0.08007   0.09519   0.10261   0.11067   0.11284
  Beta virt. eigenvalues --    0.11764   0.12946   0.12997   0.13747   0.14645
  Beta virt. eigenvalues --    0.16008   0.16406   0.16770   0.16961   0.18113

 Mulliken charges and spin densities:
               1          2
     1  C   -0.240172  -0.077910
     2  N    0.207307   0.030221
     3  C   -0.001715   0.161192
     4  C   -0.598563  -0.050318
     5  C    0.242742   0.159064
     6  C    0.134091  -0.028676
     7  C   -0.127864   0.223832
     8  C   -0.861170   0.201598
     9  C    0.163146  -0.042000
    10  C   -0.822688   0.384164
    11  H    0.119079  -0.000696
    12  H    0.091067   0.063704
    13  H    0.091120   0.063446
    14  H    0.107875  -0.008343
    15  H    0.101168   0.003734
    16  H    0.116817  -0.009162
    17  H    0.058733  -0.017597
    18  H   -0.015856  -0.018956
    19  H    0.079623  -0.001781
    20  H    0.079999  -0.017085
    21  H    0.075262  -0.018432
 Sum of Mulliken charges =  -1.00000   1.00000

 Dipole moment (field-independent basis, Debye):
    X=              5.3474    Y=              2.1820    Z=              0.0000  Tot=              5.7755
 Quadrupole moment (field-independent basis, Debye-Ang):
   XX=           -109.7393   YY=            -66.5933   ZZ=            -76.4121
   XY=              3.0396   XZ=             -0.0058   YZ=              0.0037

 Summary of Natural Population Analysis:

                                       Natural Population
                Natural  -----------------------------------------------
    Atom  No    Charge         Core      Valence    Rydberg      Total
 -----------------------------------------------------------------------
      C    1   -0.17088      0.99966     2.16400    0.00723     3.17088
      N    2   -0.18146      0.99961     2.67359    0.00826     3.68146
      C    3   -0.01420      0.99959     1.99984    0.01477     3.01420
      C    4   -0.16805      0.99958     2.15936    0.00911     3.16805
      C    5   -0.11485      0.99953     2.10608    0.00924     3.11485
      C    6    0.06812      0.99955     1.92116    0.01117     2.93188
      C    7   -0.07260      0.99952     2.06467    0.00840     3.07260
      C    8   -0.05452      0.99953     2.04586    0.00913     3.05452
      C    9   -0.10729      0.99957     2.09796    0.00976     3.10729
      C   10   -0.14118      0.99960     2.13141    0.01017     3.14118
      H   11    0.09199      0.00000     0.40734    0.00067     0.40801
      H   12    0.09496      0.00000     0.40351    0.00153     0.40504
      H   13    0.09499      0.00000     0.40348    0.00153     0.40501
      H   14    0.08681      0.00000     0.41235    0.00084     0.41319
      H   15    0.09416      0.00000     0.40496    0.00088     0.40584
      H   16    0.09600      0.00000     0.40310    0.00090     0.40400
      H   17    0.08278      0.00000     0.41578    0.00144     0.41722
      H   18    0.08118      0.00000     0.41688    0.00194     0.41882
      H   19    0.07951      0.00000     0.41866    0.00183     0.42049
      H   20    0.07729      0.00000     0.42165    0.00106     0.42271
      H   21    0.07723      0.00000     0.42164    0.00113     0.42277
 =======================================================================
   * Total *   -0.00000      9.99574    25.89327    0.11099    36.00000

 Normal termination of Gaussian 16 at Tue Dec  8 10:48:01 2020.
