 Gaussian 16, Revision A.03,

 -----------------------------------------------------------
 # opt freq B3LYP/6-31G(d) empiricaldispersion=gd3bj scf=xqc
 -----------------------------------------------------------

 -------------------------------
 CID_104590604_JID_7203_neutraal
 -------------------------------
 Symbolic Z-matrix:
 Charge =  0 Multiplicity = 1

 SCF Done:  E(RB3LYP) =  -1413.58065504     A.U. after   14 cycles
 SCF Done:  E(RB3LYP) =  -1412.92920514     A.U. after   21 cycles
 SCF Done:  E(RB3LYP) =  -1413.58287108     A.U. after   14 cycles
 SCF Done:  E(RB3LYP) =  -1413.58487971     A.U. after   13 cycles
 SCF Done:  E(RB3LYP) =  -1413.58454240     A.U. after   12 cycles
 SCF Done:  E(RB3LYP) =  -1413.58547010     A.U. after   12 cycles
 SCF Done:  E(RB3LYP) =  -1413.58520595     A.U. after   12 cycles
 SCF Done:  E(RB3LYP) =  -1413.58558831     A.U. after   12 cycles
 SCF Done:  E(RB3LYP) =  -1413.58579258     A.U. after   11 cycles
 SCF Done:  E(RB3LYP) =  -1413.58582904     A.U. after   10 cycles
 SCF Done:  E(RB3LYP) =  -1413.58583535     A.U. after    9 cycles
 SCF Done:  E(RB3LYP) =  -1413.58583523     A.U. after    8 cycles
 SCF Done:  E(RB3LYP) =  -1413.58583578     A.U. after    7 cycles
 SCF Done:  E(RB3LYP) =  -1413.58583592     A.U. after    7 cycles
 Optimization completed.
    -- Stationary point found.
 Normal termination of Gaussian 16 at Fri Dec 11 12:00:31 2020.

 --------------------------------------------------------------------
 #N Geom=AllCheck Guess=TCheck SCRF=Check GenChk RB3LYP/6-31G(d) Freq
 --------------------------------------------------------------------

 Structure from the checkpoint file:  "JID_7203.chk"
 -------------------------------
 CID_104590604_JID_7203_neutraal
 -------------------------------
 Charge =  0 Multiplicity = 1

 SCF Done:  E(RB3LYP) =  -1413.58583592     A.U. after    1 cycles

  Exact polarizability: 200.454 -36.582 148.168 -12.237 -33.331 151.467
 Approx polarizability: 342.017 -70.524 236.379 -35.141 -78.605 279.708

                      1                      2                      3
                      A                      A                      A
 Frequencies --     34.5113                41.4367                49.3871
 Red. masses --      4.9096                 6.0912                 7.7472
 Frc consts  --      0.0034                 0.0062                 0.0111
 IR Inten    --      0.1835                 0.2758                 0.7938

                      4                      5                      6
                      A                      A                      A
 Frequencies --     59.7172                91.7230               145.7077
 Red. masses --      5.1679                 4.4637                 6.8738
 Frc consts  --      0.0109                 0.0221                 0.0860
 IR Inten    --      0.3437                 0.2969                 1.1054

                      7                      8                      9
                      A                      A                      A
 Frequencies --    161.2634               197.7952               223.7597
 Red. masses --      3.7187                 5.1976                 5.2978
 Frc consts  --      0.0570                 0.1198                 0.1563
 IR Inten    --      1.2866                 0.3592                 1.3327

                     10                     11                     12
                      A                      A                      A
 Frequencies --    236.0761               268.4044               283.4168
 Red. masses --      4.0162                 4.4597                 2.9866
 Frc consts  --      0.1319                 0.1893                 0.1413
 IR Inten    --      1.5879                 1.3326                 0.8653

                     13                     14                     15
                      A                      A                      A
 Frequencies --    327.5786               354.3982               389.3789
 Red. masses --      4.0602                 1.1283                 5.3148
 Frc consts  --      0.2567                 0.0835                 0.4748
 IR Inten    --      0.8462               113.9122                 2.8362

                     16                     17                     18
                      A                      A                      A
 Frequencies --    407.0936               413.0022               426.0085
 Red. masses --      4.1285                 3.2003                 3.1673
 Frc consts  --      0.4031                 0.3216                 0.3387
 IR Inten    --      0.3859                 0.7056                 0.2806

                     19                     20                     21
                      A                      A                      A
 Frequencies --    441.8644               459.1841               488.5869
 Red. masses --      3.1000                 4.0021                 3.4910
 Frc consts  --      0.3566                 0.4972                 0.4910
 IR Inten    --      8.3799                10.5348                 5.7997

                     22                     23                     24
                      A                      A                      A
 Frequencies --    539.1986               582.8587               621.9645
 Red. masses --      7.4013                 5.1168                 4.5761
 Frc consts  --      1.2678                 1.0242                 1.0430
 IR Inten    --      0.9500                 0.4849                 0.3717

                     25                     26                     27
                      A                      A                      A
 Frequencies --    633.2050               684.2182               693.4527
 Red. masses --      6.2084                 2.5486                 4.3197
 Frc consts  --      1.4666                 0.7030                 1.2239
 IR Inten    --      0.0158                 7.3940                 0.0957

                     28                     29                     30
                      A                      A                      A
 Frequencies --    700.2880               707.2317               714.1704
 Red. masses --      2.4519                 5.5819                 6.2194
 Frc consts  --      0.7084                 1.6450                 1.8690
 IR Inten    --     18.6218                 4.7865                 6.2517

                     31                     32                     33
                      A                      A                      A
 Frequencies --    750.0993               780.9828               810.8090
 Red. masses --      1.5879                 1.3462                 1.6511
 Frc consts  --      0.5264                 0.4838                 0.6395
 IR Inten    --     46.3993                23.6352                29.9685

                     34                     35                     36
                      A                      A                      A
 Frequencies --    839.7919               861.1993               874.3073
 Red. masses --      1.2681                 1.8914                 1.4018
 Frc consts  --      0.5269                 0.8265                 0.6313
 IR Inten    --      2.8772                18.0932                 1.9888

                     37                     38                     39
                      A                      A                      A
 Frequencies --    905.1778               906.8542               934.6724
 Red. masses --      1.3720                 3.7708                 2.0208
 Frc consts  --      0.6623                 1.8271                 1.0402
 IR Inten    --      3.0161                28.7373                 3.8605

                     40                     41                     42
                      A                      A                      A
 Frequencies --    959.7003               961.4704               984.9950
 Red. masses --      1.3520                 1.2651                 1.2473
 Frc consts  --      0.7337                 0.6890                 0.7130
 IR Inten    --      0.5073                 0.6902                 0.3361

                     43                     44                     45
                      A                      A                      A
 Frequencies --   1018.4182              1020.1759              1030.8795
 Red. masses --      6.1158                 6.0984                 3.3201
 Frc consts  --      3.7373                 3.7395                 2.0788
 IR Inten    --      3.3501                 2.7187                 0.3124

                     46                     47                     48
                      A                      A                      A
 Frequencies --   1057.1211              1104.0990              1113.2126
 Red. masses --      2.9638                 1.8720                 2.0536
 Frc consts  --      1.9514                 1.3445                 1.4994
 IR Inten    --      4.2412                 5.0436                 7.7510

                     49                     50                     51
                      A                      A                      A
 Frequencies --   1117.3473              1128.2113              1174.0332
 Red. masses --      1.9906                 1.6997                 1.0637
 Frc consts  --      1.4642                 1.2747                 0.8638
 IR Inten    --      5.1995                19.7510                 7.3284

                     52                     53                     54
                      A                      A                      A
 Frequencies --   1194.6681              1198.1169              1219.3856
 Red. masses --      1.0908                 1.1542                 1.2384
 Frc consts  --      0.9173                 0.9762                 1.0849
 IR Inten    --      0.0340                33.4528                72.1005

                     55                     56                     57
                      A                      A                      A
 Frequencies --   1220.3687              1248.4482              1302.1185
 Red. masses --      1.2184                 1.1299                 2.7717
 Frc consts  --      1.0691                 1.0376                 2.7689
 IR Inten    --     52.2974                 0.9920                63.5807

                     58                     59                     60
                      A                      A                      A
 Frequencies --   1330.1129              1338.6179              1344.8176
 Red. masses --      1.5627                 1.3735                 1.9256
 Frc consts  --      1.6289                 1.4500                 2.0518
 IR Inten    --     16.4369                 9.7033                 6.8753

                     61                     62                     63
                      A                      A                      A
 Frequencies --   1361.7837              1368.3919              1370.9173
 Red. masses --      1.3773                 1.8507                 3.8789
 Frc consts  --      1.5048                 2.0417                 4.2952
 IR Inten    --      6.2531                 2.3523                 2.1008

                     64                     65                     66
                      A                      A                      A
 Frequencies --   1480.7546              1484.3006              1491.6697
 Red. masses --      1.1173                 1.1594                 2.0173
 Frc consts  --      1.4435                 1.5050                 2.6447
 IR Inten    --      4.1099                11.0099                 4.7634

                     67                     68                     69
                      A                      A                      A
 Frequencies --   1493.7870              1533.4861              1542.5957
 Red. masses --      2.5519                 2.0291                 2.3075
 Frc consts  --      3.3550                 2.8114                 3.2352
 IR Inten    --     94.4343                19.4730                27.0577

                     70                     71                     72
                      A                      A                      A
 Frequencies --   1639.5947              1650.0605              1653.7184
 Red. masses --      5.4757                 5.4448                 5.7806
 Frc consts  --      8.6729                 8.7343                 9.3141
 IR Inten    --      2.4146                17.0324                84.9060

                     73                     74                     75
                      A                      A                      A
 Frequencies --   1656.9561              3060.7060              3072.1502
 Red. masses --      5.7138                 1.0650                 1.0652
 Frc consts  --      9.2426                 5.8783                 5.9232
 IR Inten    --     58.1701                 7.3094                36.4792

                     76                     77                     78
                      A                      A                      A
 Frequencies --   3122.0868              3136.9079              3184.1009
 Red. masses --      1.0995                 1.0985                 1.0850
 Frc consts  --      6.3145                 6.3687                 6.4811
 IR Inten    --      0.8990                 9.8616                 1.2197

                     79                     80                     81
                      A                      A                      A
 Frequencies --   3193.6651              3194.6614              3199.1737
 Red. masses --      1.0870                 1.0883                 1.0889
 Frc consts  --      6.5325                 6.5441                 6.5661
 IR Inten    --     10.4288                 7.9508                 8.7005

                     82                     83                     84
                      A                      A                      A
 Frequencies --   3205.1332              3214.9596              3215.3330
 Red. masses --      1.0921                 1.0946                 1.0922
 Frc consts  --      6.6101                 6.6658                 6.6525
 IR Inten    --     21.9687                12.6114                10.9091

                     85                     86                     87
                      A                      A                      A
 Frequencies --   3220.0578              3223.2956              3750.9183
 Red. masses --      1.0941                 1.0952                 1.0659
 Frc consts  --      6.6838                 6.7040                 8.8353
 IR Inten    --      6.7774                 7.8482                32.2917

 - Thermochemistry -
 -------------------
 Temperature   298.150 Kelvin.  Pressure   1.00000 Atm.
 Atom     1 has atomic number  6 and mass  12.00000

 Molecular mass:   262.04861 amu.
 Principal axes and moments of inertia in atomic units:
                           1         2         3
     Eigenvalues --  3929.686354415.834665570.14356
           X            0.99269  -0.12067  -0.00309
           Y            0.12038   0.99157  -0.04800
           Z            0.00886   0.04728   0.99884
 This molecule is an asymmetric top.
 Rotational symmetry number  1.
 Warning -- assumption of classical behavior for rotation
           may cause significant error
 Rotational temperatures (Kelvin)      0.02204     0.01961     0.01555
 Rotational constants (GHZ):           0.45926     0.40870     0.32400
 Zero-point vibrational energy     644956.2 (Joules/Mol)
                                  154.14824 (Kcal/Mol)
 Warning -- explicit consideration of  23 degrees of freedom as
           vibrations may cause significant error
 Vibrational temperatures:     49.65    59.62    71.06    85.92   131.97
          (Kelvin)            209.64   232.02   284.58   321.94   339.66
                              386.17   407.77   471.31   509.90   560.23
                              585.72   594.22   612.93   635.74   660.66
                              702.97   775.79   838.60   894.87   911.04
                              984.44   997.72  1007.56  1017.55  1027.53
                             1079.23  1123.66  1166.57  1208.27  1239.07
                             1257.93  1302.35  1304.76  1344.79  1380.79
                             1383.34  1417.19  1465.28  1467.81  1483.21
                             1520.96  1588.55  1601.66  1607.61  1623.24
                             1689.17  1718.86  1723.82  1754.42  1755.84
                             1796.24  1873.46  1913.74  1925.97  1934.89
                             1959.30  1968.81  1972.44  2130.48  2135.58
                             2146.18  2149.23  2206.34  2219.45  2359.01
                             2374.07  2379.33  2383.99  4403.67  4420.14
                             4491.99  4513.31  4581.21  4594.97  4596.41
                             4602.90  4611.47  4625.61  4626.15  4632.94
                             4637.60  5396.73

 Zero-point correction=                           0.245651 (Hartree/Particle)
 Thermal correction to Energy=                    0.261453
 Thermal correction to Enthalpy=                  0.262397
 Thermal correction to Gibbs Free Energy=         0.201465
 Sum of electronic and zero-point Energies=          -1413.340185
 Sum of electronic and thermal Energies=             -1413.324383
 Sum of electronic and thermal Enthalpies=           -1413.323438
 Sum of electronic and thermal Free Energies=        -1413.384371

                     E (Thermal)             CV                S
                      KCal/Mol        Cal/Mol-Kelvin    Cal/Mol-Kelvin
 Total                  164.064             61.373            128.244
 Electronic               0.000              0.000              0.000
 Translational            0.889              2.981             42.590
 Rotational               0.889              2.981             32.936
 Vibrational            162.287             55.411             52.718
 Vibration     1          0.594              1.983              5.552
 Vibration     2          0.594              1.981              5.189
 Vibration     3          0.595              1.978              4.842
 Vibration     4          0.597              1.974              4.467
 Vibration     5          0.602              1.955              3.623
 Vibration     6          0.617              1.907              2.728
 Vibration     7          0.622              1.890              2.535
 Vibration     8          0.637              1.843              2.154
 Vibration     9          0.649              1.805              1.928
 Vibration    10          0.655              1.786              1.832
 Vibration    11          0.673              1.731              1.606
 Vibration    12          0.682              1.704              1.513
 Vibration    13          0.711              1.620              1.272
 Vibration    14          0.730              1.566              1.147
 Vibration    15          0.757              1.493              1.003
 Vibration    16          0.772              1.455              0.937
 Vibration    17          0.777              1.442              0.916
 Vibration    18          0.788              1.414              0.872
 Vibration    19          0.802              1.379              0.821
 Vibration    20          0.817              1.341              0.768
 Vibration    21          0.844              1.275              0.687
 Vibration    22          0.894              1.163              0.567
 Vibration    23          0.940              1.068              0.480

 Optimization completed.
    -- Stationary point found.
 Normal termination of Gaussian 16 at Fri Dec 11 12:14:07 2020.

 ----------------------------------------------------------------------
 # B3LYP/6-311++G(d,p) empiricaldispersion=gd3bj scf=xqc pop=npa geom=c
 heck
 ----------------------------------------------------------------------

 ---------------------------------------
 CID_104590604_JID_7203_Energie_neutraal
 ---------------------------------------
 Structure from the checkpoint file:  "JID_7203.chk"
 Charge =  0 Multiplicity = 1

 SCF Done:  E(RB3LYP) =  -1413.81033519     A.U. after   17 cycles
 Normal termination of Gaussian 16 at Fri Dec 11 12:21:23 2020.

 ----------------------------------------------------------------------
 # B3LYP/6-311++G(d,p) empiricaldispersion=gd3bj scf=xqc pop=npa geom=c
 heck
 ----------------------------------------------------------------------

 -------------------------------------
 CID_104590604_JID_7203_Energie_kation
 -------------------------------------
 Structure from the checkpoint file:  "JID_7203.chk"
 Charge =  1 Multiplicity = 2

 SCF Done:  E(UB3LYP) =  -1413.53976567     A.U. after   24 cycles
 Normal termination of Gaussian 16 at Fri Dec 11 12:36:18 2020.
 Gaussian 16:  ES64L-G16RevA.03 25-Dec-2016

 ----------------------------------------------------------------------
 # B3LYP/6-311++G(d,p) empiricaldispersion=gd3bj scf=xqc pop=npa geom=c
 heck
 ----------------------------------------------------------------------

 ------------------------------------
 CID_104590604_JID_7203_Energie_anion
 ------------------------------------
 Structure from the checkpoint file:  "JID_7203.chk"
 Charge = -1 Multiplicity = 2

                         Standard orientation:
 ---------------------------------------------------------------------
 Center     Atomic      Atomic             Coordinates (Angstroms)
 Number     Number       Type             X           Y           Z
 ---------------------------------------------------------------------
      1          6           0       -0.766205    3.188467   -0.455389
      2          6           0       -1.236121    2.477104    0.648049
      3          6           0       -0.433656    1.516641    1.259876
      4          6           0        0.859706    1.274714    0.783516
      5          6           0        1.338790    1.999612   -0.312393
      6          6           0        0.520803    2.940880   -0.934746
      7         16           0        1.850054    0.100865    1.700858
      8          6           0        2.916069   -0.712836    0.451824
      9          6           0        2.297835   -1.867602   -0.337035
     10         16           0        1.194514   -1.417795   -1.727544
     11          6           0       -0.406103   -1.098512   -1.003226
     12          6           0       -1.251135   -0.244457   -1.719521
     13          6           0       -2.546164   -0.013798   -1.257747
     14          6           0       -3.005024   -0.595731   -0.080393
     15          6           0       -2.146577   -1.431282    0.639021
     16          6           0       -0.860204   -1.704988    0.170671
     17          8           0       -2.619307   -1.962423    1.808540
     18          1           0       -1.398298    3.925778   -0.941668
     19          1           0       -2.241824    2.646655    1.020911
     20          1           0       -0.817978    0.935633    2.091830
     21          1           0        2.341471    1.832672   -0.689539
     22          1           0        0.898186    3.489222   -1.793551
     23          1           0        3.339801    0.033880   -0.223702
     24          1           0        3.745040   -1.108049    1.050897
     25          1           0        3.106367   -2.415796   -0.835231
     26          1           0        1.801881   -2.577586    0.329529
     27          1           0       -0.889130    0.251124   -2.613702
     28          1           0       -3.198721    0.653260   -1.813551
     29          1           0       -4.002062   -0.406049    0.302047
     30          1           0       -0.217168   -2.365566    0.743260
     31          1           0       -1.918281   -2.494184    2.216097
 ---------------------------------------------------------------------

 SCF Done:  E(UB3LYP) =  -1413.79991389     A.U. after   33 cycles
 SCF Done:  E(UB3LYP) =  -1413.79991389     a.u. after    1 cycles

 The electronic state is 2-A.
 Alpha  occ. eigenvalues --  -88.75223 -88.75145 -19.05795 -10.14264 -10.11411
 Alpha  occ. eigenvalues --  -10.11360 -10.11076 -10.10938 -10.08718 -10.08533
 Alpha  occ. eigenvalues --  -10.08508 -10.08500 -10.08366 -10.08345 -10.07792
 Alpha  occ. eigenvalues --  -10.07575 -10.07476  -7.83838  -7.83760  -5.80241
 Alpha  occ. eigenvalues --   -5.80163  -5.79835  -5.79763  -5.79229  -5.79144
 Alpha  occ. eigenvalues --   -0.96814  -0.77548  -0.76705  -0.72755  -0.69252
 Alpha  occ. eigenvalues --   -0.66660  -0.65916  -0.64958  -0.62508  -0.57910
 Alpha  occ. eigenvalues --   -0.53848  -0.52277  -0.51477  -0.49243  -0.47645
 Alpha  occ. eigenvalues --   -0.44703  -0.42687  -0.41091  -0.37935  -0.37466
 Alpha  occ. eigenvalues --   -0.36852  -0.36116  -0.35407  -0.34222  -0.33609
 Alpha  occ. eigenvalues --   -0.32634  -0.31974  -0.30615  -0.30231  -0.29161
 Alpha  occ. eigenvalues --   -0.28814  -0.27726  -0.26395  -0.25795  -0.25508
 Alpha  occ. eigenvalues --   -0.24152  -0.22778  -0.21946  -0.19719  -0.18091
 Alpha  occ. eigenvalues --   -0.16326  -0.14008  -0.12629  -0.11385   0.04173
 Alpha virt. eigenvalues --    0.05777   0.06298   0.06993   0.07101   0.07376
 Alpha virt. eigenvalues --    0.07679   0.08290   0.08484   0.09053   0.09836
 Alpha virt. eigenvalues --    0.10107   0.10383   0.10704   0.11355   0.11992

  Beta  occ. eigenvalues --  -88.75219 -88.75140 -19.05754 -10.14266 -10.11404
  Beta  occ. eigenvalues --  -10.11356 -10.11036 -10.10889 -10.08715 -10.08522
  Beta  occ. eigenvalues --  -10.08497 -10.08480 -10.08366 -10.08334 -10.07758
  Beta  occ. eigenvalues --  -10.07578 -10.07463  -7.83834  -7.83755  -5.80237
  Beta  occ. eigenvalues --   -5.80158  -5.79828  -5.79753  -5.79224  -5.79136
  Beta  occ. eigenvalues --   -0.96733  -0.77523  -0.76680  -0.72708  -0.69213
  Beta  occ. eigenvalues --   -0.66621  -0.65893  -0.64922  -0.62459  -0.57866
  Beta  occ. eigenvalues --   -0.53776  -0.52229  -0.51437  -0.49212  -0.47575
  Beta  occ. eigenvalues --   -0.44643  -0.42657  -0.41054  -0.37899  -0.37434
  Beta  occ. eigenvalues --   -0.36828  -0.36087  -0.35332  -0.34182  -0.33587
  Beta  occ. eigenvalues --   -0.32612  -0.31938  -0.30545  -0.30185  -0.29124
  Beta  occ. eigenvalues --   -0.28776  -0.27697  -0.26369  -0.25760  -0.25480
  Beta  occ. eigenvalues --   -0.24117  -0.22737  -0.21893  -0.19673  -0.18052
  Beta  occ. eigenvalues --   -0.16282  -0.13964  -0.12590  -0.11344
  Beta virt. eigenvalues --    0.05999   0.06905   0.07070   0.07240   0.07389
  Beta virt. eigenvalues --    0.07653   0.08204   0.08470   0.08835   0.09039
  Beta virt. eigenvalues --    0.10244   0.10335   0.10737   0.11306   0.11379

 Mulliken charges and spin densities:
               1          2
     1  C    0.327604  -0.716897
     2  C   -0.593770   0.192255
     3  C   -0.473654   0.440912
     4  C    0.391577   0.211280
     5  C   -0.164352  -0.140145
     6  C   -0.065895  -0.113941
     7  S    0.726066  -0.765778
     8  C    0.041247  -0.507948
     9  C    0.426208  -0.878379
    10  S    0.731704  -0.775650
    11  C    0.201781   0.561084
    12  C   -0.751662   0.372545
    13  C   -0.754287   0.335706
    14  C    1.401299  -1.343611
    15  C    0.413060  -1.166618
    16  C   -0.846448   0.856657
    17  O   -0.207260   0.036399
    18  H   -0.018690   0.162953
    19  H   -0.029621   0.207491
    20  H    0.140392   0.081388
    21  H   -0.013328   0.163565
    22  H   -0.128173   0.297167
    23  H   -0.077711   0.210152
    24  H   -0.529919   0.773764
    25  H   -0.513472   0.752027
    26  H   -0.329169   0.484352
    27  H    0.122432   0.044829
    28  H   -0.031787   0.198223
    29  H    0.155039   0.015475
    30  H   -0.273348   0.454449
    31  H   -0.275864   0.556294
 Sum of Mulliken charges =  -1.00000   1.00000

 Dipole moment (field-independent basis, Debye):
    X=             -3.7506    Y=              5.3767    Z=             -2.6837  Tot=              7.0836
 Quadrupole moment (field-independent basis, Debye-Ang):
   XX=           -173.9709   YY=           -171.3942   ZZ=           -152.5981
   XY=              7.3819   XZ=              0.9352   YZ=              6.8989

 Summary of Natural Population Analysis:

                                       Natural Population
                Natural  -----------------------------------------------
    Atom  No    Charge         Core      Valence    Rydberg      Total
 -----------------------------------------------------------------------
      C    1   -0.11898      0.99959     2.10546    0.01393     3.11898
      C    2   -0.09534      0.99956     2.08477    0.01101     3.09534
      C    3   -0.10727      0.99949     2.09702    0.01075     3.10727
      C    4   -0.08571      0.99940     2.07258    0.01372     3.08571
      C    5   -0.11479      0.99951     2.10157    0.01371     3.11479
      C    6   -0.07553      0.99956     2.07086    0.00511     3.07553
      S    7    0.12438      4.99953     2.85771    0.01837     7.87562
      C    8   -0.25598      0.99955     2.24326    0.01317     3.25598
      C    9   -0.25784      0.99955     2.24491    0.01338     3.25784
      S   10    0.12574      4.99952     2.85663    0.01812     7.87426
      C   11   -0.07550      0.99941     2.06279    0.01330     3.07550
      C   12   -0.12549      0.99949     2.11607    0.00993     3.12549
      C   13   -0.08564      0.99956     2.07685    0.00923     3.08564
      C   14   -0.13436      0.99951     2.12542    0.00943     3.13436
      C   15    0.16293      0.99938     1.82396    0.01373     2.83707
      C   16   -0.14757      0.99943     2.13497    0.01317     3.14757
      O   17   -0.34081      0.99988     3.33434    0.00660     4.34081
      H   18    0.09930      0.00000     0.39975    0.00094     0.40070
      H   19    0.10159      0.00000     0.39750    0.00091     0.39841
      H   20    0.10766      0.00000     0.39086    0.00148     0.39234
      H   21    0.10319      0.00000     0.39545    0.00136     0.39681
      H   22    0.09666      0.00000     0.40222    0.00112     0.40334
      H   23    0.10453      0.00000     0.39345    0.00202     0.39547
      H   24    0.11481      0.00000     0.38246    0.00273     0.38519
      H   25    0.11425      0.00000     0.38339    0.00236     0.38575
      H   26    0.10986      0.00000     0.38681    0.00333     0.39014
      H   27    0.10430      0.00000     0.39432    0.00138     0.39570
      H   28    0.09954      0.00000     0.39959    0.00086     0.40046
      H   29    0.10456      0.00000     0.39453    0.00091     0.39544
      H   30    0.10790      0.00000     0.38991    0.00219     0.39210
      H   31    0.23965      0.00000     0.25362    0.00673     0.26035
 =======================================================================
   * Total *    0.00004     24.99194    43.77304    0.23499    68.99996

 Normal termination of Gaussian 16 at Fri Dec 11 12:59:12 2020.
