 Gaussian 16, Revision A.03,

 -----------------------------------------------------------
 # opt freq B3LYP/6-31G(d) empiricaldispersion=gd3bj scf=xqc
 -----------------------------------------------------------

 -------------------------------
 CID_108057844_JID_1407_neutraal
 -------------------------------
 Symbolic Z-matrix:
 Charge =  0 Multiplicity = 1

 SCF Done:  E(RB3LYP) =  -538.789654034     A.U. after   14 cycles
 SCF Done:  E(RB3LYP) =  -538.819469164     A.U. after   14 cycles
 SCF Done:  E(RB3LYP) =  -538.833217941     A.U. after   13 cycles
 SCF Done:  E(RB3LYP) =  -538.851059867     A.U. after   13 cycles
 SCF Done:  E(RB3LYP) =  -538.858222584     A.U. after   13 cycles
 SCF Done:  E(RB3LYP) =  -538.857665754     A.U. after   14 cycles
 SCF Done:  E(RB3LYP) =  -538.861534226     A.U. after   13 cycles
 SCF Done:  E(RB3LYP) =  -538.861613072     A.U. after   12 cycles
 SCF Done:  E(RB3LYP) =  -538.862511148     A.U. after   12 cycles
 SCF Done:  E(RB3LYP) =  -538.863807314     A.U. after   12 cycles
 SCF Done:  E(RB3LYP) =  -538.868392262     A.U. after    8 cycles
 SCF Done:  E(RB3LYP) =  -538.868392836     A.U. after    8 cycles
 SCF Done:  E(RB3LYP) =  -538.868392953     A.U. after    7 cycles
 SCF Done:  E(RB3LYP) =  -538.868392989     A.U. after    7 cycles
 SCF Done:  E(RB3LYP) =  -538.868393024     A.U. after    7 cycles
 SCF Done:  E(RB3LYP) =  -538.868393038     A.U. after    7 cycles
 Optimization completed.
    -- Stationary point found.

 1\1\GINC-NODE312\FOpt\RB3LYP\6-31G(d)\C8H14O3\VSC10255\08-Dec-2020\0\\
 # opt freq B3LYP/6-31G(d) empiricaldispersion=gd3bj scf=xqc\\CID_10805
 7844_JID_1407_neutraal\\0,1\C,2.0392305156,0.2772255006,-0.3347589212\
 O,1.5258979564,1.531387474,-0.7534116062\C,1.4042161207,2.4760850134,0
 .2885482602\C,0.4137652985,2.0654550015,1.3922357615\O,-0.7417584113,1
 .4198872327,0.9013707073\C,-1.5478866244,2.1843446734,0.0235512485\C,-
 2.5150017541,1.2291634784,-0.6680633301\C,-1.7663188358,0.1509037503,-
 1.5060890645\C,-1.3468365773,-1.0041674705,-0.7140991351\C,-1.05342421

 Normal termination of Gaussian 16 at Tue Dec  8 19:58:23 2020.

 --------------------------------------------------------------------
 #N Geom=AllCheck Guess=TCheck SCRF=Check GenChk RB3LYP/6-31G(d) Freq
 --------------------------------------------------------------------

 Structure from the checkpoint file:  "JID_1407.chk"
 -------------------------------
 CID_108057844_JID_1407_neutraal
 -------------------------------
 Charge =  0 Multiplicity = 1

 SCF Done:  E(RB3LYP) =  -538.868393038     A.U. after    1 cycles

  Exact polarizability:  88.120  -0.139  96.617   4.116  10.987  83.659
 Approx polarizability: 110.613   1.064 132.043   3.484  26.130 134.446

                      1                      2                      3
                      A                      A                      A
 Frequencies --     31.6894                46.9317                72.8853
 Red. masses --      4.0973                 3.4077                 3.8282
 Frc consts  --      0.0024                 0.0044                 0.0120
 IR Inten    --      0.8382                 1.0382                 0.8049

                      4                      5                      6
                      A                      A                      A
 Frequencies --     85.2444               144.8458               152.7456
 Red. masses --      3.5750                 3.1101                 4.4118
 Frc consts  --      0.0153                 0.0384                 0.0606
 IR Inten    --      0.0843                11.8380                 1.1634

                      7                      8                      9
                      A                      A                      A
 Frequencies --    171.1422               197.2225               232.4036
 Red. masses --      2.2117                 1.8723                 3.6248
 Frc consts  --      0.0382                 0.0429                 0.1154
 IR Inten    --      1.1281                 0.7937                 4.9027

                     10                     11                     12
                      A                      A                      A
 Frequencies --    264.1879               337.3483               339.4730
 Red. masses --      2.0371                 2.7600                 3.2388
 Frc consts  --      0.0838                 0.1851                 0.2199
 IR Inten    --      0.9779                 3.7588                 6.8733

                     13                     14                     15
                      A                      A                      A
 Frequencies --    374.5987               389.6367               409.8641
 Red. masses --      1.6947                 3.2608                 1.6172
 Frc consts  --      0.1401                 0.2917                 0.1601
 IR Inten    --     19.6951                11.1902               112.3348

                     16                     17                     18
                      A                      A                      A
 Frequencies --    422.3179               540.3597               579.4094
 Red. masses --      2.0929                 3.7076                 1.2158
 Frc consts  --      0.2199                 0.6378                 0.2405
 IR Inten    --     11.3124                20.4243                70.6797

                     19                     20                     21
                      A                      A                      A
 Frequencies --    622.2865               625.8322               728.5528
 Red. masses --      1.3099                 2.4606                 3.4669
 Frc consts  --      0.2989                 0.5678                 1.0842
 IR Inten    --     53.7611                 7.0974                 8.8097

                     22                     23                     24
                      A                      A                      A
 Frequencies --    811.0837               844.0376               871.5914
 Red. masses --      3.7185                 2.1861                 2.5655
 Frc consts  --      1.4413                 0.9176                 1.1483
 IR Inten    --      3.3460                12.5170                10.9281

                     25                     26                     27
                      A                      A                      A
 Frequencies --    925.9207               951.1820               992.5481
 Red. masses --      2.4594                 2.1190                 2.6132
 Frc consts  --      1.2423                 1.1296                 1.5168
 IR Inten    --      2.0389                 9.9126                19.5519

                     28                     29                     30
                      A                      A                      A
 Frequencies --    996.7053              1033.0624              1096.6201
 Red. masses --      2.8166                 3.0072                 2.2485
 Frc consts  --      1.6486                 1.8909                 1.5932
 IR Inten    --     13.5552                28.3488                37.4908

                     31                     32                     33
                      A                      A                      A
 Frequencies --   1128.3946              1135.2468              1166.8037
 Red. masses --      2.2125                 2.2191                 2.9795
 Frc consts  --      1.6598                 1.6850                 2.3899
 IR Inten    --     42.2916                83.7699                63.2466

                     34                     35                     36
                      A                      A                      A
 Frequencies --   1194.6046              1209.4266              1239.8371
 Red. masses --      1.3466                 3.3720                 1.6851
 Frc consts  --      1.1323                 2.9060                 1.5262
 IR Inten    --      4.6542                96.9645                36.0146

                     37                     38                     39
                      A                      A                      A
 Frequencies --   1256.0229              1265.0237              1299.7327
 Red. masses --      1.1236                 1.1622                 1.1766
 Frc consts  --      1.0444                 1.0958                 1.1711
 IR Inten    --      2.4121                18.0541                 7.5769

                     40                     41                     42
                      A                      A                      A
 Frequencies --   1317.9412              1328.3764              1371.9971
 Red. masses --      1.2974                 1.2756                 1.6143
 Frc consts  --      1.3277                 1.3262                 1.7903
 IR Inten    --      6.7263                24.6210                 7.3189

                     43                     44                     45
                      A                      A                      A
 Frequencies --   1384.6746              1413.5522              1432.1827
 Red. masses --      1.3486                 1.2702                 1.2765
 Frc consts  --      1.5234                 1.4954                 1.5426
 IR Inten    --      9.8284                27.1548                13.6257

                     46                     47                     48
                      A                      A                      A
 Frequencies --   1444.9136              1461.4135              1491.8569
 Red. masses --      1.2984                 1.2781                 1.0935
 Frc consts  --      1.5972                 1.6082                 1.4340
 IR Inten    --      6.1675                61.3354                10.9113

                     49                     50                     51
                      A                      A                      A
 Frequencies --   1501.2003              1516.2819              1520.1090
 Red. masses --      1.1333                 1.0702                 1.0636
 Frc consts  --      1.5048                 1.4496                 1.4481
 IR Inten    --      1.8305                 0.4277                 5.2999

                     52                     53                     54
                      A                      A                      A
 Frequencies --   1533.1358              1536.9878              1543.0284
 Red. masses --      1.1021                 1.0882                 1.0588
 Frc consts  --      1.5263                 1.5146                 1.4852
 IR Inten    --      0.9367                13.5761                 8.0411

                     55                     56                     57
                      A                      A                      A
 Frequencies --   2236.6055              2977.2609              2988.4587
 Red. masses --      5.9984                 1.0710                 1.0721
 Frc consts  --     17.6794                 5.5935                 5.6413
 IR Inten    --      2.9965                26.1381                89.0533

                     58                     59                     60
                      A                      A                      A
 Frequencies --   3000.3627              3007.3032              3049.3542
 Red. masses --      1.0500                 1.0631                 1.0602
 Frc consts  --      5.5690                 5.6649                 5.8084
 IR Inten    --     91.3752                62.8951                 6.9408

                     61                     62                     63
                      A                      A                      A
 Frequencies --   3062.5096              3080.4298              3092.1762
 Red. masses --      1.0998                 1.0856                 1.0890
 Frc consts  --      6.0772                 6.0691                 6.1347
 IR Inten    --     34.5691                46.7516                29.2210

                     64                     65                     66
                      A                      A                      A
 Frequencies --   3092.9775              3097.9926              3114.2381
 Red. masses --      1.1029                 1.0873                 1.0928
 Frc consts  --      6.2166                 6.1486                 6.2447
 IR Inten    --     11.6934                 3.9804                59.0925

                     67                     68                     69
                      A                      A                      A
 Frequencies --   3143.9975              3496.2039              3703.5569
 Red. masses --      1.1024                 1.1592                 1.0651
 Frc consts  --      6.4205                 8.3480                 8.6074
 IR Inten    --     26.0052                53.0878                23.3399

 - Thermochemistry -
 -------------------
 Temperature   298.150 Kelvin.  Pressure   1.00000 Atm.
 Atom     1 has atomic number  6 and mass  12.00000

 Molecular mass:   158.09429 amu.
 Principal axes and moments of inertia in atomic units:
                           1         2         3
     Eigenvalues --  1237.691622173.743932774.04424
           X            0.99984   0.00121   0.01764
           Y           -0.00156   0.99980   0.01976
           Z           -0.01762  -0.01979   0.99965
 This molecule is an asymmetric top.
 Rotational symmetry number  1.
 Warning -- assumption of classical behavior for rotation
           may cause significant error
 Rotational temperatures (Kelvin)      0.06998     0.03985     0.03122
 Rotational constants (GHZ):           1.45815     0.83025     0.65058
 Zero-point vibrational energy     563009.9 (Joules/Mol)
                                  134.56259 (Kcal/Mol)
 Warning -- explicit consideration of  18 degrees of freedom as
           vibrations may cause significant error
 Vibrational temperatures:     45.59    67.52   104.87   122.65   208.40
          (Kelvin)            219.77   246.24   283.76   334.38   380.11
                              485.37   488.43   538.96   560.60   589.70
                              607.62   777.46   833.64   895.33   900.43
                             1048.23  1166.97  1214.38  1254.03  1332.19
                             1368.54  1428.06  1434.04  1486.35  1577.79
                             1623.51  1633.37  1678.77  1718.77  1740.10
                             1783.85  1807.14  1820.09  1870.03  1896.22
                             1911.24  1974.00  1992.24  2033.79  2060.59
                             2078.91  2102.65  2146.45  2159.89  2181.59
                             2187.10  2205.84  2211.38  2220.07  3217.98
                             4283.61  4299.73  4316.85  4326.84  4387.34
                             4406.27  4432.05  4448.95  4450.10  4457.32
                             4480.69  4523.51  5030.26  5328.59

 Zero-point correction=                           0.214439 (Hartree/Particle)
 Thermal correction to Energy=                    0.227405
 Thermal correction to Enthalpy=                  0.228349
 Thermal correction to Gibbs Free Energy=         0.174381
 Sum of electronic and zero-point Energies=           -538.653954
 Sum of electronic and thermal Energies=              -538.640988
 Sum of electronic and thermal Enthalpies=            -538.640044
 Sum of electronic and thermal Free Energies=         -538.694012

                     E (Thermal)             CV                S
                      KCal/Mol        Cal/Mol-Kelvin    Cal/Mol-Kelvin
 Total                  142.699             46.191            113.586
 Electronic               0.000              0.000              0.000
 Translational            0.889              2.981             41.083
 Rotational               0.889              2.981             30.391
 Vibrational            140.921             40.230             42.112
 Vibration     1          0.594              1.983              5.721
 Vibration     2          0.595              1.979              4.943
 Vibration     3          0.599              1.967              4.074
 Vibration     4          0.601              1.959              3.766
 Vibration     5          0.616              1.908              2.739
 Vibration     6          0.619              1.900              2.638
 Vibration     7          0.626              1.878              2.423
 Vibration     8          0.637              1.844              2.159
 Vibration     9          0.653              1.791              1.860
 Vibration    10          0.671              1.739              1.634
 Vibration    11          0.718              1.601              1.225
 Vibration    12          0.719              1.597              1.215
 Vibration    13          0.746              1.524              1.061
 Vibration    14          0.758              1.492              1.002
 Vibration    15          0.774              1.449              0.927
 Vibration    16          0.785              1.422              0.884
 Vibration    17          0.895              1.161              0.565
 Vibration    18          0.936              1.076              0.486

 Optimization completed.
    -- Stationary point found.

 1\1\GINC-NODE312\Freq\RB3LYP\6-31G(d)\C8H14O3\VSC10255\08-Dec-2020\0\\
 #N Geom=AllCheck Guess=TCheck SCRF=Check GenChk RB3LYP/6-31G(d) Freq\\
 CID_108057844_JID_1407_neutraal\\0,1\C,2.0392305156,0.2772255006,-0.33
 47589212\O,1.5258979564,1.531387474,-0.7534116062\C,1.4042161207,2.476
 0850134,0.2885482602\C,0.4137652985,2.0654550015,1.3922357615\O,-0.741
 7584113,1.4198872327,0.9013707073\C,-1.5478866244,2.1843446734,0.02355
 12485\C,-2.5150017541,1.2291634784,-0.6680633301\C,-1.7663188358,0.150
 9037503,-1.5060890645\C,-1.3468365773,-1.0041674705,-0.7140991351\C,-1

 Normal termination of Gaussian 16 at Tue Dec  8 20:03:26 2020.

 ----------------------------------------------------------------------
 # B3LYP/6-311++G(d,p) empiricaldispersion=gd3bj scf=xqc pop=npa geom=c
 heck
 ----------------------------------------------------------------------

 ---------------------------------------
 CID_108057844_JID_1407_Energie_neutraal
 ---------------------------------------
 Structure from the checkpoint file:  "JID_1407.chk"
 Charge =  0 Multiplicity = 1

 SCF Done:  E(RB3LYP) =  -539.041668291     A.U. after   13 cycles
 Normal termination of Gaussian 16 at Tue Dec  8 20:05:06 2020.

 ----------------------------------------------------------------------
 # B3LYP/6-311++G(d,p) empiricaldispersion=gd3bj scf=xqc pop=npa geom=c
 heck
 ----------------------------------------------------------------------

 -------------------------------------
 CID_108057844_JID_1407_Energie_kation
 -------------------------------------
 Structure from the checkpoint file:  "JID_1407.chk"
 Charge =  1 Multiplicity = 2

 SCF Done:  E(UB3LYP) =  -538.716438432     A.U. after   24 cycles
 Normal termination of Gaussian 16 at Tue Dec  8 20:08:54 2020.
 Gaussian 16:  ES64L-G16RevA.03 25-Dec-2016

 ------------------------------------
 CID_108057844_JID_1407_Energie_anion
 ------------------------------------
 Structure from the checkpoint file:  "JID_1407.chk"
 Charge = -1 Multiplicity = 2

                         Standard orientation:
 ---------------------------------------------------------------------
 Center     Atomic      Atomic             Coordinates (Angstroms)
 Number     Number       Type             X           Y           Z
 ---------------------------------------------------------------------
      1          6           0       -2.169319   -1.600536    0.101096
      2          8           0       -2.083601   -0.415641    0.875936
      3          6           0       -2.444241    0.754448    0.173247
      4          6           0       -1.528226    1.073763   -1.021195
      5          8           0       -0.164683    0.804267   -0.774089
      6          6           0        0.426614    1.539766    0.281475
      7          6           0        1.752227    0.869779    0.627716
      8          6           0        1.552905   -0.598628    1.106784
      9          6           0        1.469399   -1.556625    0.005571
     10          6           0        1.457025   -2.346314   -0.908500
     11          8           0        2.680443    0.954274   -0.435599
     12          1           0       -2.006809   -2.434392    0.788255
     13          1           0       -1.398641   -1.635196   -0.676858
     14          1           0       -3.165921   -1.704477   -0.357628
     15          1           0       -3.482762    0.694093   -0.197715
     16          1           0       -2.411431    1.557094    0.916142
     17          1           0       -1.785462    0.447976   -1.880910
     18          1           0       -1.687934    2.125265   -1.316228
     19          1           0        0.608147    2.580993   -0.028384
     20          1           0       -0.212421    1.546398    1.174012
     21          1           0        2.196177    1.434145    1.455417
     22          1           0        2.405979   -0.874422    1.738591
     23          1           0        0.648366   -0.661854    1.723930
     24          1           0        1.428214   -3.049040   -1.709397
     25          1           0        2.308918    0.416302   -1.156380
 ---------------------------------------------------------------------

 SCF Done:  E(UB3LYP) =  -539.025201582     A.U. after   31 cycles

 The electronic state is 2-A.
 Alpha  occ. eigenvalues --  -19.02563 -19.02280 -19.02266 -10.13064 -10.11487
 Alpha  occ. eigenvalues --  -10.11265 -10.11211 -10.10136 -10.09518 -10.07895
 Alpha  occ. eigenvalues --  -10.06325  -0.95044  -0.93247  -0.92122  -0.70199
 Alpha  occ. eigenvalues --   -0.66241  -0.63836  -0.60376  -0.57221  -0.52039
 Alpha  occ. eigenvalues --   -0.48088  -0.43565  -0.41767  -0.40964  -0.39110
 Alpha  occ. eigenvalues --   -0.38149  -0.37217  -0.35802  -0.35259  -0.33594
 Alpha  occ. eigenvalues --   -0.31946  -0.30716  -0.30557  -0.28512  -0.26498
 Alpha  occ. eigenvalues --   -0.23778  -0.22712  -0.21496  -0.19153  -0.18365
 Alpha  occ. eigenvalues --   -0.17585  -0.15994  -0.15102   0.04677
 Alpha virt. eigenvalues --    0.06644   0.06931   0.08208   0.09008   0.09460
 Alpha virt. eigenvalues --    0.09794   0.10661   0.10857   0.11971   0.12428
 Alpha virt. eigenvalues --    0.12528   0.13088   0.13580   0.14683   0.15330

  Beta  occ. eigenvalues --  -19.02557 -19.02273 -19.02261 -10.13049 -10.11459
  Beta  occ. eigenvalues --  -10.11241 -10.11178 -10.10104 -10.09502 -10.07895
  Beta  occ. eigenvalues --  -10.06306  -0.95028  -0.93230  -0.92106  -0.70171
  Beta  occ. eigenvalues --   -0.66200  -0.63794  -0.60335  -0.57164  -0.51987
  Beta  occ. eigenvalues --   -0.48007  -0.43519  -0.41717  -0.40923  -0.39077
  Beta  occ. eigenvalues --   -0.38105  -0.37176  -0.35772  -0.35212  -0.33561
  Beta  occ. eigenvalues --   -0.31909  -0.30681  -0.30510  -0.28471  -0.26466
  Beta  occ. eigenvalues --   -0.23750  -0.22679  -0.21454  -0.19136  -0.18341
  Beta  occ. eigenvalues --   -0.17564  -0.15967  -0.15063
  Beta virt. eigenvalues --    0.07016   0.07656   0.08015   0.08860   0.09675
  Beta virt. eigenvalues --    0.10074   0.10401   0.10865   0.11333   0.12375
  Beta virt. eigenvalues --    0.12708   0.12905   0.13380   0.14040   0.14840

 Mulliken charges and spin densities:
               1          2
     1  C    0.558873  -0.878689
     2  O   -0.227802   0.074377
     3  C    0.783609  -1.111955
     4  C   -0.161207  -0.051726
     5  O   -0.124323   0.043629
     6  C    0.419941  -0.680485
     7  C    0.064454  -0.517713
     8  C   -0.472176   0.121134
     9  C    1.127622  -0.923275
    10  C    0.041511  -0.340767
    11  O   -0.198604   0.007621
    12  H   -0.062062   0.213540
    13  H    0.018968   0.144258
    14  H   -0.274271   0.400732
    15  H   -0.463111   0.600726
    16  H   -0.499160   0.693886
    17  H   -0.256173   0.449529
    18  H   -0.303927   0.424477
    19  H   -0.121833   0.311221
    20  H    0.101375   0.033843
    21  H   -0.664341   0.878984
    22  H   -0.140712   0.348349
    23  H    0.131686   0.038629
    24  H   -0.563926   0.756822
    25  H    0.285590  -0.037148
 Sum of Mulliken charges =  -1.00000   1.00000

 Dipole moment (field-independent basis, Debye):
    X=              2.1573    Y=             -1.0557    Z=             -0.1304  Tot=              2.4053
 Quadrupole moment (field-independent basis, Debye-Ang):
   XX=           -128.4474   YY=           -115.3692   ZZ=            -99.6807
   XY=              1.4001   XZ=             -4.4577   YZ=             -4.5782

 Summary of Natural Population Analysis:

                                       Natural Population
                Natural  -----------------------------------------------
    Atom  No    Charge         Core      Valence    Rydberg      Total
 -----------------------------------------------------------------------
      C    1   -0.10219      0.99960     2.09244    0.01014     3.10219
      O    2   -0.29953      0.99989     3.28859    0.01106     4.29953
      C    3   -0.02447      0.99959     2.01128    0.01360     3.02447
      C    4   -0.02143      0.99959     2.00891    0.01294     3.02143
      O    5   -0.30636      0.99988     3.29444    0.01203     4.30636
      C    6   -0.02064      0.99954     2.00770    0.01340     3.02064
      C    7    0.06310      0.99957     1.92094    0.01638     2.93690
      C    8   -0.24558      0.99954     2.23548    0.01056     3.24558
      C    9    0.00533      0.99937     1.98648    0.00883     2.99467
      C   10   -0.13082      0.99925     2.12722    0.00436     3.13082
      O   11   -0.37025      0.99990     3.36407    0.00629     4.37025
      H   12    0.08916      0.00000     0.40956    0.00128     0.41084
      H   13    0.08837      0.00000     0.40962    0.00201     0.41163
      H   14    0.07742      0.00000     0.42101    0.00156     0.42258
      H   15    0.08436      0.00000     0.41313    0.00251     0.41564
      H   16    0.09081      0.00000     0.40705    0.00214     0.40919
      H   17    0.09081      0.00000     0.40742    0.00178     0.40919
      H   18    0.08400      0.00000     0.41409    0.00191     0.41600
      H   19    0.08546      0.00000     0.41313    0.00141     0.41454
      H   20    0.08757      0.00000     0.41018    0.00225     0.41243
      H   21    0.09194      0.00000     0.40634    0.00172     0.40806
      H   22    0.11414      0.00000     0.38444    0.00143     0.38586
      H   23    0.12200      0.00000     0.37598    0.00201     0.37800
      H   24    0.11172      0.00000     0.38668    0.00160     0.38828
      H   25    0.23509      0.00000     0.26190    0.00302     0.26491
 =======================================================================
   * Total *    0.00000     10.99573    31.85806    0.14621    43.00000

 Normal termination of Gaussian 16 at Tue Dec  8 20:14:38 2020.
