 Gaussian 16, Revision A.03,

 -----------------------------------------------------------
 # opt freq B3LYP/6-31G(d) empiricaldispersion=gd3bj scf=xqc
 -----------------------------------------------------------

 ------------------------------
 CID_82514970_JID_6110_neutraal
 ------------------------------
 Symbolic Z-matrix:
 Charge =  0 Multiplicity = 1

 SCF Done:  E(RB3LYP) =  -1032.43799574     A.U. after   15 cycles
 SCF Done:  E(RB3LYP) =  -1032.44336421     A.U. after   12 cycles
 SCF Done:  E(RB3LYP) =  -1032.44458221     A.U. after   11 cycles
 SCF Done:  E(RB3LYP) =  -1032.44559766     A.U. after   12 cycles
 SCF Done:  E(RB3LYP) =  -1032.44637033     A.U. after   15 cycles
 SCF Done:  E(RB3LYP) =  -1032.44766130     A.U. after   12 cycles
 SCF Done:  E(RB3LYP) =  -1032.44815813     A.U. after   11 cycles
 SCF Done:  E(RB3LYP) =  -1032.44830369     A.U. after   11 cycles
 SCF Done:  E(RB3LYP) =  -1032.44834250     A.U. after    9 cycles
 SCF Done:  E(RB3LYP) =  -1032.44834891     A.U. after    9 cycles
 SCF Done:  E(RB3LYP) =  -1032.44835301     A.U. after    9 cycles
 SCF Done:  E(RB3LYP) =  -1032.44835347     A.U. after    8 cycles
 SCF Done:  E(RB3LYP) =  -1032.44835360     A.U. after    7 cycles
 SCF Done:  E(RB3LYP) =  -1032.44835367     A.U. after    7 cycles
 SCF Done:  E(RB3LYP) =  -1032.44835369     A.U. after    7 cycles
 Optimization completed.
    -- Stationary point found.
 Normal termination of Gaussian 16 at Thu Dec 10 21:16:08 2020.

 --------------------------------------------------------------------
 #N Geom=AllCheck Guess=TCheck SCRF=Check GenChk RB3LYP/6-31G(d) Freq
 --------------------------------------------------------------------

 Structure from the checkpoint file:  "JID_6110.chk"
 ------------------------------
 CID_82514970_JID_6110_neutraal
 ------------------------------
 Charge =  0 Multiplicity = 1

 SCF Done:  E(RB3LYP) =  -1032.44835369     A.U. after    1 cycles

  Exact polarizability: 208.314   0.550 160.564   5.920   5.177 119.515
 Approx polarizability: 266.666   0.385 262.868   8.582  19.678 184.905

                      1                      2                      3
                      A                      A                      A
 Frequencies --     28.3150                30.6131                55.5144
 Red. masses --      3.3655                 3.1167                 4.4075
 Frc consts  --      0.0016                 0.0017                 0.0080
 IR Inten    --      0.1332                 0.1288                 0.0547

                      4                      5                      6
                      A                      A                      A
 Frequencies --     95.7987               114.3251               148.3644
 Red. masses --      4.1206                 4.4502                 2.5224
 Frc consts  --      0.0223                 0.0343                 0.0327
 IR Inten    --      0.4796                 0.2154                 0.0802

                      7                      8                      9
                      A                      A                      A
 Frequencies --    186.3039               204.1166               221.6925
 Red. masses --      1.8146                 2.1514                 2.0448
 Frc consts  --      0.0371                 0.0528                 0.0592
 IR Inten    --      2.1202                 2.8765                 1.3350

                     10                     11                     12
                      A                      A                      A
 Frequencies --    240.9199               259.6964               267.4053
 Red. masses --      1.0940                 2.4934                 3.0330
 Frc consts  --      0.0374                 0.0991                 0.1278
 IR Inten    --      1.9831                 2.1385                 1.3329

                     13                     14                     15
                      A                      A                      A
 Frequencies --    289.2977               316.0453               316.9274
 Red. masses --      1.0941                 2.9714                 2.9945
 Frc consts  --      0.0539                 0.1749                 0.1772
 IR Inten    --      0.0725                 2.7112                 2.1261

                     16                     17                     18
                      A                      A                      A
 Frequencies --    329.0362               335.0409               352.0192
 Red. masses --      1.4710                 2.4880                 2.2976
 Frc consts  --      0.0938                 0.1646                 0.1678
 IR Inten    --     29.6883                10.1237                 4.9557

                     19                     20                     21
                      A                      A                      A
 Frequencies --    383.6063               405.4308               410.8615
 Red. masses --      2.1093                 1.8979                 3.2747
 Frc consts  --      0.1829                 0.1838                 0.3257
 IR Inten    --      4.4638                 1.5939                 4.1487

                     22                     23                     24
                      A                      A                      A
 Frequencies --    429.0972               491.3731               507.6318
 Red. masses --      3.4509                 2.3751                 3.6450
 Frc consts  --      0.3744                 0.3379                 0.5534
 IR Inten    --      8.8172                 0.1858                 4.4806

                     25                     26                     27
                      A                      A                      A
 Frequencies --    568.5285               583.6742               590.3202
 Red. masses --      4.3129                 3.9019                 4.2438
 Frc consts  --      0.8213                 0.7832                 0.8713
 IR Inten    --      1.9885                 5.1100                14.8986

                     28                     29                     30
                      A                      A                      A
 Frequencies --    672.1073               697.3682               721.1788
 Red. masses --      3.0654                 1.3965                 3.4440
 Frc consts  --      0.8159                 0.4001                 1.0553
 IR Inten    --     13.0207                17.2031                 5.5129

                     31                     32                     33
                      A                      A                      A
 Frequencies --    727.5927               781.4023               811.6554
 Red. masses --      5.9357                 3.4401                 4.5851
 Frc consts  --      1.8514                 1.2376                 1.7797
 IR Inten    --      2.0356                 1.4272                 9.1236

                     34                     35                     36
                      A                      A                      A
 Frequencies --    860.8389               881.8782               891.3772
 Red. masses --      3.1497                 1.6148                 1.9270
 Frc consts  --      1.3752                 0.7399                 0.9021
 IR Inten    --      3.5252                 8.8129                 4.3332

                     37                     38                     39
                      A                      A                      A
 Frequencies --    895.4244               911.8569               926.4766
 Red. masses --      2.9506                 1.9868                 2.0381
 Frc consts  --      1.3938                 0.9733                 1.0308
 IR Inten    --     14.2029                 5.0120               115.1060

                     40                     41                     42
                      A                      A                      A
 Frequencies --    958.7563               972.8598               992.3481
 Red. masses --      1.6093                 2.6524                 1.8371
 Frc consts  --      0.8716                 1.4791                 1.0659
 IR Inten    --      0.6675                49.6384                 4.0151

                     43                     44                     45
                      A                      A                      A
 Frequencies --   1005.5363              1024.9564              1034.4228
 Red. masses --      1.6868                 1.2654                 1.8264
 Frc consts  --      1.0048                 0.7832                 1.1514
 IR Inten    --     14.4545                 2.1814                18.1100

                     46                     47                     48
                      A                      A                      A
 Frequencies --   1049.8760              1065.8993              1087.0682
 Red. masses --      1.3687                 2.1231                 1.6953
 Frc consts  --      0.8888                 1.4212                 1.1804
 IR Inten    --     84.0549                10.2891                 4.7413

                     49                     50                     51
                      A                      A                      A
 Frequencies --   1095.5032              1129.7913              1143.6412
 Red. masses --      1.6685                 1.5850                 1.3366
 Frc consts  --      1.1798                 1.1920                 1.0300
 IR Inten    --      4.1790                40.4722                15.1299

                     52                     53                     54
                      A                      A                      A
 Frequencies --   1169.7026              1174.1184              1237.5101
 Red. masses --      2.2210                 1.7421                 1.4466
 Frc consts  --      1.7904                 1.4150                 1.3052
 IR Inten    --     38.2044                 9.6456                37.9913

                     55                     56                     57
                      A                      A                      A
 Frequencies --   1241.7306              1254.7682              1271.4466
 Red. masses --      2.5877                 1.9232                 1.8522
 Frc consts  --      2.3508                 1.7840                 1.7641
 IR Inten    --     24.1129                68.2326                64.5768

                     58                     59                     60
                      A                      A                      A
 Frequencies --   1287.2540              1309.7946              1339.1009
 Red. masses --      2.4136                 1.1788                 3.0877
 Frc consts  --      2.3563                 1.1916                 3.2622
 IR Inten    --     88.7534                11.9742                42.3328

                     61                     62                     63
                      A                      A                      A
 Frequencies --   1365.0049              1376.8829              1379.0979
 Red. masses --      1.6405                 1.9711                 1.2969
 Frc consts  --      1.8009                 2.2016                 1.4533
 IR Inten    --      2.0685                10.4887                 2.0015

                     64                     65                     66
                      A                      A                      A
 Frequencies --   1384.6609              1391.4796              1405.0648
 Red. masses --      1.7882                 1.6385                 1.4180
 Frc consts  --      2.0200                 1.8692                 1.6494
 IR Inten    --     44.6726                13.3609                 0.1645

                     67                     68                     69
                      A                      A                      A
 Frequencies --   1414.8702              1422.5158              1438.3895
 Red. masses --      1.4123                 1.3754                 1.5179
 Frc consts  --      1.6658                 1.6398                 1.8503
 IR Inten    --      8.9692                 4.5943                45.4009

                     70                     71                     72
                      A                      A                      A
 Frequencies --   1439.4264              1444.4931              1510.5536
 Red. masses --      1.3027                 1.3189                 1.0775
 Frc consts  --      1.5903                 1.6214                 1.4485
 IR Inten    --      2.1455                23.8122                 2.7422

                     73                     74                     75
                      A                      A                      A
 Frequencies --   1513.6117              1514.1744              1519.6474
 Red. masses --      1.0717                 1.0873                 1.0676
 Frc consts  --      1.4466                 1.4688                 1.4526
 IR Inten    --      7.7031                21.2173                16.0109

                     76                     77                     78
                      A                      A                      A
 Frequencies --   1519.6930              1524.1711              1527.5784
 Red. masses --      1.0621                 1.0662                 1.0547
 Frc consts  --      1.4452                 1.4594                 1.4501
 IR Inten    --      9.8053                 6.0160                 3.7898

                     79                     80                     81
                      A                      A                      A
 Frequencies --   1536.5254              1538.8326              1540.6109
 Red. masses --      1.0932                 1.0747                 1.0593
 Frc consts  --      1.5207                 1.4994                 1.4814
 IR Inten    --     16.1420                 8.5255                 2.3573

                     82                     83                     84
                      A                      A                      A
 Frequencies --   1578.3324              1603.4438              1705.1137
 Red. masses --      7.0173                 7.1054                 1.0900
 Frc consts  --     10.2995                10.7632                 1.8672
 IR Inten    --     18.1035               515.1211                20.5184

                     85                     86                     87
                      A                      A                      A
 Frequencies --   2974.9118              2982.8878              3026.5132
 Red. masses --      1.0730                 1.0739                 1.0691
 Frc consts  --      5.5951                 5.6300                 5.7696
 IR Inten    --     37.7462                67.4884                17.8802

                     88                     89                     90
                      A                      A                      A
 Frequencies --   3042.1028              3051.2737              3052.6757
 Red. masses --      1.0788                 1.0364                 1.0395
 Frc consts  --      5.8823                 5.6852                 5.7072
 IR Inten    --     71.0671                23.8061                19.8485

                     91                     92                     93
                      A                      A                      A
 Frequencies --   3058.0345              3059.0676              3080.1939
 Red. masses --      1.0350                 1.0622                 1.0954
 Frc consts  --      5.7027                 5.8564                 6.1234
 IR Inten    --     14.5987                17.5803                52.7381

                     94                     95                     96
                      A                      A                      A
 Frequencies --   3099.7481              3112.3503              3115.2452
 Red. masses --      1.1031                 1.0913                 1.1026
 Frc consts  --      6.2445                 6.2283                 6.3047
 IR Inten    --     43.3582                19.3518                31.8957

                     97                     98                     99
                      A                      A                      A
 Frequencies --   3117.3111              3129.6295              3130.5390
 Red. masses --      1.1004                 1.1024                 1.1007
 Frc consts  --      6.3000                 6.3617                 6.3559
 IR Inten    --     27.0114                18.7564                36.5821

                    100                    101                    102
                      A                      A                      A
 Frequencies --   3136.8262              3142.4248              3158.3868
 Red. masses --      1.1036                 1.1022                 1.0893
 Frc consts  --      6.3981                 6.4125                 6.4025
 IR Inten    --     13.4097                41.2963                 5.9017

                    103                    104                    105
                      A                      A                      A
 Frequencies --   3289.4799              3440.6955              3524.3170
 Red. masses --      1.0941                 1.0502                 1.0904
 Frc consts  --      6.9755                 7.3249                 7.9799
 IR Inten    --      1.5047                 2.3649                 0.8371

 - Thermochemistry -
 -------------------
 Temperature   298.150 Kelvin.  Pressure   1.00000 Atm.
 Atom     1 has atomic number  6 and mass  12.00000

 Molecular mass:   239.14562 amu.
 Principal axes and moments of inertia in atomic units:
                           1         2         3
     Eigenvalues --  1959.971616824.629088009.76378
           X            1.00000  -0.00033   0.00115
           Y            0.00036   0.99975  -0.02213
           Z           -0.00114   0.02213   0.99975
 This molecule is an asymmetric top.
 Rotational symmetry number  1.
 Warning -- assumption of classical behavior for rotation
           may cause significant error
 Rotational temperatures (Kelvin)      0.04419     0.01269     0.01081
 Rotational constants (GHZ):           0.92080     0.26445     0.22532
 Zero-point vibrational energy     855963.9 (Joules/Mol)
                                  204.58028 (Kcal/Mol)
 Warning -- explicit consideration of  27 degrees of freedom as
           vibrations may cause significant error
 Vibrational temperatures:     40.74    44.05    79.87   137.83   164.49
          (Kelvin)            213.46   268.05   293.68   318.97   346.63
                              373.65   384.74   416.23   454.72   455.99
                              473.41   482.05   506.48   551.92   583.32
                              591.14   617.38   706.98   730.37   817.99
                              839.78   849.34   967.01  1003.36  1037.62
                             1046.84  1124.26  1167.79  1238.56  1268.83
                             1282.49  1288.32  1311.96  1332.99  1379.44
                             1399.73  1427.77  1446.74  1474.68  1488.30
                             1510.54  1533.59  1564.05  1576.18  1625.52
                             1645.44  1682.94  1689.29  1780.50  1786.57
                             1805.33  1829.33  1852.07  1884.50  1926.67
                             1963.94  1981.03  1984.21  1992.22  2002.03
                             2021.57  2035.68  2046.68  2069.52  2071.01
                             2078.30  2173.35  2177.75  2178.56  2186.43
                             2186.50  2192.94  2197.84  2210.72  2214.04
                             2216.60  2270.87  2307.00  2453.28  4280.23
                             4291.71  4354.48  4376.91  4390.10  4392.12
                             4399.83  4401.32  4431.71  4459.85  4477.98
                             4482.14  4485.12  4502.84  4504.15  4513.19
                             4521.25  4544.21  4732.83  4950.39  5070.71

 Zero-point correction=                           0.326019 (Hartree/Particle)
 Thermal correction to Energy=                    0.342727
 Thermal correction to Enthalpy=                  0.343671
 Thermal correction to Gibbs Free Energy=         0.281484
 Sum of electronic and zero-point Energies=          -1032.122334
 Sum of electronic and thermal Energies=             -1032.105627
 Sum of electronic and thermal Enthalpies=           -1032.104682
 Sum of electronic and thermal Free Energies=        -1032.166870

                     E (Thermal)             CV                S
                      KCal/Mol        Cal/Mol-Kelvin    Cal/Mol-Kelvin
 Total                  215.065             64.957            130.885
 Electronic               0.000              0.000              0.000
 Translational            0.889              2.981             42.317
 Rotational               0.889              2.981             33.038
 Vibrational            213.287             58.996             55.531
 Vibration     1          0.593              1.984              5.944
 Vibration     2          0.594              1.984              5.789
 Vibration     3          0.596              1.975              4.611
 Vibration     4          0.603              1.952              3.538
 Vibration     5          0.607              1.938              3.194
 Vibration     6          0.618              1.904              2.693
 Vibration     7          0.632              1.859              2.264
 Vibration     8          0.640              1.834              2.096
 Vibration     9          0.648              1.808              1.945
 Vibration    10          0.658              1.778              1.796
 Vibration    11          0.668              1.746              1.664
 Vibration    12          0.673              1.733              1.613
 Vibration    13          0.686              1.694              1.478
 Vibration    14          0.703              1.643              1.330
 Vibration    15          0.704              1.641              1.326
 Vibration    16          0.712              1.617              1.265
 Vibration    17          0.716              1.606              1.236
 Vibration    18          0.729              1.571              1.157
 Vibration    19          0.753              1.505              1.025
 Vibration    20          0.770              1.458              0.943
 Vibration    21          0.775              1.447              0.924
 Vibration    22          0.790              1.407              0.862
 Vibration    23          0.847              1.269              0.680
 Vibration    24          0.863              1.233              0.639
 Vibration    25          0.925              1.099              0.507
 Vibration    26          0.941              1.067              0.479
 Vibration    27          0.948              1.052              0.467

                           ! Non-Optimized Parameters !
 Normal termination of Gaussian 16 at Thu Dec 10 21:29:20 2020.

 ----------------------------------------------------------------------
 # B3LYP/6-311++G(d,p) empiricaldispersion=gd3bj scf=xqc pop=npa geom=c
 heck
 ----------------------------------------------------------------------

 --------------------------------------
 CID_82514970_JID_6110_Energie_neutraal
 --------------------------------------
 Structure from the checkpoint file:  "JID_6110.chk"
 Charge =  0 Multiplicity = 1

 SCF Done:  E(RB3LYP) =  -1032.65158130     A.U. after   16 cycles
 Normal termination of Gaussian 16 at Thu Dec 10 21:35:58 2020.

 ----------------------------------------------------------------------
 # B3LYP/6-311++G(d,p) empiricaldispersion=gd3bj scf=xqc pop=npa geom=c
 heck
 ----------------------------------------------------------------------

 ------------------------------------
 CID_82514970_JID_6110_Energie_kation
 ------------------------------------
 Structure from the checkpoint file:  "JID_6110.chk"
 Charge =  1 Multiplicity = 2

 SCF Done:  E(UB3LYP) =  -1032.38619227     A.U. after   24 cycles
 Normal termination of Gaussian 16 at Thu Dec 10 21:49:40 2020.
 Gaussian 16:  ES64L-G16RevA.03 25-Dec-2016

 ----------------------------------------------------------------------
 # B3LYP/6-311++G(d,p) empiricaldispersion=gd3bj scf=xqc pop=npa geom=c
 heck
 ----------------------------------------------------------------------

 -----------------------------------
 CID_82514970_JID_6110_Energie_anion
 -----------------------------------
 Structure from the checkpoint file:  "JID_6110.chk"
 Charge = -1 Multiplicity = 2

                         Standard orientation:
 ---------------------------------------------------------------------
 Center     Atomic      Atomic             Coordinates (Angstroms)
 Number     Number       Type             X           Y           Z
 ---------------------------------------------------------------------
      1          6           0       -3.015050   -1.916220    1.263187
      2          6           0       -3.165685   -1.494561   -0.203807
      3          6           0       -4.243384   -0.413694   -0.407679
      4          6           0       -3.806234    0.933704    0.178902
      5          6           0       -2.442754    1.361163   -0.369627
      6          7           0       -1.461116    0.294784   -0.196528
      7          6           0       -1.833235   -0.998100   -0.780385
      8          6           0       -0.128067    0.580568   -0.078336
      9          7           0        0.827806   -0.302464   -0.190876
     10          6           0        2.075924    0.253507    0.047875
     11          6           0        2.078551    1.584644    0.328148
     12         16           0        0.444285    2.222308    0.305507
     13          6           0        3.274631   -0.678711   -0.062680
     14          6           0        4.596541    0.081126    0.072224
     15          6           0        3.169988   -1.757193    1.028537
     16          7           0        3.278991   -1.372635   -1.368857
     17          1           0       -3.978077   -2.227067    1.684061
     18          1           0       -2.622297   -1.099066    1.875923
     19          1           0       -2.318686   -2.757236    1.354113
     20          1           0       -3.453935   -2.379218   -0.787577
     21          1           0       -4.425583   -0.291747   -1.484970
     22          1           0       -5.192115   -0.732940    0.040102
     23          1           0       -3.743776    0.868578    1.271086
     24          1           0       -4.542415    1.711475   -0.055380
     25          1           0       -2.096749    2.252916    0.159388
     26          1           0       -2.528937    1.624412   -1.438366
     27          1           0       -1.023435   -1.696592   -0.570527
     28          1           0       -1.911442   -0.894648   -1.876048
     29          1           0        2.911830    2.236622    0.541107
     30          1           0        4.677630    0.564318    1.051355
     31          1           0        5.429133   -0.618161   -0.043471
     32          1           0        4.688733    0.854228   -0.699921
     33          1           0        2.220228   -2.294010    0.941642
     34          1           0        3.991460   -2.471891    0.918670
     35          1           0        3.214077   -1.305417    2.025274
     36          1           0        2.354907   -1.788262   -1.494100
     37          1           0        3.353783   -0.668409   -2.104817
 ---------------------------------------------------------------------

 SCF Done:  E(UB3LYP) =  -1032.63985860     A.U. after   33 cycles
 SCF Done:  E(UB3LYP) =  -1032.63985860     a.u. after    1 cycles

 The electronic state is 2-A.
 Alpha  occ. eigenvalues --  -88.77996 -14.24792 -14.20182 -14.20144 -10.17144
 Alpha  occ. eigenvalues --  -10.12524 -10.11327 -10.10926 -10.10094 -10.09510
 Alpha  occ. eigenvalues --  -10.07800 -10.07569 -10.07351 -10.06792 -10.06720
 Alpha  occ. eigenvalues --  -10.05915  -7.86619  -5.82926  -5.82575  -5.82153
 Alpha  occ. eigenvalues --   -0.89310  -0.83896  -0.80121  -0.71854  -0.70083
 Alpha  occ. eigenvalues --   -0.67747  -0.67494  -0.62865  -0.60471  -0.59554
 Alpha  occ. eigenvalues --   -0.56591  -0.53321  -0.50576  -0.48138  -0.45245
 Alpha  occ. eigenvalues --   -0.43794  -0.42251  -0.39413  -0.38728  -0.37495
 Alpha  occ. eigenvalues --   -0.36998  -0.36162  -0.35647  -0.34175  -0.33449
 Alpha  occ. eigenvalues --   -0.32024  -0.31352  -0.30633  -0.29807  -0.29520
 Alpha  occ. eigenvalues --   -0.29299  -0.28075  -0.27434  -0.27099  -0.26171
 Alpha  occ. eigenvalues --   -0.25426  -0.25333  -0.23805  -0.22351  -0.22185
 Alpha  occ. eigenvalues --   -0.19857  -0.18238  -0.18018  -0.15582  -0.10874
 Alpha  occ. eigenvalues --    0.04132
 Alpha virt. eigenvalues --    0.05706   0.07013   0.07394   0.07764   0.07981
 Alpha virt. eigenvalues --    0.08372   0.08626   0.09512   0.09622   0.09974
 Alpha virt. eigenvalues --    0.10161   0.10550   0.10948   0.10987   0.11973

  Beta  occ. eigenvalues --  -88.77989 -14.24800 -14.20173 -14.20129 -10.17114
  Beta  occ. eigenvalues --  -10.12523 -10.11307 -10.10927 -10.10075 -10.09491
  Beta  occ. eigenvalues --  -10.07789 -10.07555 -10.07326 -10.06780 -10.06691
  Beta  occ. eigenvalues --  -10.05888  -7.86611  -5.82919  -5.82570  -5.82139
  Beta  occ. eigenvalues --   -0.89283  -0.83882  -0.80109  -0.71813  -0.70052
  Beta  occ. eigenvalues --   -0.67723  -0.67461  -0.62829  -0.60446  -0.59506
  Beta  occ. eigenvalues --   -0.56551  -0.53265  -0.50538  -0.48098  -0.45204
  Beta  occ. eigenvalues --   -0.43736  -0.42223  -0.39391  -0.38708  -0.37458
  Beta  occ. eigenvalues --   -0.36960  -0.36133  -0.35615  -0.34131  -0.33408
  Beta  occ. eigenvalues --   -0.31980  -0.31316  -0.30599  -0.29771  -0.29496
  Beta  occ. eigenvalues --   -0.29279  -0.28045  -0.27407  -0.27068  -0.26142
  Beta  occ. eigenvalues --   -0.25390  -0.25314  -0.23767  -0.22308  -0.22135
  Beta  occ. eigenvalues --   -0.19787  -0.18193  -0.17999  -0.15555  -0.10833
  Beta virt. eigenvalues --    0.05857   0.06639   0.07545   0.07886   0.08124
  Beta virt. eigenvalues --    0.08374   0.08515   0.08881   0.09740   0.09882
  Beta virt. eigenvalues --    0.10270   0.10490   0.10800   0.11164   0.11358

 Mulliken charges and spin densities:
               1          2
     1  C    1.031709  -1.627733
     2  C   -0.872789   1.298583
     3  C    0.527333  -1.071524
     4  C   -0.094442  -0.126858
     5  C    0.393257  -0.555751
     6  N    0.428141   0.081353
     7  C    0.465146  -1.035961
     8  C   -0.180008   0.217182
     9  N    0.074952   0.004049
    10  C   -0.083194  -1.182206
    11  C    0.161235   0.623243
    12  S   -0.442638  -0.139134
    13  C   -0.637844   0.337341
    14  C    0.164102  -0.689958
    15  C   -0.254838  -0.274865
    16  N   -0.115620  -0.011739
    17  H   -0.176319   0.332423
    18  H    0.000654   0.152825
    19  H    0.030144   0.092634
    20  H   -0.560157   0.781027
    21  H   -0.129454   0.279618
    22  H   -0.491718   0.656534
    23  H    0.078792   0.068550
    24  H   -0.454545   0.641507
    25  H   -0.200572   0.296396
    26  H   -0.150154   0.339044
    27  H    0.313456  -0.113487
    28  H   -0.266190   0.438798
    29  H   -0.185119   0.473606
    30  H    0.070284   0.057246
    31  H    0.097272   0.064695
    32  H   -0.052814   0.191210
    33  H    0.038190   0.112100
    34  H    0.092980   0.051520
    35  H    0.067512   0.084400
    36  H    0.163050   0.086747
    37  H    0.150205   0.066585
 Sum of Mulliken charges =  -1.00000   1.00000

 Dipole moment (field-independent basis, Debye):
    X=              6.4613    Y=              1.6622    Z=              1.8178  Tot=              6.9148
 Quadrupole moment (field-independent basis, Debye-Ang):
   XX=           -208.7050   YY=           -152.9609   ZZ=           -140.6861
   XY=             -2.0804   XZ=             -2.9785   YZ=             -0.1245

 Summary of Natural Population Analysis:

                                       Natural Population
                Natural  -----------------------------------------------
    Atom  No    Charge         Core      Valence    Rydberg      Total
 -----------------------------------------------------------------------
      C    1   -0.28742      0.99965     2.28105    0.00672     3.28742
      C    2   -0.11691      0.99960     2.10584    0.01147     3.11691
      C    3   -0.18829      0.99961     2.17916    0.00952     3.18829
      C    4   -0.19432      0.99962     2.18547    0.00922     3.19432
      C    5   -0.08001      0.99960     2.06977    0.01064     3.08001
      N    6   -0.26062      0.99961     2.74878    0.01222     3.76062
      C    7   -0.08123      0.99958     2.06964    0.01201     3.08123
      C    8    0.16540      0.99955     1.81620    0.01884     2.83460
      N    9   -0.29116      0.99962     2.78033    0.01121     3.79116
      C   10    0.06760      0.99944     1.91654    0.01642     2.93240
      C   11   -0.21895      0.99943     2.21014    0.00939     3.21895
      S   12    0.15557      4.99947     2.82615    0.01881     7.84443
      C   13    0.04064      0.99954     1.94780    0.01202     2.95936
      C   14   -0.28653      0.99963     2.28097    0.00593     3.28653
      C   15   -0.28270      0.99962     2.27719    0.00590     3.28270
      N   16   -0.41977      0.99976     2.91127    0.00873     3.91977
      H   17    0.09981      0.00000     0.39923    0.00096     0.40019
      H   18    0.09918      0.00000     0.39951    0.00132     0.40082
      H   19    0.09999      0.00000     0.39912    0.00089     0.40001
      H   20    0.10140      0.00000     0.39678    0.00182     0.39860
      H   21    0.09937      0.00000     0.39838    0.00225     0.40063
      H   22    0.10234      0.00000     0.39603    0.00163     0.39766
      H   23    0.09662      0.00000     0.40196    0.00142     0.40338
      H   24    0.10423      0.00000     0.39420    0.00156     0.39577
      H   25    0.10124      0.00000     0.39699    0.00177     0.39876
      H   26    0.09112      0.00000     0.40715    0.00172     0.40888
      H   27    0.11397      0.00000     0.38392    0.00211     0.38603
      H   28    0.09266      0.00000     0.40569    0.00165     0.40734
      H   29    0.11263      0.00000     0.38618    0.00119     0.38737
      H   30    0.10030      0.00000     0.39849    0.00121     0.39970
      H   31    0.10404      0.00000     0.39496    0.00100     0.39596
      H   32    0.09979      0.00000     0.39883    0.00138     0.40021
      H   33    0.10745      0.00000     0.39150    0.00105     0.39255
      H   34    0.09990      0.00000     0.39912    0.00098     0.40010
      H   35    0.09890      0.00000     0.40012    0.00097     0.40110
      H   36    0.18154      0.00000     0.31638    0.00208     0.31846
      H   37    0.17218      0.00000     0.32606    0.00176     0.32782
 =======================================================================
   * Total *   -0.00000     19.99335    44.79688    0.20978    65.00000

 Normal termination of Gaussian 16 at Thu Dec 10 22:09:44 2020.
