 Gaussian 16, Revision A.03,

 -----------------------------------------------------------
 # opt freq B3LYP/6-31G(d) empiricaldispersion=gd3bj scf=xqc
 -----------------------------------------------------------

 ------------------------------
 CID_58109459_JID_1585_neutraal
 ------------------------------
 Symbolic Z-matrix:
 Charge =  0 Multiplicity = 1

 SCF Done:  E(RB3LYP) =  -475.754155577     A.U. after   14 cycles
 SCF Done:  E(RB3LYP) =  -475.758640667     A.U. after   12 cycles
 SCF Done:  E(RB3LYP) =  -475.758858578     A.U. after   11 cycles
 SCF Done:  E(RB3LYP) =  -475.758871222     A.U. after    8 cycles
 SCF Done:  E(RB3LYP) =  -475.758872270     A.U. after    8 cycles
 SCF Done:  E(RB3LYP) =  -475.758872458     A.U. after    7 cycles
 Optimization completed.
    -- Stationary point found.

 1\1\GINC-NODE112\FOpt\RB3LYP\6-31G(d)\C8H11N3\VSC10255\08-Dec-2020\0\\
 # opt freq B3LYP/6-31G(d) empiricaldispersion=gd3bj scf=xqc\\CID_58109
 459_JID_1585_neutraal\\0,1\C,1.3018648211,0.1927178895,-0.139591716\C,
 0.8882923603,-1.0417243095,0.6762401218\C,-0.6450515084,-0.9931968459,
 0.6360519974\N,-0.9357819369,0.4344888258,0.5366484383\C,0.2478571534,
 1.2389161115,0.2465942775\C,-2.1845072269,0.9645882865,0.7112184767\C,
 -3.3339867357,0.1645392427,0.8932429318\N,-4.5511399046,0.678125277,1.
 0652830218\C,-4.650413968,2.0112207703,1.0554752664\N,-3.6432024218,2.

 Normal termination of Gaussian 16 at Tue Dec  8 20:23:57 2020.

 --------------------------------------------------------------------
 #N Geom=AllCheck Guess=TCheck SCRF=Check GenChk RB3LYP/6-31G(d) Freq
 --------------------------------------------------------------------

 Structure from the checkpoint file:  "JID_1585.chk"
 ------------------------------
 CID_58109459_JID_1585_neutraal
 ------------------------------
 Charge =  0 Multiplicity = 1

 SCF Done:  E(RB3LYP) =  -475.758872458     A.U. after    1 cycles

  Exact polarizability: 143.932  -0.002  98.315  -0.085   2.541  58.600
 Approx polarizability: 202.220  -0.002 168.801  -0.234   6.644  89.636

                      1                      2                      3
                      A                      A                      A
 Frequencies --     39.6711                95.3940               135.9256
 Red. masses --      4.2908                 3.4728                 2.0565
 Frc consts  --      0.0040                 0.0186                 0.0224
 IR Inten    --      0.1292                 0.0525                 1.6188

                      4                      5                      6
                      A                      A                      A
 Frequencies --    170.1553               216.4109               256.1343
 Red. masses --      4.0046                 3.6434                 1.6285
 Frc consts  --      0.0683                 0.1005                 0.0629
 IR Inten    --      0.7413                 0.5886                 0.0047

                      7                      8                      9
                      A                      A                      A
 Frequencies --    356.7516               441.1331               444.8643
 Red. masses --      5.3677                 4.5033                 4.4680
 Frc consts  --      0.4025                 0.5163                 0.5210
 IR Inten    --      0.0775                 0.0531                 2.0296

                     10                     11                     12
                      A                      A                      A
 Frequencies --    516.1016               588.2724               637.8466
 Red. masses --      4.2363                 1.8518                 8.4155
 Frc consts  --      0.6648                 0.3776                 2.0173
 IR Inten    --      6.4631                 1.3387                 8.7880

                     13                     14                     15
                      A                      A                      A
 Frequencies --    701.1772               747.9403               802.5974
 Red. masses --      4.8979                 2.1890                 2.8490
 Frc consts  --      1.4188                 0.7215                 1.0813
 IR Inten    --      1.4161                15.7691                 4.9593

                     16                     17                     18
                      A                      A                      A
 Frequencies --    877.8066               887.8271               888.8613
 Red. masses --      1.9208                 1.8081                 1.8875
 Frc consts  --      0.8720                 0.8397                 0.8786
 IR Inten    --     15.1741                 6.3522                 1.4890

                     19                     20                     21
                      A                      A                      A
 Frequencies --    929.1631               938.4189               943.8653
 Red. masses --      2.3736                 1.4055                 1.4946
 Frc consts  --      1.2074                 0.7293                 0.7845
 IR Inten    --      1.2683                 0.0019                 0.6684

                     22                     23                     24
                      A                      A                      A
 Frequencies --    948.7831               986.8435              1002.6650
 Red. masses --      1.5038                 5.0879                 1.4986
 Frc consts  --      0.7976                 2.9194                 0.8877
 IR Inten    --      0.5888                 2.5369                 1.0527

                     25                     26                     27
                      A                      A                      A
 Frequencies --   1046.3249              1064.4321              1162.2594
 Red. masses --      3.7977                 1.8429                 1.8634
 Frc consts  --      2.4497                 1.2303                 1.4831
 IR Inten    --      0.1979                 1.3393                 3.1413

                     28                     29                     30
                      A                      A                      A
 Frequencies --   1171.8626              1185.2389              1216.0176
 Red. masses --      2.7638                 1.7568                 1.5215
 Frc consts  --      2.2362                 1.4541                 1.3256
 IR Inten    --      0.0491                12.3353                 2.0088

                     31                     32                     33
                      A                      A                      A
 Frequencies --   1216.2738              1242.5182              1264.3715
 Red. masses --      1.9653                 1.9957                 5.0569
 Frc consts  --      1.7129                 1.8153                 4.7630
 IR Inten    --      5.0139                31.5254                36.2575

                     34                     35                     36
                      A                      A                      A
 Frequencies --   1268.7322              1291.6797              1342.0777
 Red. masses --      1.2182                 1.3904                 1.3556
 Frc consts  --      1.1553                 1.3668                 1.4386
 IR Inten    --     12.7885                10.5666                 0.0321

                     37                     38                     39
                      A                      A                      A
 Frequencies --   1368.3907              1387.0527              1403.2925
 Red. masses --      1.2655                 1.4399                 1.2244
 Frc consts  --      1.3961                 1.6322                 1.4206
 IR Inten    --      0.8139                 1.6903                 0.3169

                     40                     41                     42
                      A                      A                      A
 Frequencies --   1404.5808              1419.3865              1486.5376
 Red. masses --      1.3973                 2.1028                 2.4388
 Frc consts  --      1.6241                 2.4960                 3.1752
 IR Inten    --      1.3020               102.0107                 0.3582

                     43                     44                     45
                      A                      A                      A
 Frequencies --   1509.1585              1520.2268              1528.7874
 Red. masses --      5.6913                 1.0926                 1.1309
 Frc consts  --      7.6372                 1.4877                 1.5572
 IR Inten    --    365.7793                 3.2747                 0.0426

                     46                     47                     48
                      A                      A                      A
 Frequencies --   1553.7668              1565.1034              1588.6586
 Red. masses --      1.0829                 1.1117                 4.9100
 Frc consts  --      1.5403                 1.6044                 7.3012
 IR Inten    --      2.8614                19.5301                23.2368

                     49                     50                     51
                      A                      A                      A
 Frequencies --   1641.0113              2995.2280              2999.0375
 Red. masses --      4.8873                 1.0690                 1.0715
 Frc consts  --      7.7543                 5.6507                 5.6783
 IR Inten    --    114.8801               101.8349                13.3542

                     52                     53                     54
                      A                      A                      A
 Frequencies --   3055.9880              3056.6170              3071.2359
 Red. masses --      1.0857                 1.0895                 1.0760
 Frc consts  --      5.9741                 5.9975                 5.9796
 IR Inten    --      7.2453                23.0062                14.7014

                     55                     56                     57
                      A                      A                      A
 Frequencies --   3075.1155              3123.7040              3131.2587
 Red. masses --      1.0666                 1.0983                 1.1051
 Frc consts  --      5.9425                 6.3139                 6.3838
 IR Inten    --     68.7216                32.3526                39.0659

                     58                     59                     60
                      A                      A                      A
 Frequencies --   3181.4188              3182.2617              3200.4711
 Red. masses --      1.0894                 1.0886                 1.0917
 Frc consts  --      6.4967                 6.4954                 6.5882
 IR Inten    --     23.2774                35.7943                18.9343

 - Thermochemistry -
 -------------------
 Temperature   298.150 Kelvin.  Pressure   1.00000 Atm.
 Atom     1 has atomic number  6 and mass  12.00000

 Molecular mass:   149.09530 amu.
 Principal axes and moments of inertia in atomic units:
                           1         2         3
     Eigenvalues --   563.712652674.456113168.17595
           X            1.00000   0.00000   0.00003
           Y           -0.00000   1.00000  -0.00227
           Z           -0.00003   0.00227   1.00000
 This molecule is an asymmetric top.
 Rotational symmetry number  1.
 Warning -- assumption of classical behavior for rotation
           may cause significant error
 Rotational temperatures (Kelvin)      0.15365     0.03239     0.02734
 Rotational constants (GHZ):           3.20153     0.67481     0.56965
 Zero-point vibrational energy     493308.2 (Joules/Mol)
                                  117.90349 (Kcal/Mol)
 Warning -- explicit consideration of  11 degrees of freedom as
           vibrations may cause significant error
 Vibrational temperatures:     57.08   137.25   195.57   244.82   311.37
          (Kelvin)            368.52   513.29   634.69   640.06   742.56
                              846.39   917.72  1008.84  1076.12  1154.76
                             1262.97  1277.39  1278.87  1336.86  1350.18
                             1358.01  1365.09  1419.85  1442.61  1505.43
                             1531.48  1672.23  1686.05  1705.29  1749.58
                             1749.95  1787.71  1819.15  1825.42  1858.44
                             1930.95  1968.81  1995.66  2019.02  2020.88
                             2042.18  2138.80  2171.34  2187.27  2199.58
                             2235.52  2251.83  2285.73  2361.05  4309.47
                             4314.95  4396.89  4397.79  4418.82  4424.41
                             4494.31  4505.18  4577.35  4578.56  4604.76

 Zero-point correction=                           0.187891 (Hartree/Particle)
 Thermal correction to Energy=                    0.197022
 Thermal correction to Enthalpy=                  0.197966
 Thermal correction to Gibbs Free Energy=         0.152611
 Sum of electronic and zero-point Energies=           -475.570981
 Sum of electronic and thermal Energies=              -475.561850
 Sum of electronic and thermal Enthalpies=            -475.560906
 Sum of electronic and thermal Free Energies=         -475.606261

                     E (Thermal)             CV                S
                      KCal/Mol        Cal/Mol-Kelvin    Cal/Mol-Kelvin
 Total                  123.633             34.670             95.458
 Electronic               0.000              0.000              0.000
 Translational            0.889              2.981             40.909
 Rotational               0.889              2.981             29.947
 Vibrational            121.856             28.708             24.602
 Vibration     1          0.594              1.981              5.275
 Vibration     2          0.603              1.952              3.546
 Vibration     3          0.614              1.917              2.860
 Vibration     4          0.625              1.879              2.434
 Vibration     5          0.645              1.816              1.989
 Vibration     6          0.666              1.752              1.688
 Vibration     7          0.732              1.561              1.136
 Vibration     8          0.801              1.380              0.823
 Vibration     9          0.804              1.372              0.811
 Vibration    10          0.871              1.214              0.619
 Vibration    11          0.945              1.057              0.470

                           ! Non-Optimized Parameters !

 1\1\GINC-NODE112\Freq\RB3LYP\6-31G(d)\C8H11N3\VSC10255\08-Dec-2020\0\\
 #N Geom=AllCheck Guess=TCheck SCRF=Check GenChk RB3LYP/6-31G(d) Freq\\
 CID_58109459_JID_1585_neutraal\\0,1\C,1.3018648211,0.1927178895,-0.139
 591716\C,0.8882923603,-1.0417243095,0.6762401218\C,-0.6450515084,-0.99
 31968459,0.6360519974\N,-0.9357819369,0.4344888258,0.5366484383\C,0.24
 78571534,1.2389161115,0.2465942775\C,-2.1845072269,0.9645882865,0.7112
 184767\C,-3.3339867357,0.1645392427,0.8932429318\N,-4.5511399046,0.678
 125277,1.0652830218\C,-4.650413968,2.0112207703,1.0554752664\N,-3.6432

 Normal termination of Gaussian 16 at Tue Dec  8 20:29:46 2020.

 ----------------------------------------------------------------------
 # B3LYP/6-311++G(d,p) empiricaldispersion=gd3bj scf=xqc pop=npa geom=c
 heck
 ----------------------------------------------------------------------

 --------------------------------------
 CID_58109459_JID_1585_Energie_neutraal
 --------------------------------------
 Structure from the checkpoint file:  "JID_1585.chk"
 Charge =  0 Multiplicity = 1

 SCF Done:  E(RB3LYP) =  -475.882429154     A.U. after   14 cycles
 Normal termination of Gaussian 16 at Tue Dec  8 20:32:12 2020.

 ----------------------------------------------------------------------
 # B3LYP/6-311++G(d,p) empiricaldispersion=gd3bj scf=xqc pop=npa geom=c
 heck
 ----------------------------------------------------------------------

 ------------------------------------
 CID_58109459_JID_1585_Energie_kation
 ------------------------------------
 Structure from the checkpoint file:  "JID_1585.chk"
 Charge =  1 Multiplicity = 2

 SCF Done:  E(UB3LYP) =  -475.601553841     A.U. after   20 cycles
 Normal termination of Gaussian 16 at Tue Dec  8 20:37:11 2020.
 Gaussian 16:  ES64L-G16RevA.03 25-Dec-2016

 -----------------------------------
 CID_58109459_JID_1585_Energie_anion
 -----------------------------------
 Structure from the checkpoint file:  "JID_1585.chk"
 Charge = -1 Multiplicity = 2

                         Standard orientation:
 ---------------------------------------------------------------------
 Center     Atomic      Atomic             Coordinates (Angstroms)
 Number     Number       Type             X           Y           Z
 ---------------------------------------------------------------------
      1          6           0        3.042524    0.704743   -0.302382
      2          6           0        3.040601   -0.704769    0.308964
      3          6           0        1.626196   -1.217967    0.006974
      4          7           0        0.820265   -0.000190   -0.006655
      5          6           0        1.626301    1.217405   -0.008964
      6          6           0       -0.547500   -0.000003   -0.003195
      7          6           0       -1.310506   -1.184438   -0.100411
      8          7           0       -2.642721   -1.187398   -0.095485
      9          6           0       -3.248354    0.000278    0.003157
     10          7           0       -2.642015    1.187839    0.098598
     11          6           0       -1.309776    1.184630    0.097175
     12          1           0        3.816501    1.355212    0.113828
     13          1           0        3.197642    0.644787   -1.385718
     14          1           0        3.189030   -0.644531    1.393223
     15          1           0        3.817319   -1.355191   -0.102187
     16          1           0        1.581683   -1.735611   -0.964297
     17          1           0        1.266357   -1.919044    0.770245
     18          1           0        1.574916    1.731073    0.964204
     19          1           0        1.272258    1.921724   -0.771908
     20          1           0       -0.823693   -2.152931   -0.189227
     21          1           0       -4.335243    0.000384    0.005797
     22          1           0       -0.822399    2.153104    0.182931
 ---------------------------------------------------------------------

 SCF Done:  E(UB3LYP) =  -475.874192461     A.U. after   30 cycles

 The electronic state is 2-A.
 Alpha  occ. eigenvalues --  -14.22270 -14.18965 -14.18964 -10.10640 -10.10304
 Alpha  occ. eigenvalues --  -10.09630 -10.09629 -10.08482 -10.08478 -10.06431
 Alpha  occ. eigenvalues --  -10.06409  -0.86628  -0.84339  -0.76269  -0.70425
 Alpha  occ. eigenvalues --   -0.63573  -0.63255  -0.54334  -0.53727  -0.48314
 Alpha  occ. eigenvalues --   -0.47758  -0.42918  -0.40228  -0.39904  -0.38432
 Alpha  occ. eigenvalues --   -0.32455  -0.32211  -0.31278  -0.30018  -0.29185
 Alpha  occ. eigenvalues --   -0.29121  -0.28012  -0.24728  -0.24366  -0.22812
 Alpha  occ. eigenvalues --   -0.19837  -0.19675  -0.18603  -0.12975  -0.09291
 Alpha  occ. eigenvalues --    0.04600
 Alpha virt. eigenvalues --    0.06651   0.08008   0.08451   0.08857   0.09853
 Alpha virt. eigenvalues --    0.10553   0.10712   0.11018   0.11740   0.12461
 Alpha virt. eigenvalues --    0.13311   0.13820   0.15153   0.15794   0.16791

  Beta  occ. eigenvalues --  -14.22281 -14.18835 -14.18833 -10.10673 -10.10337
  Beta  occ. eigenvalues --  -10.09604 -10.09603 -10.08352 -10.08347 -10.06391
  Beta  occ. eigenvalues --  -10.06369  -0.86492  -0.84259  -0.75970  -0.70359
  Beta  occ. eigenvalues --   -0.63504  -0.63123  -0.54283  -0.53422  -0.48174
  Beta  occ. eigenvalues --   -0.47692  -0.42845  -0.40160  -0.39794  -0.38349
  Beta  occ. eigenvalues --   -0.32412  -0.32103  -0.31075  -0.29943  -0.29120
  Beta  occ. eigenvalues --   -0.28825  -0.27918  -0.24651  -0.24292  -0.22750
  Beta  occ. eigenvalues --   -0.19679  -0.18763  -0.18416  -0.12827  -0.08979
  Beta virt. eigenvalues --    0.07388   0.08296   0.08868   0.09189   0.09207
  Beta virt. eigenvalues --    0.10112   0.10721   0.11202   0.11655   0.12156
  Beta virt. eigenvalues --    0.12759   0.13566   0.14096   0.15267   0.15800

 Mulliken charges and spin densities:
               1          2
     1  C    0.579698  -1.065115
     2  C    0.581823  -1.064668
     3  C    0.489235  -0.645706
     4  N   -0.038869   0.216999
     5  C    0.491077  -0.646310
     6  C   -0.435180  -0.004837
     7  C   -0.294486   0.281839
     8  N   -0.141816   0.064624
     9  C   -0.073016  -0.039971
    10  N   -0.141706   0.064367
    11  C   -0.297612   0.285459
    12  H   -0.683556   0.860902
    13  H   -0.108604   0.254723
    14  H   -0.107242   0.252900
    15  H   -0.683825   0.861391
    16  H   -0.004123   0.164948
    17  H   -0.190650   0.341898
    18  H   -0.002165   0.162791
    19  H   -0.192932   0.345034
    20  H    0.039707   0.151575
    21  H    0.175568   0.004495
    22  H    0.038675   0.152661
 Sum of Mulliken charges =  -1.00000   1.00000

 Dipole moment (field-independent basis, Debye):
    X=             -3.7747    Y=             -0.0076    Z=             -0.0030  Tot=              3.7747
 Quadrupole moment (field-independent basis, Debye-Ang):
   XX=           -138.2850   YY=            -99.5508   ZZ=            -88.4678
   XY=             -0.0032   XZ=             -0.0025   YZ=              0.5003

 Summary of Natural Population Analysis:

                                       Natural Population
                Natural  -----------------------------------------------
    Atom  No    Charge         Core      Valence    Rydberg      Total
 -----------------------------------------------------------------------
      C    1   -0.19263      0.99964     2.18430    0.00869     3.19263
      C    2   -0.19265      0.99964     2.18434    0.00867     3.19265
      C    3   -0.08053      0.99963     2.06927    0.01163     3.08053
      N    4   -0.24994      0.99965     2.74040    0.00988     3.74994
      C    5   -0.08056      0.99963     2.06929    0.01164     3.08056
      C    6    0.05873      0.99950     1.93164    0.01014     2.94127
      C    7    0.03161      0.99958     1.95548    0.01333     2.96839
      N    8   -0.22838      0.99972     2.71725    0.01142     3.72838
      C    9    0.09744      0.99967     1.88335    0.01953     2.90256
      N   10   -0.22844      0.99972     2.71731    0.01142     3.72844
      C   11    0.03172      0.99958     1.95538    0.01333     2.96828
      H   12    0.10520      0.00000     0.39232    0.00248     0.39480
      H   13    0.09804      0.00000     0.39999    0.00197     0.40196
      H   14    0.09801      0.00000     0.40003    0.00196     0.40199
      H   15    0.10521      0.00000     0.39230    0.00249     0.39479
      H   16    0.08922      0.00000     0.40937    0.00142     0.41078
      H   17    0.09765      0.00000     0.40073    0.00162     0.40235
      H   18    0.08911      0.00000     0.40947    0.00142     0.41089
      H   19    0.09772      0.00000     0.40066    0.00162     0.40228
      H   20    0.08861      0.00000     0.40935    0.00205     0.41139
      H   21    0.07622      0.00000     0.42247    0.00131     0.42378
      H   22    0.08862      0.00000     0.40933    0.00205     0.41138
 =======================================================================
   * Total *    0.00000     10.99594    28.85401    0.15004    40.00000

 Normal termination of Gaussian 16 at Tue Dec  8 20:44:20 2020.
