 Gaussian 16, Revision A.03,

 -----------------------------------------------------------
 # opt freq B3LYP/6-31G(d) empiricaldispersion=gd3bj scf=xqc
 -----------------------------------------------------------

 ------------------------------
 CID_39096203_JID_8497_neutraal
 ------------------------------
 Symbolic Z-matrix:
 Charge =  0 Multiplicity = 1

 SCF Done:  E(RB3LYP) =  -803.154837203     A.U. after   15 cycles
 SCF Done:  E(RB3LYP) =  -803.157719608     A.U. after   13 cycles
 SCF Done:  E(RB3LYP) =  -803.157373967     A.U. after   13 cycles
 SCF Done:  E(RB3LYP) =  -803.158306291     A.U. after   12 cycles
 SCF Done:  E(RB3LYP) =  -803.158396937     A.U. after   11 cycles
 SCF Done:  E(RB3LYP) =  -803.158470773     A.U. after   11 cycles
 SCF Done:  E(RB3LYP) =  -803.158543042     A.U. after   12 cycles
 SCF Done:  E(RB3LYP) =  -803.158593443     A.U. after   12 cycles
 SCF Done:  E(RB3LYP) =  -803.158617498     A.U. after   12 cycles
 SCF Done:  E(RB3LYP) =  -803.158654317     A.U. after   12 cycles
 SCF Done:  E(RB3LYP) =  -803.159599667     A.U. after    7 cycles
 SCF Done:  E(RB3LYP) =  -803.159599672     A.U. after    7 cycles
 SCF Done:  E(RB3LYP) =  -803.159599676     A.U. after    7 cycles
 SCF Done:  E(RB3LYP) =  -803.159599686     A.U. after    7 cycles
 SCF Done:  E(RB3LYP) =  -803.159599693     A.U. after    6 cycles
 Optimization completed.
    -- Stationary point found.
 Normal termination of Gaussian 16 at Fri Dec 11 21:16:04 2020.

 --------------------------------------------------------------------
 #N Geom=AllCheck Guess=TCheck SCRF=Check GenChk RB3LYP/6-31G(d) Freq
 --------------------------------------------------------------------

 Structure from the checkpoint file:  "JID_8497.chk"
 ------------------------------
 CID_39096203_JID_8497_neutraal
 ------------------------------
 Charge =  0 Multiplicity = 1

 SCF Done:  E(RB3LYP) =  -803.159599693     A.U. after    1 cycles

  Exact polarizability: 206.221 -26.851 120.578  -3.367  -1.754 146.355
 Approx polarizability: 297.829 -47.807 185.471  -1.910  -2.311 245.819

                      1                      2                      3
                      A                      A                      A
 Frequencies --     20.8237                27.2619                35.3942
 Red. masses --      6.1005                 5.5857                 1.0578
 Frc consts  --      0.0016                 0.0024                 0.0008
 IR Inten    --      0.5532                 1.4882                 0.2718

                      4                      5                      6
                      A                      A                      A
 Frequencies --     50.8086                57.5545                66.2659
 Red. masses --      4.3699                 4.5295                 6.9841
 Frc consts  --      0.0066                 0.0088                 0.0181
 IR Inten    --      0.2958                 0.2288                 0.3432

                      7                      8                      9
                      A                      A                      A
 Frequencies --     94.3169               127.6881               137.9651
 Red. masses --      4.4762                 3.3571                 1.1365
 Frc consts  --      0.0235                 0.0322                 0.0127
 IR Inten    --      0.4538                 0.3879                 0.9780

                     10                     11                     12
                      A                      A                      A
 Frequencies --    184.4522               209.8990               219.5486
 Red. masses --      3.7222                 2.6545                 4.4545
 Frc consts  --      0.0746                 0.0689                 0.1265
 IR Inten    --      0.5353                 1.7279                 1.0223

                     13                     14                     15
                      A                      A                      A
 Frequencies --    260.8152               293.6116               324.2180
 Red. masses --      3.5511                 2.7338                 3.6039
 Frc consts  --      0.1423                 0.1389                 0.2232
 IR Inten    --      0.3587                 0.2273                 1.8762

                     16                     17                     18
                      A                      A                      A
 Frequencies --    336.3294               399.6130               410.9911
 Red. masses --      3.7956                 3.2687                 3.1634
 Frc consts  --      0.2530                 0.3075                 0.3148
 IR Inten    --      0.8173                 0.7271                 1.2830

                     19                     20                     21
                      A                      A                      A
 Frequencies --    452.6964               477.7382               488.3688
 Red. masses --      3.1865                 3.2917                 2.9119
 Frc consts  --      0.3847                 0.4426                 0.4092
 IR Inten    --      1.1292                 5.2831                14.2962

                     22                     23                     24
                      A                      A                      A
 Frequencies --    516.9757               555.2693               564.9042
 Red. masses --      1.7832                 2.8528                 4.0675
 Frc consts  --      0.2808                 0.5182                 0.7648
 IR Inten    --     28.8240                38.9264                 1.4742

                     25                     26                     27
                      A                      A                      A
 Frequencies --    574.8199               615.4698               643.1829
 Red. masses --      3.0400                 3.7066                 2.0387
 Frc consts  --      0.5918                 0.8273                 0.4969
 IR Inten    --      8.6642                 3.7685                32.7260

                     28                     29                     30
                      A                      A                      A
 Frequencies --    675.8708               698.4652               725.7436
 Red. masses --      3.5880                 2.8684                 2.2451
 Frc consts  --      0.9657                 0.8245                 0.6967
 IR Inten    --      4.4455                31.6813                44.5892

                     31                     32                     33
                      A                      A                      A
 Frequencies --    735.0286               743.1027               753.3725
 Red. masses --      3.2393                 5.5882                 3.8140
 Frc consts  --      1.0311                 1.8181                 1.2754
 IR Inten    --     36.3701                 1.7973                 6.9710

                     34                     35                     36
                      A                      A                      A
 Frequencies --    816.2575               841.8055               871.3109
 Red. masses --      2.7044                 1.3572                 1.3417
 Frc consts  --      1.0617                 0.5666                 0.6002
 IR Inten    --      5.9753                19.6473                15.1587

                     37                     38                     39
                      A                      A                      A
 Frequencies --    901.0327               943.2499               956.2481
 Red. masses --      1.2814                 3.3253                 3.5363
 Frc consts  --      0.6129                 1.7431                 1.9052
 IR Inten    --      1.5277                 0.7099                30.2404

                     40                     41                     42
                      A                      A                      A
 Frequencies --    962.9727               968.8066               985.1132
 Red. masses --      1.3241                 3.2791                 2.2633
 Frc consts  --      0.7234                 1.8133                 1.2941
 IR Inten    --      0.3486                22.9201                 5.2554

                     43                     44                     45
                      A                      A                      A
 Frequencies --   1020.2022              1032.5353              1044.0980
 Red. masses --      1.4740                 2.5072                 3.9308
 Frc consts  --      0.9039                 1.5749                 2.5247
 IR Inten    --      0.8321                12.4496                 2.4123

                     46                     47                     48
                      A                      A                      A
 Frequencies --   1051.2698              1075.5152              1081.2446
 Red. masses --      1.5024                 1.5281                 1.4998
 Frc consts  --      0.9783                 1.0414                 1.0331
 IR Inten    --      3.9903                13.1588                 2.2839

                     49                     50                     51
                      A                      A                      A
 Frequencies --   1135.8348              1149.5674              1168.3142
 Red. masses --      2.3821                 1.9722                 1.5935
 Frc consts  --      1.8106                 1.5356                 1.2815
 IR Inten    --     42.6331                69.3605                32.8159

                     52                     53                     54
                      A                      A                      A
 Frequencies --   1193.3845              1214.3450              1232.2995
 Red. masses --      1.7649                 1.9301                 2.1470
 Frc consts  --      1.4809                 1.6769                 1.9210
 IR Inten    --     10.2713                93.2436                 3.3559

                     55                     56                     57
                      A                      A                      A
 Frequencies --   1244.7585              1268.1610              1276.1690
 Red. masses --      1.4869                 2.3219                 1.5882
 Frc consts  --      1.3573                 2.2001                 1.5240
 IR Inten    --      6.3046                12.3020                10.8474

                     58                     59                     60
                      A                      A                      A
 Frequencies --   1311.8214              1327.8881              1334.6338
 Red. masses --      2.6976                 1.5588                 1.6082
 Frc consts  --      2.7351                 1.6194                 1.6878
 IR Inten    --      8.9549                 5.5640                 3.6967

                     61                     62                     63
                      A                      A                      A
 Frequencies --   1340.9471              1363.0400              1409.9780
 Red. masses --      6.1998                 1.7193                 2.8639
 Frc consts  --      6.5682                 1.8820                 3.3546
 IR Inten    --      0.8688                11.7994                 1.8942

                     64                     65                     66
                      A                      A                      A
 Frequencies --   1422.1347              1442.3167              1449.2937
 Red. masses --      1.8559                 1.2583                 2.8258
 Frc consts  --      2.2115                 1.5423                 3.4971
 IR Inten    --     31.7844                 0.3927                 4.8470

                     67                     68                     69
                      A                      A                      A
 Frequencies --   1453.7080              1455.7985              1506.0829
 Red. masses --      1.2752                 2.4339                 1.1175
 Frc consts  --      1.5878                 3.0392                 1.4935
 IR Inten    --      1.2196                 1.0610                 5.7012

                     70                     71                     72
                      A                      A                      A
 Frequencies --   1511.2832              1516.0605              1518.1171
 Red. masses --      1.4189                 1.1894                 1.0491
 Frc consts  --      1.9094                 1.6106                 1.4245
 IR Inten    --     15.1036                 3.2804                 0.6471

                     73                     74                     75
                      A                      A                      A
 Frequencies --   1518.2285              1523.6733              1530.0683
 Red. masses --      1.0564                 1.2180                 1.7894
 Frc consts  --      1.4346                 1.6660                 2.4681
 IR Inten    --     13.6101                17.4569                19.7982

                     76                     77                     78
                      A                      A                      A
 Frequencies --   1555.5431              1620.8361              1633.1279
 Red. masses --      2.8212                 5.2829                 5.4932
 Frc consts  --      4.0220                 8.1771                 8.6321
 IR Inten    --     11.7995                 0.3712                 2.1437

                     79                     80                     81
                      A                      A                      A
 Frequencies --   1674.9956              1847.8826              3042.9017
 Red. masses --      5.9421                 9.4382                 1.0406
 Frc consts  --      9.8224                18.9884                 5.6767
 IR Inten    --     10.7345               229.8419                34.6686

                     82                     83                     84
                      A                      A                      A
 Frequencies --   3051.5918              3060.2212              3069.8653
 Red. masses --      1.0384                 1.0654                 1.0637
 Frc consts  --      5.6971                 5.8787                 5.9059
 IR Inten    --     21.7519                11.8632                29.5818

                     85                     86                     87
                      A                      A                      A
 Frequencies --   3100.6042              3108.7264              3113.9247
 Red. masses --      1.0954                 1.0980                 1.1014
 Frc consts  --      6.2049                 6.2520                 6.2922
 IR Inten    --     19.8168                11.5774                 6.6600

                     88                     89                     90
                      A                      A                      A
 Frequencies --   3127.6660              3133.9080              3139.1012
 Red. masses --      1.1029                 1.1028                 1.0974
 Frc consts  --      6.3566                 6.3812                 6.3715
 IR Inten    --     15.1383                13.8264                15.4628

                     91                     92                     93
                      A                      A                      A
 Frequencies --   3172.0772              3182.0118              3202.1072
 Red. masses --      1.0898                 1.0876                 1.0943
 Frc consts  --      6.4606                 6.4881                 6.6111
 IR Inten    --     23.1247                13.8793                13.4485

                     94                     95                     96
                      A                      A                      A
 Frequencies --   3257.9805              3662.1696              3674.0862
 Red. masses --      1.0963                 1.0811                 1.0637
 Frc consts  --      6.8563                 8.5426                 8.4603
 IR Inten    --      6.1401                58.2817                45.0151

 - Thermochemistry -
 -------------------
 Temperature   298.150 Kelvin.  Pressure   1.00000 Atm.
 Atom     1 has atomic number  6 and mass  12.00000

 Molecular mass:   244.12118 amu.
 Principal axes and moments of inertia in atomic units:
                           1         2         3
     Eigenvalues --  2691.508396457.217627145.38390
           X            0.99992  -0.01214   0.00231
           Y            0.01215   0.99991  -0.00605
           Z           -0.00224   0.00608   0.99998
 This molecule is an asymmetric top.
 Rotational symmetry number  1.
 Warning -- assumption of classical behavior for rotation
           may cause significant error
 Rotational temperatures (Kelvin)      0.03218     0.01341     0.01212
 Rotational constants (GHZ):           0.67053     0.27949     0.25257
 Zero-point vibrational energy     737374.9 (Joules/Mol)
                                  176.23684 (Kcal/Mol)
 Warning -- explicit consideration of  26 degrees of freedom as
           vibrations may cause significant error
 Vibrational temperatures:     29.96    39.22    50.92    73.10    82.81
          (Kelvin)             95.34   135.70   183.71   198.50   265.39
                              302.00   315.88   375.25   422.44   466.48
                              483.90   574.95   591.32   651.33   687.36
                              702.65   743.81   798.91   812.77   827.04
                              885.52   925.40   972.43  1004.94  1044.18
                             1057.54  1069.16  1083.93  1174.41  1211.17
                             1253.62  1296.39  1357.13  1375.83  1385.50
                             1393.90  1417.36  1467.84  1485.59  1502.22
                             1512.54  1547.43  1555.67  1634.21  1653.97
                             1680.94  1717.01  1747.17  1773.00  1790.93
                             1824.60  1836.12  1887.42  1910.53  1920.24
                             1929.32  1961.11  2028.64  2046.13  2075.17
                             2085.21  2091.56  2094.57  2166.92  2174.40
                             2181.27  2184.23  2184.39  2192.23  2201.43
                             2238.08  2332.02  2349.71  2409.95  2658.69
                             4378.06  4390.56  4402.98  4416.85  4461.08
                             4472.76  4480.24  4500.01  4508.99  4516.47
                             4563.91  4578.21  4607.12  4687.51  5269.05
                             5286.19

 Zero-point correction=                           0.280851 (Hartree/Particle)
 Thermal correction to Energy=                    0.298149
 Thermal correction to Enthalpy=                  0.299093
 Thermal correction to Gibbs Free Energy=         0.232759
 Sum of electronic and zero-point Energies=           -802.878748
 Sum of electronic and thermal Energies=              -802.861451
 Sum of electronic and thermal Enthalpies=            -802.860507
 Sum of electronic and thermal Free Energies=         -802.926841

                     E (Thermal)             CV                S
                      KCal/Mol        Cal/Mol-Kelvin    Cal/Mol-Kelvin
 Total                  187.091             63.877            139.612
 Electronic               0.000              0.000              0.000
 Translational            0.889              2.981             42.378
 Rotational               0.889              2.981             33.184
 Vibrational            185.314             57.915             64.049
 Vibration     1          0.593              1.986              6.554
 Vibration     2          0.593              1.984              6.019
 Vibration     3          0.594              1.982              5.502
 Vibration     4          0.595              1.977              4.786
 Vibration     5          0.596              1.974              4.539
 Vibration     6          0.598              1.970              4.261
 Vibration     7          0.603              1.953              3.568
 Vibration     8          0.611              1.926              2.981
 Vibration     9          0.614              1.915              2.832
 Vibration    10          0.631              1.861              2.283
 Vibration    11          0.642              1.826              2.045
 Vibration    12          0.647              1.811              1.963
 Vibration    13          0.669              1.744              1.656
 Vibration    14          0.688              1.686              1.453
 Vibration    15          0.709              1.627              1.289
 Vibration    16          0.717              1.603              1.230
 Vibration    17          0.766              1.471              0.964
 Vibration    18          0.775              1.446              0.923
 Vibration    19          0.811              1.355              0.788
 Vibration    20          0.834              1.299              0.716
 Vibration    21          0.844              1.276              0.688
 Vibration    22          0.872              1.212              0.617
 Vibration    23          0.911              1.128              0.533
 Vibration    24          0.921              1.107              0.514
 Vibration    25          0.931              1.086              0.495
 Vibration    26          0.975              0.999              0.424

 Optimization completed.
    -- Stationary point found.
 Normal termination of Gaussian 16 at Fri Dec 11 21:31:16 2020.

 ----------------------------------------------------------------------
 # B3LYP/6-311++G(d,p) empiricaldispersion=gd3bj scf=xqc pop=npa geom=c
 heck
 ----------------------------------------------------------------------

 --------------------------------------
 CID_39096203_JID_8497_Energie_neutraal
 --------------------------------------
 Structure from the checkpoint file:  "JID_8497.chk"
 Charge =  0 Multiplicity = 1

 SCF Done:  E(RB3LYP) =  -803.385073977     A.U. after   16 cycles
 Normal termination of Gaussian 16 at Fri Dec 11 21:38:21 2020.

 ----------------------------------------------------------------------
 # B3LYP/6-311++G(d,p) empiricaldispersion=gd3bj scf=xqc pop=npa geom=c
 heck
 ----------------------------------------------------------------------

 ------------------------------------
 CID_39096203_JID_8497_Energie_kation
 ------------------------------------
 Structure from the checkpoint file:  "JID_8497.chk"
 Charge =  1 Multiplicity = 2

 SCF Done:  E(UB3LYP) =  -803.090497315     A.U. after   25 cycles
 Normal termination of Gaussian 16 at Fri Dec 11 21:54:27 2020.
 Gaussian 16:  ES64L-G16RevA.03 25-Dec-2016

 ----------------------------------------------------------------------
 # B3LYP/6-311++G(d,p) empiricaldispersion=gd3bj scf=xqc pop=npa geom=c
 heck
 ----------------------------------------------------------------------

 -----------------------------------
 CID_39096203_JID_8497_Energie_anion
 -----------------------------------
 Structure from the checkpoint file:  "JID_8497.chk"
 Charge = -1 Multiplicity = 2

                         Standard orientation:
 ---------------------------------------------------------------------
 Center     Atomic      Atomic             Coordinates (Angstroms)
 Number     Number       Type             X           Y           Z
 ---------------------------------------------------------------------
      1          6           0        4.992033   -0.963111   -0.281748
      2          6           0        3.593489   -0.399496   -0.225948
      3          6           0        2.820182   -0.517840    0.934558
      4          6           0        1.531529    0.012507    1.036195
      5          6           0        0.998223    0.700368   -0.075567
      6          6           0        1.761332    0.812241   -1.244863
      7          6           0        3.040449    0.268932   -1.322589
      8          6           0       -0.367120    1.254202   -0.050956
      9          6           0       -1.502431    0.907196   -0.777593
     10          6           0       -2.515948    1.763155   -0.281129
     11          7           0       -2.064412    2.590958    0.661323
     12          7           0       -0.762599    2.254357    0.789199
     13          6           0       -1.636769   -0.220714   -1.758384
     14          6           0       -1.562615   -1.593337   -1.059997
     15          6           0       -2.680132   -1.726250   -0.050770
     16          8           0       -3.845981   -1.475898   -0.262236
     17          8           0       -2.239336   -2.160114    1.158242
     18          6           0        0.721403   -0.190590    2.294808
     19          1           0        5.728894   -0.227168    0.066207
     20          1           0        5.092470   -1.848651    0.354372
     21          1           0        5.269833   -1.243523   -1.302955
     22          1           0        3.230470   -1.055383    1.786991
     23          1           0        1.339680    1.338366   -2.096564
     24          1           0        3.614432    0.367238   -2.240517
     25          1           0       -3.557377    1.792599   -0.574015
     26          1           0       -0.177779    2.782615    1.419053
     27          1           0       -2.596851   -0.141827   -2.276849
     28          1           0       -0.849381   -0.179098   -2.519065
     29          1           0       -1.682519   -2.397194   -1.797419
     30          1           0       -0.596477   -1.727507   -0.568130
     31          1           0       -3.028595   -2.198089    1.731954
     32          1           0        1.227980   -0.885110    2.971306
     33          1           0        0.564940    0.746519    2.842097
     34          1           0       -0.269854   -0.596481    2.065724
 ---------------------------------------------------------------------

 SCF Done:  E(UB3LYP) =  -803.375749727     A.U. after   33 cycles
 SCF Done:  E(UB3LYP) =  -803.375749728     a.u. after    1 cycles

 The electronic state is 2-A.
 Alpha  occ. eigenvalues --  -19.07770 -19.02018 -14.28141 -14.22896 -10.21032
 Alpha  occ. eigenvalues --  -10.10866 -10.08775 -10.08752 -10.08510 -10.08431
 Alpha  occ. eigenvalues --  -10.07986 -10.07775 -10.07413 -10.07095 -10.07002
 Alpha  occ. eigenvalues --  -10.06910 -10.06697 -10.06435  -1.01599  -0.94488
 Alpha  occ. eigenvalues --   -0.92665  -0.76738  -0.72299  -0.72243  -0.68403
 Alpha  occ. eigenvalues --   -0.67008  -0.65491  -0.59629  -0.58923  -0.57829
 Alpha  occ. eigenvalues --   -0.51473  -0.50772  -0.49862  -0.48424  -0.45940
 Alpha  occ. eigenvalues --   -0.43308  -0.40759  -0.39371  -0.38500  -0.37995
 Alpha  occ. eigenvalues --   -0.36914  -0.35111  -0.33682  -0.33401  -0.33000
 Alpha  occ. eigenvalues --   -0.32653  -0.32269  -0.31545  -0.31041  -0.30203
 Alpha  occ. eigenvalues --   -0.29619  -0.28829  -0.28079  -0.27807  -0.26423
 Alpha  occ. eigenvalues --   -0.24829  -0.24230  -0.24027  -0.23212  -0.19734
 Alpha  occ. eigenvalues --   -0.19007  -0.16455  -0.15422  -0.14858  -0.12989
 Alpha  occ. eigenvalues --    0.04201
 Alpha virt. eigenvalues --    0.06332   0.06639   0.06807   0.07348   0.08054
 Alpha virt. eigenvalues --    0.08553   0.08970   0.09225   0.09462   0.10035
 Alpha virt. eigenvalues --    0.10315   0.10933   0.11377   0.12042   0.12169

  Beta  occ. eigenvalues --  -19.07742 -19.01999 -14.28085 -14.22873 -10.21007
  Beta  occ. eigenvalues --  -10.10845 -10.08780 -10.08731 -10.08502 -10.08405
  Beta  occ. eigenvalues --  -10.07912 -10.07657 -10.07377 -10.07080 -10.06993
  Beta  occ. eigenvalues --  -10.06917 -10.06692 -10.06415  -1.01546  -0.94427
  Beta  occ. eigenvalues --   -0.92621  -0.76621  -0.72237  -0.72155  -0.68288
  Beta  occ. eigenvalues --   -0.66935  -0.65407  -0.59550  -0.58866  -0.57765
  Beta  occ. eigenvalues --   -0.51391  -0.50712  -0.49783  -0.48316  -0.45879
  Beta  occ. eigenvalues --   -0.43246  -0.40710  -0.39332  -0.38424  -0.37933
  Beta  occ. eigenvalues --   -0.36840  -0.35019  -0.33599  -0.33342  -0.32886
  Beta  occ. eigenvalues --   -0.32591  -0.32182  -0.31465  -0.30999  -0.30154
  Beta  occ. eigenvalues --   -0.29577  -0.28776  -0.28027  -0.27757  -0.26374
  Beta  occ. eigenvalues --   -0.24655  -0.24163  -0.23962  -0.23143  -0.19668
  Beta  occ. eigenvalues --   -0.18971  -0.16279  -0.15193  -0.14679  -0.12704
  Beta virt. eigenvalues --    0.06397   0.06992   0.07246   0.07595   0.07729
  Beta virt. eigenvalues --    0.08510   0.08726   0.09163   0.09371   0.09845
  Beta virt. eigenvalues --    0.10161   0.10530   0.11122   0.11600   0.12164

 Mulliken charges and spin densities:
               1          2
     1  C    1.601251  -2.125766
     2  C    0.005573   0.583665
     3  C   -0.373803  -0.176880
     4  C   -0.671710   0.973434
     5  C    0.733772   0.161854
     6  C    0.057384  -0.498883
     7  C   -0.895444   0.187297
     8  C   -0.317834  -0.148971
     9  C    0.115584   0.088601
    10  C   -0.103336  -0.134148
    11  N   -0.205327   0.050249
    12  N    0.001556   0.006105
    13  C   -0.528476   0.014579
    14  C    0.590561  -0.612097
    15  C   -0.232362  -0.091449
    16  O   -0.275682   0.019586
    17  O   -0.128905   0.021945
    18  C    0.048280  -0.671418
    19  H    0.163907  -0.010152
    20  H   -0.275647   0.426389
    21  H   -0.269800   0.419225
    22  H   -0.084054   0.229637
    23  H    0.005537   0.169645
    24  H   -0.268743   0.414387
    25  H    0.119281   0.045767
    26  H    0.160271   0.165304
    27  H    0.206744  -0.009411
    28  H   -0.027933   0.183095
    29  H   -0.452110   0.654139
    30  H    0.342576  -0.163364
    31  H   -0.068761   0.342472
    32  H   -0.395553   0.543687
    33  H   -0.068754   0.231262
    34  H    0.491958  -0.289784
 Sum of Mulliken charges =  -1.00000   1.00000

 Dipole moment (field-independent basis, Debye):
    X=             -0.7006    Y=              2.9856    Z=             -0.0994  Tot=              3.0683
 Quadrupole moment (field-independent basis, Debye-Ang):
   XX=           -180.2911   YY=           -148.3904   ZZ=           -142.1093
   XY=              9.0525   XZ=              5.0641   YZ=             -3.8135

 Summary of Natural Population Analysis:

                                       Natural Population
                Natural  -----------------------------------------------
    Atom  No    Charge         Core      Valence    Rydberg      Total
 -----------------------------------------------------------------------
      C    1   -0.29168      0.99964     2.28712    0.00493     3.29168
      C    2    0.00669      0.99952     1.98370    0.01010     2.99331
      C    3   -0.10303      0.99947     2.09435    0.00921     3.10303
      C    4    0.00543      0.99949     1.98530    0.00978     2.99457
      C    5   -0.04377      0.99945     2.03397    0.01035     3.04377
      C    6   -0.07641      0.99953     2.06766    0.00923     3.07641
      C    7   -0.10960      0.99951     2.10052    0.00957     3.10960
      C    8    0.08269      0.99946     1.90471    0.01313     2.91731
      C    9   -0.07178      0.99946     2.06189    0.01042     3.07178
      C   10   -0.01101      0.99957     1.99762    0.01381     3.01101
      N   11   -0.15695      0.99974     2.64443    0.01277     3.65695
      N   12   -0.16067      0.99965     2.64847    0.01255     3.66067
      C   13   -0.19516      0.99960     2.18519    0.01037     3.19516
      C   14   -0.23405      0.99957     2.22591    0.00857     3.23405
      C   15    0.41110      0.99972     1.56335    0.02583     2.58890
      O   16   -0.31125      0.99987     3.30537    0.00602     4.31125
      O   17   -0.34294      0.99988     3.33646    0.00660     4.34294
      C   18   -0.29791      0.99963     2.29250    0.00578     3.29791
      H   19    0.10118      0.00000     0.39774    0.00107     0.39882
      H   20    0.10402      0.00000     0.39451    0.00148     0.39598
      H   21    0.10344      0.00000     0.39502    0.00154     0.39656
      H   22    0.09752      0.00000     0.40143    0.00105     0.40248
      H   23    0.09984      0.00000     0.39891    0.00125     0.40016
      H   24    0.09869      0.00000     0.40037    0.00094     0.40131
      H   25    0.09850      0.00000     0.40048    0.00102     0.40150
      H   26    0.19768      0.00000     0.29989    0.00243     0.30232
      H   27    0.10680      0.00000     0.39216    0.00104     0.39320
      H   28    0.10823      0.00000     0.39058    0.00119     0.39177
      H   29    0.11422      0.00000     0.38408    0.00170     0.38578
      H   30    0.11374      0.00000     0.38436    0.00190     0.38626
      H   31    0.23959      0.00000     0.25604    0.00436     0.26041
      H   32    0.10186      0.00000     0.39718    0.00097     0.39814
      H   33    0.10215      0.00000     0.39641    0.00143     0.39785
      H   34    0.11285      0.00000     0.38548    0.00167     0.38715
 =======================================================================
   * Total *    0.00000     17.99275    46.79316    0.21409    65.00000

 Normal termination of Gaussian 16 at Fri Dec 11 22:15:58 2020.
