 Gaussian 16, Revision A.03,

 -----------------------------------------------------------
 # opt freq B3LYP/6-31G(d) empiricaldispersion=gd3bj scf=xqc
 -----------------------------------------------------------

 -------------------------------
 CID_146510880_JID_6229_neutraal
 -------------------------------
 Symbolic Z-matrix:
 Charge =  0 Multiplicity = 1

 SCF Done:  E(RB3LYP) =  -691.022260526     A.U. after   14 cycles
 SCF Done:  E(RB3LYP) =  -691.026999364     A.U. after   12 cycles
 SCF Done:  E(RB3LYP) =  -691.027858211     A.U. after   11 cycles
 SCF Done:  E(RB3LYP) =  -691.028328104     A.U. after   12 cycles
 SCF Done:  E(RB3LYP) =  -691.028435257     A.U. after   11 cycles
 SCF Done:  E(RB3LYP) =  -691.028471719     A.U. after   11 cycles
 SCF Done:  E(RB3LYP) =  -691.028474462     A.U. after    8 cycles
 SCF Done:  E(RB3LYP) =  -691.028474942     A.U. after    8 cycles
 SCF Done:  E(RB3LYP) =  -691.028474972     A.U. after    6 cycles
 Optimization completed.
    -- Stationary point found.
 Normal termination of Gaussian 16 at Thu Dec 10 21:15:10 2020.

 --------------------------------------------------------------------
 #N Geom=AllCheck Guess=TCheck SCRF=Check GenChk RB3LYP/6-31G(d) Freq
 --------------------------------------------------------------------

 Structure from the checkpoint file:  "JID_6229.chk"
 -------------------------------
 CID_146510880_JID_6229_neutraal
 -------------------------------
 Charge =  0 Multiplicity = 1

 SCF Done:  E(RB3LYP) =  -691.028474972     A.U. after    1 cycles

  Exact polarizability: 194.053  -8.370 153.401   3.517   5.730  99.222
 Approx polarizability: 269.134 -13.344 241.181  12.529  16.447 150.905

                      1                      2                      3
                      A                      A                      A
 Frequencies --     52.3101                63.3822                74.0908
 Red. masses --      2.9128                 3.4791                 2.8467
 Frc consts  --      0.0047                 0.0082                 0.0092
 IR Inten    --      0.3628                 0.9903                 0.0160

                      4                      5                      6
                      A                      A                      A
 Frequencies --    116.2254               161.1997               188.8342
 Red. masses --      3.0144                 3.5178                 1.8461
 Frc consts  --      0.0240                 0.0539                 0.0388
 IR Inten    --      1.9134                 0.3115                 0.7511

                      7                      8                      9
                      A                      A                      A
 Frequencies --    204.8741               236.4023               258.1716
 Red. masses --      2.5992                 1.3127                 1.3537
 Frc consts  --      0.0643                 0.0432                 0.0532
 IR Inten    --      2.8050                 0.2916                 0.3251

                     10                     11                     12
                      A                      A                      A
 Frequencies --    273.6758               279.6606               312.9340
 Red. masses --      2.3961                 3.4082                 2.4049
 Frc consts  --      0.1057                 0.1570                 0.1388
 IR Inten    --      0.7255                 0.5873                 0.0961

                     13                     14                     15
                      A                      A                      A
 Frequencies --    337.2862               361.9589               397.8421
 Red. masses --      2.3228                 2.4578                 3.4361
 Frc consts  --      0.1557                 0.1897                 0.3204
 IR Inten    --      2.9968                 1.4969                 3.6484

                     16                     17                     18
                      A                      A                      A
 Frequencies --    454.6690               471.2384               490.7508
 Red. masses --      5.0922                 3.9401                 3.5491
 Frc consts  --      0.6202                 0.5155                 0.5036
 IR Inten    --      3.0524                 0.0801                10.2632

                     19                     20                     21
                      A                      A                      A
 Frequencies --    518.5252               564.6286               572.5422
 Red. masses --      4.7645                 3.7726                 4.1708
 Frc consts  --      0.7548                 0.7086                 0.8055
 IR Inten    --      4.8967                 7.7857                 2.6225

                     22                     23                     24
                      A                      A                      A
 Frequencies --    591.5859               635.4017               652.0726
 Red. masses --      2.2635                 4.6018                 4.8472
 Frc consts  --      0.4667                 1.0946                 1.2143
 IR Inten    --      0.2959                 3.6770                 7.5956

                     25                     26                     27
                      A                      A                      A
 Frequencies --    690.0092               771.9350               798.6457
 Red. masses --      4.0251                 6.5035                 1.3496
 Frc consts  --      1.1291                 2.2833                 0.5072
 IR Inten    --      1.4583                 1.2662                 2.0659

                     28                     29                     30
                      A                      A                      A
 Frequencies --    823.6303               825.2400               841.3263
 Red. masses --      1.6804                 1.7658                 3.4333
 Frc consts  --      0.6716                 0.7085                 1.4318
 IR Inten    --      4.5401                16.7185                 0.2462

                     31                     32                     33
                      A                      A                      A
 Frequencies --    867.7881               896.2446               912.8050
 Red. masses --      2.1244                 1.9717                 2.1971
 Frc consts  --      0.9426                 0.9332                 1.0786
 IR Inten    --      0.8027                 3.8314                 2.3389

                     34                     35                     36
                      A                      A                      A
 Frequencies --    937.4706               947.5415               952.3174
 Red. masses --      2.3745                 1.3331                 1.8543
 Frc consts  --      1.2295                 0.7052                 0.9908
 IR Inten    --      3.0548                 0.4165                 2.9422

                     37                     38                     39
                      A                      A                      A
 Frequencies --    983.0431               984.1898              1028.3291
 Red. masses --      1.8646                 2.2337                 1.9531
 Frc consts  --      1.0617                 1.2748                 1.2168
 IR Inten    --      1.3500                 7.6576                 4.2286

                     40                     41                     42
                      A                      A                      A
 Frequencies --   1041.0030              1068.3190              1074.3659
 Red. masses --      1.9649                 2.4989                 2.0278
 Frc consts  --      1.2545                 1.6804                 1.3791
 IR Inten    --      5.6945                47.6897                 2.2934

                     43                     44                     45
                      A                      A                      A
 Frequencies --   1092.3336              1098.2480              1137.3315
 Red. masses --      2.0800                 1.8489                 1.5430
 Frc consts  --      1.4622                 1.3139                 1.1759
 IR Inten    --     28.3040                10.8072                 5.8392

                     46                     47                     48
                      A                      A                      A
 Frequencies --   1172.8392              1190.0088              1213.1948
 Red. masses --      1.9712                 2.2043                 2.8771
 Frc consts  --      1.5975                 1.8392                 2.4950
 IR Inten    --     23.6135                 7.9436                37.4752

                     49                     50                     51
                      A                      A                      A
 Frequencies --   1214.5565              1224.1002              1234.2415
 Red. masses --      2.5442                 2.4298                 1.5274
 Frc consts  --      2.2112                 2.1451                 1.3709
 IR Inten    --     13.0290                46.6349                14.6056

                     52                     53                     54
                      A                      A                      A
 Frequencies --   1273.7964              1278.3003              1307.5698
 Red. masses --      1.8154                 1.5832                 1.7062
 Frc consts  --      1.7355                 1.5243                 1.7187
 IR Inten    --     31.0323                 3.2170                 2.1080

                     55                     56                     57
                      A                      A                      A
 Frequencies --   1318.8579              1325.0082              1346.1787
 Red. masses --      1.4151                 1.5427                 1.6542
 Frc consts  --      1.4503                 1.5958                 1.7663
 IR Inten    --     11.4545                47.4990                 6.1817

                     58                     59                     60
                      A                      A                      A
 Frequencies --   1352.4452              1369.5499              1371.0758
 Red. masses --      3.0824                 1.3321                 1.5059
 Frc consts  --      3.3219                 1.4721                 1.6680
 IR Inten    --     20.3702                 5.7547                11.3764

                     61                     62                     63
                      A                      A                      A
 Frequencies --   1385.6937              1399.0545              1412.1464
 Red. masses --      1.5130                 1.9604                 1.6804
 Frc consts  --      1.7117                 2.2609                 1.9743
 IR Inten    --     24.1546                 8.0877                 8.7571

                     64                     65                     66
                      A                      A                      A
 Frequencies --   1432.8755              1439.0138              1506.7909
 Red. masses --      1.2270                 1.2725                 1.7535
 Frc consts  --      1.4842                 1.5525                 2.3457
 IR Inten    --      0.9193                 9.7396               269.3875

                     67                     68                     69
                      A                      A                      A
 Frequencies --   1513.6715              1516.6606              1518.1193
 Red. masses --      1.0760                 1.7382                 1.2071
 Frc consts  --      1.4525                 2.3558                 1.6391
 IR Inten    --      2.9625               125.3936                22.1340

                     70                     71                     72
                      A                      A                      A
 Frequencies --   1522.4052              1526.6653              1527.5151
 Red. masses --      1.4372                 1.0827                 1.0549
 Frc consts  --      1.9626                 1.4868                 1.4502
 IR Inten    --     99.5754                 1.5594                 3.8060

                     73                     74                     75
                      A                      A                      A
 Frequencies --   1532.2657              1533.7331              1540.1968
 Red. masses --      1.2202                 1.2700                 1.0861
 Frc consts  --      1.6879                 1.7601                 1.5180
 IR Inten    --      2.1838                33.9640                 2.9719

                     76                     77                     78
                      A                      A                      A
 Frequencies --   1553.9939              1615.7636              1655.2609
 Red. masses --      1.1444                 7.1255                 7.1962
 Frc consts  --      1.6283                10.9602                11.6168
 IR Inten    --     12.8592                12.6115               154.3085

                     79                     80                     81
                      A                      A                      A
 Frequencies --   3024.4490              3026.8686              3051.1805
 Red. masses --      1.0742                 1.0683                 1.0389
 Frc consts  --      5.7892                 5.7670                 5.6983
 IR Inten    --     67.3766                41.3843                16.0237

                     82                     83                     84
                      A                      A                      A
 Frequencies --   3053.3388              3055.2229              3062.4721
 Red. masses --      1.0354                 1.0592                 1.0634
 Frc consts  --      5.6872                 5.8253                 5.8760
 IR Inten    --     37.8699                28.1166                28.1947

                     85                     86                     87
                      A                      A                      A
 Frequencies --   3064.3573              3093.2262              3102.2074
 Red. masses --      1.0619                 1.1041                 1.1020
 Frc consts  --      5.8749                 6.2239                 6.2483
 IR Inten    --     34.1504                10.3006                22.2683

                     88                     89                     90
                      A                      A                      A
 Frequencies --   3118.4919              3119.9192              3121.3311
 Red. masses --      1.1038                 1.1027                 1.0991
 Frc consts  --      6.3243                 6.3241                 6.3091
 IR Inten    --     49.8287                37.1414                18.9284

                     91                     92                     93
                      A                      A                      A
 Frequencies --   3130.7995              3137.5695              3143.9944
 Red. masses --      1.0978                 1.1028                 1.1027
 Frc consts  --      6.3397                 6.3965                 6.4219
 IR Inten    --     42.3456                30.8464                18.7425

                     94                     95                     96
                      A                      A                      A
 Frequencies --   3146.0412              3168.9012              3201.4835
 Red. masses --      1.0925                 1.0882                 1.0939
 Frc consts  --      6.3709                 6.4385                 6.6057
 IR Inten    --      7.5512                29.4675                27.2567

 - Thermochemistry -
 -------------------
 Temperature   298.150 Kelvin.  Pressure   1.00000 Atm.
 Atom     1 has atomic number  6 and mass  12.00000

 Molecular mass:   218.14191 amu.
 Principal axes and moments of inertia in atomic units:
                           1         2         3
     Eigenvalues --  1868.523674177.984945388.01311
           X            0.99993   0.01143  -0.00248
           Y           -0.01147   0.99981  -0.01595
           Z            0.00229   0.01598   0.99987
 This molecule is an asymmetric top.
 Rotational symmetry number  1.
 Warning -- assumption of classical behavior for rotation
           may cause significant error
 Rotational temperatures (Kelvin)      0.04635     0.02073     0.01608
 Rotational constants (GHZ):           0.96586     0.43196     0.33495
 Zero-point vibrational energy     778695.9 (Joules/Mol)
                                  186.11278 (Kcal/Mol)
 Warning -- explicit consideration of  22 degrees of freedom as
           vibrations may cause significant error
 Vibrational temperatures:     75.26    91.19   106.60   167.22   231.93
          (Kelvin)            271.69   294.77   340.13   371.45   393.76
                              402.37   450.24   485.28   520.78   572.41
                              654.17   678.01   706.08   746.04   812.37
                              823.76   851.16   914.20   938.19   992.77
                             1110.64  1149.07  1185.02  1187.34  1210.48
                             1248.55  1289.50  1313.32  1348.81  1363.30
                             1370.17  1414.38  1416.03  1479.54  1497.77
                             1537.07  1545.77  1571.62  1580.13  1636.37
                             1687.45  1712.16  1745.52  1747.48  1761.21
                             1775.80  1832.71  1839.19  1881.30  1897.54
                             1906.39  1936.85  1945.87  1970.48  1972.67
                             1993.70  2012.93  2031.76  2061.59  2070.42
                             2167.94  2177.84  2182.14  2184.24  2190.40
                             2196.53  2197.75  2204.59  2206.70  2216.00
                             2235.85  2324.72  2381.55  4351.51  4354.99
                             4389.97  4393.07  4395.78  4406.21  4408.93
                             4450.46  4463.38  4486.81  4488.87  4490.90
                             4504.52  4514.26  4523.51  4526.45  4559.34
                             4606.22

 Zero-point correction=                           0.296590 (Hartree/Particle)
 Thermal correction to Energy=                    0.310714
 Thermal correction to Enthalpy=                  0.311659
 Thermal correction to Gibbs Free Energy=         0.256036
 Sum of electronic and zero-point Energies=           -690.731885
 Sum of electronic and thermal Energies=              -690.717760
 Sum of electronic and thermal Enthalpies=            -690.716816
 Sum of electronic and thermal Free Energies=         -690.772439

                     E (Thermal)             CV                S
                      KCal/Mol        Cal/Mol-Kelvin    Cal/Mol-Kelvin
 Total                  194.976             56.448            117.068
 Electronic               0.000              0.000              0.000
 Translational            0.889              2.981             42.043
 Rotational               0.889              2.981             32.109
 Vibrational            193.199             50.486             42.916
 Vibration     1          0.596              1.977              4.728
 Vibration     2          0.597              1.972              4.349
 Vibration     3          0.599              1.966              4.042
 Vibration     4          0.608              1.936              3.162
 Vibration     5          0.622              1.890              2.536
 Vibration     6          0.633              1.855              2.239
 Vibration     7          0.640              1.833              2.089
 Vibration     8          0.655              1.785              1.830
 Vibration     9          0.667              1.749              1.674
 Vibration    10          0.676              1.722              1.573
 Vibration    11          0.680              1.711              1.536
 Vibration    12          0.701              1.649              1.347
 Vibration    13          0.718              1.601              1.225
 Vibration    14          0.736              1.551              1.114
 Vibration    15          0.764              1.475              0.971
 Vibration    16          0.813              1.351              0.782
 Vibration    17          0.828              1.314              0.734
 Vibration    18          0.847              1.271              0.682
 Vibration    19          0.874              1.209              0.613
 Vibration    20          0.920              1.108              0.515
 Vibration    21          0.929              1.091              0.499
 Vibration    22          0.949              1.050              0.464

 Optimization completed.
    -- Stationary point found.
 Normal termination of Gaussian 16 at Thu Dec 10 21:29:07 2020.

 ----------------------------------------------------------------------
 # B3LYP/6-311++G(d,p) empiricaldispersion=gd3bj scf=xqc pop=npa geom=c
 heck
 ----------------------------------------------------------------------

 ---------------------------------------
 CID_146510880_JID_6229_Energie_neutraal
 ---------------------------------------
 Structure from the checkpoint file:  "JID_6229.chk"
 Charge =  0 Multiplicity = 1

 SCF Done:  E(RB3LYP) =  -691.207663917     A.U. after   15 cycles
 Normal termination of Gaussian 16 at Thu Dec 10 21:35:58 2020.

 ----------------------------------------------------------------------
 # B3LYP/6-311++G(d,p) empiricaldispersion=gd3bj scf=xqc pop=npa geom=c
 heck
 ----------------------------------------------------------------------

 -------------------------------------
 CID_146510880_JID_6229_Energie_kation
 -------------------------------------
 Structure from the checkpoint file:  "JID_6229.chk"
 Charge =  1 Multiplicity = 2

 SCF Done:  E(UB3LYP) =  -690.949134805     A.U. after   21 cycles
 Normal termination of Gaussian 16 at Thu Dec 10 21:49:13 2020.
 Gaussian 16:  ES64L-G16RevA.03 25-Dec-2016

 ----------------------------------------------------------------------
 # B3LYP/6-311++G(d,p) empiricaldispersion=gd3bj scf=xqc pop=npa geom=c
 heck
 ----------------------------------------------------------------------

 ------------------------------------
 CID_146510880_JID_6229_Energie_anion
 ------------------------------------
 Structure from the checkpoint file:  "JID_6229.chk"
 Charge = -1 Multiplicity = 2

                         Standard orientation:
 ---------------------------------------------------------------------
 Center     Atomic      Atomic             Coordinates (Angstroms)
 Number     Number       Type             X           Y           Z
 ---------------------------------------------------------------------
      1          6           0       -3.625097   -1.691543    0.523748
      2          6           0       -3.299809   -0.759318   -0.655201
      3          6           0       -2.261831    0.274345   -0.297063
      4          6           0       -0.921694   -0.080262   -0.183910
      5          6           0        0.038122    0.889880    0.194689
      6          7           0       -0.288561    2.175295    0.382592
      7          6           0       -1.576996    2.516857    0.251757
      8          6           0       -2.590260    1.616885   -0.053736
      9          7           0        1.352108    0.512612    0.384275
     10          6           0        2.462988    1.437096    0.165762
     11          6           0        3.364628    0.663296   -0.804202
     12          6           0        3.205694   -0.792558   -0.336185
     13          6           0        1.748206   -0.892455    0.185766
     14          6           0        0.812237   -1.503419   -0.865292
     15          8           0       -0.549826   -1.380116   -0.459343
     16          6           0        1.651089   -1.677279    1.499799
     17          1           0       -2.729427   -2.234794    0.839541
     18          1           0       -4.389756   -2.423932    0.241526
     19          1           0       -3.997807   -1.120277    1.380961
     20          1           0       -2.935231   -1.361853   -1.495144
     21          1           0       -4.211309   -0.250805   -0.989453
     22          1           0       -1.803461    3.569746    0.409669
     23          1           0       -3.621661    1.948209   -0.128847
     24          1           0        2.080449    2.381939   -0.223494
     25          1           0        2.986099    1.649682    1.108867
     26          1           0        4.405010    1.002234   -0.789013
     27          1           0        2.986517    0.780035   -1.826663
     28          1           0        3.900883   -1.006478    0.483175
     29          1           0        3.404296   -1.522781   -1.128212
     30          1           0        0.957774   -1.002899   -1.833382
     31          1           0        0.992022   -2.574323   -0.984232
     32          1           0        2.039312   -2.695199    1.372107
     33          1           0        2.234206   -1.177328    2.279125
     34          1           0        0.612211   -1.744746    1.834562
 ---------------------------------------------------------------------

 SCF Done:  E(UB3LYP) =  -691.194005132     A.U. after   33 cycles
 SCF Done:  E(UB3LYP) =  -691.194005132     a.u. after    1 cycles

 The electronic state is 2-A.
 Alpha  occ. eigenvalues --  -19.05383 -14.22733 -14.19882 -10.14075 -10.12673
 Alpha  occ. eigenvalues --  -10.12590 -10.12167 -10.10127 -10.09958 -10.08806
 Alpha  occ. eigenvalues --  -10.07773 -10.07523 -10.07492 -10.06956 -10.06466
 Alpha  occ. eigenvalues --  -10.06212  -0.97355  -0.87458  -0.82466  -0.72410
 Alpha  occ. eigenvalues --   -0.71000  -0.68096  -0.65165  -0.63795  -0.60000
 Alpha  occ. eigenvalues --   -0.57516  -0.55024  -0.53499  -0.51277  -0.47888
 Alpha  occ. eigenvalues --   -0.45720  -0.44067  -0.41563  -0.40638  -0.38392
 Alpha  occ. eigenvalues --   -0.36681  -0.36145  -0.34688  -0.33913  -0.33542
 Alpha  occ. eigenvalues --   -0.33427  -0.31718  -0.30990  -0.30428  -0.29508
 Alpha  occ. eigenvalues --   -0.28486  -0.27924  -0.27682  -0.26388  -0.25631
 Alpha  occ. eigenvalues --   -0.25055  -0.24706  -0.24487  -0.23129  -0.22097
 Alpha  occ. eigenvalues --   -0.19214  -0.16193  -0.14944  -0.10067   0.04323
 Alpha virt. eigenvalues --    0.05949   0.07092   0.07539   0.07756   0.08097
 Alpha virt. eigenvalues --    0.08790   0.08986   0.09664   0.09902   0.10199
 Alpha virt. eigenvalues --    0.10706   0.10993   0.11668   0.11941   0.13070

  Beta  occ. eigenvalues --  -19.05383 -14.22728 -14.19848 -10.14080 -10.12653
  Beta  occ. eigenvalues --  -10.12556 -10.12169 -10.10118 -10.09942 -10.08778
  Beta  occ. eigenvalues --  -10.07764 -10.07492 -10.07467 -10.06958 -10.06440
  Beta  occ. eigenvalues --  -10.06186  -0.97341  -0.87438  -0.82427  -0.72355
  Beta  occ. eigenvalues --   -0.70970  -0.68070  -0.65127  -0.63755  -0.59952
  Beta  occ. eigenvalues --   -0.57465  -0.54973  -0.53461  -0.51224  -0.47832
  Beta  occ. eigenvalues --   -0.45678  -0.44044  -0.41516  -0.40604  -0.38359
  Beta  occ. eigenvalues --   -0.36647  -0.36109  -0.34651  -0.33886  -0.33503
  Beta  occ. eigenvalues --   -0.33389  -0.31680  -0.30949  -0.30377  -0.29466
  Beta  occ. eigenvalues --   -0.28447  -0.27894  -0.27628  -0.26346  -0.25594
  Beta  occ. eigenvalues --   -0.25018  -0.24677  -0.24448  -0.23096  -0.22041
  Beta  occ. eigenvalues --   -0.19160  -0.16148  -0.14841  -0.10003
  Beta virt. eigenvalues --    0.06358   0.06988   0.07438   0.08042   0.08366
  Beta virt. eigenvalues --    0.08543   0.09039   0.09360   0.10006   0.10041
  Beta virt. eigenvalues --    0.10787   0.11055   0.11300   0.11984   0.12221

 Mulliken charges and spin densities:
               1          2
     1  C    0.469905  -1.073401
     2  C   -0.168955  -0.246013
     3  C    0.089148   1.151253
     4  C   -0.974090   0.974355
     5  C    1.534147  -2.568745
     6  N   -0.108649   0.003911
     7  C    0.564201  -0.565942
     8  C   -1.482794   0.865938
     9  N    0.446415   0.001341
    10  C   -0.032391  -0.180982
    11  C    0.380223  -0.803841
    12  C    0.502443  -0.895505
    13  C   -2.697772   2.819141
    14  C    1.486160  -1.957102
    15  O   -0.076030   0.024857
    16  C    1.122540  -1.536855
    17  H   -0.076235   0.255500
    18  H   -0.258449   0.383654
    19  H    0.032829   0.093235
    20  H    0.023980   0.149716
    21  H   -0.266424   0.424420
    22  H    0.114076   0.055225
    23  H   -0.069937   0.212368
    24  H    0.230091  -0.050753
    25  H   -0.094823   0.240636
    26  H   -0.344865   0.526353
    27  H   -0.035870   0.179403
    28  H   -0.238052   0.414597
    29  H   -0.544548   0.720586
    30  H   -0.030922   0.213674
    31  H   -0.326096   0.529134
    32  H   -0.326117   0.483997
    33  H   -0.073033   0.230940
    34  H    0.229895  -0.075097
 Sum of Mulliken charges =  -1.00000   1.00000

 Dipole moment (field-independent basis, Debye):
    X=             -2.6971    Y=              4.1058    Z=              0.8545  Tot=              4.9862
 Quadrupole moment (field-independent basis, Debye-Ang):
   XX=           -178.5647   YY=           -146.0841   ZZ=           -129.1980
   XY=              1.2325   XZ=              0.9779   YZ=             -3.0515

 Summary of Natural Population Analysis:

                                       Natural Population
                Natural  -----------------------------------------------
    Atom  No    Charge         Core      Valence    Rydberg      Total
 -----------------------------------------------------------------------
      C    1   -0.28141      0.99966     2.27653    0.00522     3.28141
      C    2   -0.19975      0.99961     2.19095    0.00918     3.19975
      C    3   -0.00837      0.99948     1.99751    0.01138     3.00837
      C    4    0.12349      0.99928     1.86500    0.01224     2.87651
      C    5    0.18611      0.99947     1.80044    0.01398     2.81389
      N    6   -0.25517      0.99968     2.74568    0.00981     3.75517
      C    7    0.02453      0.99959     1.96161    0.01426     2.97547
      C    8   -0.14233      0.99952     2.13449    0.00832     3.14233
      N    9   -0.25501      0.99962     2.74402    0.01137     3.75501
      C   10   -0.08022      0.99962     2.06990    0.01070     3.08022
      C   11   -0.19466      0.99963     2.18678    0.00825     3.19466
      C   12   -0.19111      0.99958     2.18132    0.01020     3.19111
      C   13    0.05758      0.99957     1.92772    0.01512     2.94242
      C   14   -0.00938      0.99948     1.99664    0.01326     3.00938
      O   15   -0.27945      0.99987     3.27018    0.00941     4.27945
      C   16   -0.28659      0.99961     2.27976    0.00723     3.28659
      H   17    0.10382      0.00000     0.39485    0.00133     0.39618
      H   18    0.09749      0.00000     0.40137    0.00114     0.40251
      H   19    0.09478      0.00000     0.40423    0.00098     0.40522
      H   20    0.10747      0.00000     0.39098    0.00155     0.39253
      H   21    0.09712      0.00000     0.40166    0.00121     0.40288
      H   22    0.08608      0.00000     0.41289    0.00103     0.41392
      H   23    0.10062      0.00000     0.39838    0.00100     0.39938
      H   24    0.10913      0.00000     0.38929    0.00158     0.39087
      H   25    0.08945      0.00000     0.40931    0.00124     0.41055
      H   26    0.10311      0.00000     0.39560    0.00130     0.39689
      H   27    0.09661      0.00000     0.40203    0.00136     0.40339
      H   28    0.10233      0.00000     0.39574    0.00193     0.39767
      H   29    0.10809      0.00000     0.38922    0.00269     0.39191
      H   30    0.08759      0.00000     0.41060    0.00181     0.41241
      H   31    0.09945      0.00000     0.39874    0.00181     0.40055
      H   32    0.10159      0.00000     0.39719    0.00122     0.39841
      H   33    0.10206      0.00000     0.39680    0.00114     0.39794
      H   34    0.10493      0.00000     0.39374    0.00133     0.39507
 =======================================================================
   * Total *   -0.00000     15.99326    42.81115    0.19559    59.00000

 Normal termination of Gaussian 16 at Thu Dec 10 22:10:43 2020.
