 Gaussian 16, Revision A.03,

 -----------------------------------------------------------
 # opt freq B3LYP/6-31G(d) empiricaldispersion=gd3bj scf=xqc
 -----------------------------------------------------------

 ------------------------------
 CID_66329404_JID_6233_neutraal
 ------------------------------
 Symbolic Z-matrix:
 Charge =  0 Multiplicity = 1

 SCF Done:  E(RB3LYP) =  -744.112991041     A.U. after   14 cycles
 SCF Done:  E(RB3LYP) =  -744.122203665     A.U. after   12 cycles
 SCF Done:  E(RB3LYP) =  -744.126385744     A.U. after   12 cycles
 SCF Done:  E(RB3LYP) =  -744.128578753     A.U. after   14 cycles
 SCF Done:  E(RB3LYP) =  -744.129995375     A.U. after   11 cycles
 SCF Done:  E(RB3LYP) =  -744.130505468     A.U. after   11 cycles
 SCF Done:  E(RB3LYP) =  -744.130765743     A.U. after   12 cycles
 SCF Done:  E(RB3LYP) =  -744.130822327     A.U. after   10 cycles
 SCF Done:  E(RB3LYP) =  -744.130858842     A.U. after   11 cycles
 SCF Done:  E(RB3LYP) =  -744.130874526     A.U. after   10 cycles
 SCF Done:  E(RB3LYP) =  -744.131667309     A.U. after   10 cycles
 SCF Done:  E(RB3LYP) =  -744.131670475     A.U. after   10 cycles
 SCF Done:  E(RB3LYP) =  -744.131670851     A.U. after    8 cycles
 SCF Done:  E(RB3LYP) =  -744.131670903     A.U. after    7 cycles
 SCF Done:  E(RB3LYP) =  -744.131670910     A.U. after    7 cycles
 Optimization completed.
    -- Stationary point found.
 Normal termination of Gaussian 16 at Thu Dec 10 21:50:45 2020.

 --------------------------------------------------------------------
 #N Geom=AllCheck Guess=TCheck SCRF=Check GenChk RB3LYP/6-31G(d) Freq
 --------------------------------------------------------------------

 Structure from the checkpoint file:  "JID_6233.chk"
 ------------------------------
 CID_66329404_JID_6233_neutraal
 ------------------------------
 Charge =  0 Multiplicity = 1

 SCF Done:  E(RB3LYP) =  -744.131670910     A.U. after    1 cycles

  Exact polarizability: 195.562  -6.733 121.050  11.829  13.480 105.957
 Approx polarizability: 256.652 -14.214 184.604  20.494  35.810 166.497

                      1                      2                      3
                      A                      A                      A
 Frequencies --     20.9086                35.4339                51.3829
 Red. masses --      4.6431                 4.4220                 3.4550
 Frc consts  --      0.0012                 0.0033                 0.0054
 IR Inten    --      0.6199                 0.9930                 0.5547

                      4                      5                      6
                      A                      A                      A
 Frequencies --     65.1313                92.0310                99.0935
 Red. masses --      3.8726                 3.3454                 3.2446
 Frc consts  --      0.0097                 0.0167                 0.0188
 IR Inten    --      0.5206                 1.7722                 0.1864

                      7                      8                      9
                      A                      A                      A
 Frequencies --    157.7083               179.5502               212.9171
 Red. masses --      4.5736                 2.8090                 2.8170
 Frc consts  --      0.0670                 0.0534                 0.0752
 IR Inten    --      0.5220                 1.3262                 4.7037

                     10                     11                     12
                      A                      A                      A
 Frequencies --    226.8104               256.5999               257.3953
 Red. masses --      2.4331                 3.0750                 2.7777
 Frc consts  --      0.0737                 0.1193                 0.1084
 IR Inten    --      3.8835                 2.1472                 2.0469

                     13                     14                     15
                      A                      A                      A
 Frequencies --    292.9817               304.0293               315.7338
 Red. masses --      1.9884                 2.8570                 2.8036
 Frc consts  --      0.1006                 0.1556                 0.1647
 IR Inten    --      7.2078                18.4668                 5.3830

                     16                     17                     18
                      A                      A                      A
 Frequencies --    360.3242               389.9417               402.3234
 Red. masses --      1.3947                 2.9566                 1.2455
 Frc consts  --      0.1067                 0.2649                 0.1188
 IR Inten    --     50.0011                 6.8684               139.3405

                     19                     20                     21
                      A                      A                      A
 Frequencies --    449.3949               476.6213               501.2540
 Red. masses --      3.5897                 2.6262                 4.2112
 Frc consts  --      0.4271                 0.3515                 0.6234
 IR Inten    --     11.0645                17.0530                 3.3726

                     22                     23                     24
                      A                      A                      A
 Frequencies --    530.4281               559.2901               630.2053
 Red. masses --      2.0451                 5.2470                 4.7162
 Frc consts  --      0.3390                 0.9670                 1.1036
 IR Inten    --      7.6337                 1.8010                 2.2084

                     25                     26                     27
                      A                      A                      A
 Frequencies --    670.1885               706.5722               745.0793
 Red. masses --      3.7094                10.1041                 2.0350
 Frc consts  --      0.9816                 2.9721                 0.6656
 IR Inten    --     22.7452                 1.0581                14.2914

                     28                     29                     30
                      A                      A                      A
 Frequencies --    775.9969               806.0030               808.4572
 Red. masses --      2.0195                 1.4684                 1.1362
 Frc consts  --      0.7165                 0.5620                 0.4376
 IR Inten    --      0.6435                 7.3891                 0.7116

                     31                     32                     33
                      A                      A                      A
 Frequencies --    825.5105               840.6241               844.4904
 Red. masses --      2.5461                 1.7283                 1.8551
 Frc consts  --      1.0223                 0.7196                 0.7795
 IR Inten    --     48.8260                 3.3872                 8.2426

                     34                     35                     36
                      A                      A                      A
 Frequencies --    879.5637               918.9929               940.2665
 Red. masses --      2.9529                 2.2902                 3.7808
 Frc consts  --      1.3460                 1.1396                 1.9694
 IR Inten    --      0.8636                 6.2675                 5.9655

                     37                     38                     39
                      A                      A                      A
 Frequencies --    972.5538               991.4281              1000.9807
 Red. masses --      2.7178                 1.4433                 8.7195
 Frc consts  --      1.5146                 0.8358                 5.1475
 IR Inten    --      2.6708                 0.8204                15.1005

                     40                     41                     42
                      A                      A                      A
 Frequencies --   1024.7152              1032.4207              1065.2194
 Red. masses --      2.0678                 2.3983                 1.3978
 Frc consts  --      1.2793                 1.5061                 0.9345
 IR Inten    --     15.2996                81.8161                36.8090

                     43                     44                     45
                      A                      A                      A
 Frequencies --   1073.3228              1078.7003              1086.8533
 Red. masses --      3.5368                 3.0710                 1.3653
 Frc consts  --      2.4006                 2.1054                 0.9502
 IR Inten    --     70.7429                31.7741                 2.5821

                     46                     47                     48
                      A                      A                      A
 Frequencies --   1113.9239              1131.8253              1160.5008
 Red. masses --      2.1901                 1.9612                 1.1017
 Frc consts  --      1.6011                 1.4802                 0.8742
 IR Inten    --      7.9904                43.5530                 0.1878

                     49                     50                     51
                      A                      A                      A
 Frequencies --   1179.8089              1198.8677              1213.1816
 Red. masses --      1.7436                 1.7368                 1.4057
 Frc consts  --      1.4299                 1.4708                 1.2189
 IR Inten    --     48.6968                 1.6078                 3.0079

                     52                     53                     54
                      A                      A                      A
 Frequencies --   1225.9355              1249.7871              1263.7418
 Red. masses --      1.8122                 1.7879                 1.5549
 Frc consts  --      1.6047                 1.6454                 1.4631
 IR Inten    --    173.4092                14.5594                72.5638

                     55                     56                     57
                      A                      A                      A
 Frequencies --   1293.8456              1318.9983              1339.6043
 Red. masses --      1.5202                 2.0874                 3.0131
 Frc consts  --      1.4994                 2.1397                 3.1858
 IR Inten    --    150.9202                49.8258                96.8559

                     58                     59                     60
                      A                      A                      A
 Frequencies --   1359.4166              1377.8682              1386.0851
 Red. masses --      1.7086                 1.2994                 1.7189
 Frc consts  --      1.8604                 1.4535                 1.9457
 IR Inten    --     56.3678                16.0180                20.9301

                     61                     62                     63
                      A                      A                      A
 Frequencies --   1400.5022              1411.0327              1430.5301
 Red. masses --      1.5005                 1.2961                 1.3125
 Frc consts  --      1.7340                 1.5204                 1.5825
 IR Inten    --      1.8570                12.3163                36.0442

                     64                     65                     66
                      A                      A                      A
 Frequencies --   1434.0174              1448.1410              1457.1745
 Red. masses --      1.3913                 1.4845                 1.4855
 Frc consts  --      1.6857                 1.8343                 1.8584
 IR Inten    --     53.1066                 8.0890                17.9992

                     67                     68                     69
                      A                      A                      A
 Frequencies --   1491.9003              1501.6051              1508.0508
 Red. masses --      1.1312                 1.1808                 1.2938
 Frc consts  --      1.4835                 1.5686                 1.7336
 IR Inten    --     10.7197                22.1947                38.9596

                     70                     71                     72
                      A                      A                      A
 Frequencies --   1515.6601              1532.7769              1537.5043
 Red. masses --      1.0523                 1.3314                 1.3476
 Frc consts  --      1.4243                 1.8429                 1.8769
 IR Inten    --      3.6600                69.8984                24.2509

                     73                     74                     75
                      A                      A                      A
 Frequencies --   1542.5292              1562.1876              1623.9670
 Red. masses --      1.3719                 3.2936                 4.2547
 Frc consts  --      1.9233                 4.7357                 6.6110
 IR Inten    --     45.0279                87.3976                47.3090

                     76                     77                     78
                      A                      A                      A
 Frequencies --   1661.5200              3059.3831              3068.4624
 Red. masses --      5.7996                 1.0368                 1.0654
 Frc consts  --      9.4332                 5.7176                 5.9103
 IR Inten    --   1067.4412                21.9577                41.7420

                     79                     80                     81
                      A                      A                      A
 Frequencies --   3091.9165              3109.7443              3124.1311
 Red. masses --      1.0594                 1.0848                 1.1020
 Frc consts  --      5.9670                 6.1811                 6.3373
 IR Inten    --     39.9131                14.3703                28.8441

                     82                     83                     84
                      A                      A                      A
 Frequencies --   3136.8800              3140.4589              3144.3361
 Red. masses --      1.1000                 1.1035                 1.0550
 Frc consts  --      6.3771                 6.4121                 6.1456
 IR Inten    --     10.7673                 9.9384                21.7829

                     85                     86                     87
                      A                      A                      A
 Frequencies --   3153.2356              3158.6530              3163.8758
 Red. masses --      1.0855                 1.1062                 1.0618
 Frc consts  --      6.3592                 6.5028                 6.2623
 IR Inten    --     13.0422                33.8479                12.7350

                     88                     89                     90
                      A                      A                      A
 Frequencies --   3178.8964              3218.3466              3218.8766
 Red. masses --      1.0906                 1.0922                 1.1166
 Frc consts  --      6.4934                 6.6653                 6.8163
 IR Inten    --     33.6171                 4.1701                16.4705

                     91                     92                     93
                      A                      A                      A
 Frequencies --   3250.4275              3644.0919              3715.0409
 Red. masses --      1.1130                 1.0771                 1.0658
 Frc consts  --      6.9285                 8.4275                 8.6670
 IR Inten    --     13.8120                28.3731                 9.0125

 - Thermochemistry -
 -------------------
 Temperature   298.150 Kelvin.  Pressure   1.00000 Atm.
 Atom     1 has atomic number  6 and mass  12.00000

 Molecular mass:   223.13208 amu.
 Principal axes and moments of inertia in atomic units:
                           1         2         3
     Eigenvalues --  1575.988227545.992578088.88441
           X            0.99994   0.00267   0.01028
           Y           -0.00249   0.99985  -0.01708
           Z           -0.01033   0.01706   0.99980
 This molecule is an asymmetric top.
 Rotational symmetry number  1.
 Warning -- assumption of classical behavior for rotation
           may cause significant error
 Rotational temperatures (Kelvin)      0.05496     0.01148     0.01071
 Rotational constants (GHZ):           1.14515     0.23917     0.22311
 Zero-point vibrational energy     738123.9 (Joules/Mol)
                                  176.41584 (Kcal/Mol)
 Warning -- explicit consideration of  23 degrees of freedom as
           vibrations may cause significant error
 Vibrational temperatures:     30.08    50.98    73.93    93.71   132.41
          (Kelvin)            142.57   226.91   258.33   306.34   326.33
                              369.19   370.33   421.54   437.43   454.27
                              518.43   561.04   578.85   646.58   685.75
                              721.19   763.17   804.69   906.72   964.25
                             1016.60  1072.00  1116.49  1159.66  1163.19
                             1187.73  1209.47  1215.03  1265.50  1322.23
                             1352.83  1399.29  1426.44  1440.19  1474.34
                             1485.42  1532.61  1544.27  1552.01  1563.74
                             1602.69  1628.44  1669.70  1697.48  1724.90
                             1745.50  1763.85  1798.16  1818.24  1861.56
                             1897.74  1927.39  1955.90  1982.45  1994.27
                             2015.01  2030.16  2058.21  2063.23  2083.55
                             2096.55  2146.51  2160.47  2169.75  2180.70
                             2205.32  2212.13  2219.36  2247.64  2336.53
                             2390.56  4401.77  4414.83  4448.58  4474.23
                             4494.93  4513.27  4518.42  4524.00  4536.80
                             4544.60  4552.11  4573.72  4630.48  4631.25
                             4676.64  5243.04  5345.12

 Zero-point correction=                           0.281137 (Hartree/Particle)
 Thermal correction to Energy=                    0.297089
 Thermal correction to Enthalpy=                  0.298033
 Thermal correction to Gibbs Free Energy=         0.236124
 Sum of electronic and zero-point Energies=           -743.850534
 Sum of electronic and thermal Energies=              -743.834582
 Sum of electronic and thermal Enthalpies=            -743.833638
 Sum of electronic and thermal Free Energies=         -743.895547

                     E (Thermal)             CV                S
                      KCal/Mol        Cal/Mol-Kelvin    Cal/Mol-Kelvin
 Total                  186.426             59.960            130.297
 Electronic               0.000              0.000              0.000
 Translational            0.889              2.981             42.110
 Rotational               0.889              2.981             32.931
 Vibrational            184.649             53.998             55.256
 Vibration     1          0.593              1.986              6.546
 Vibration     2          0.594              1.982              5.499
 Vibration     3          0.596              1.977              4.763
 Vibration     4          0.597              1.971              4.295
 Vibration     5          0.602              1.955              3.616
 Vibration     6          0.604              1.950              3.472
 Vibration     7          0.621              1.894              2.577
 Vibration     8          0.629              1.867              2.333
 Vibration     9          0.644              1.821              2.019
 Vibration    10          0.650              1.800              1.904
 Vibration    11          0.666              1.752              1.685
 Vibration    12          0.667              1.750              1.679
 Vibration    13          0.688              1.687              1.457
 Vibration    14          0.695              1.666              1.395
 Vibration    15          0.703              1.644              1.332
 Vibration    16          0.735              1.554              1.121
 Vibration    17          0.758              1.492              1.000
 Vibration    18          0.768              1.465              0.954
 Vibration    19          0.808              1.362              0.798
 Vibration    20          0.833              1.302              0.719
 Vibration    21          0.857              1.247              0.655
 Vibration    22          0.885              1.183              0.586
 Vibration    23          0.915              1.119              0.525

 Optimization completed.
    -- Stationary point found.
 Normal termination of Gaussian 16 at Thu Dec 10 22:01:50 2020.

 ----------------------------------------------------------------------
 # B3LYP/6-311++G(d,p) empiricaldispersion=gd3bj scf=xqc pop=npa geom=c
 heck
 ----------------------------------------------------------------------

 --------------------------------------
 CID_66329404_JID_6233_Energie_neutraal
 --------------------------------------
 Structure from the checkpoint file:  "JID_6233.chk"
 Charge =  0 Multiplicity = 1

 SCF Done:  E(RB3LYP) =  -744.348484789     A.U. after   15 cycles
 Normal termination of Gaussian 16 at Thu Dec 10 22:07:33 2020.

 ----------------------------------------------------------------------
 # B3LYP/6-311++G(d,p) empiricaldispersion=gd3bj scf=xqc pop=npa geom=c
 heck
 ----------------------------------------------------------------------

 ------------------------------------
 CID_66329404_JID_6233_Energie_kation
 ------------------------------------
 Structure from the checkpoint file:  "JID_6233.chk"
 Charge =  1 Multiplicity = 2

 SCF Done:  E(UB3LYP) =  -744.055105511     A.U. after   23 cycles
 Normal termination of Gaussian 16 at Thu Dec 10 22:19:51 2020.
 Gaussian 16:  ES64L-G16RevA.03 25-Dec-2016

 ----------------------------------------------------------------------
 # B3LYP/6-311++G(d,p) empiricaldispersion=gd3bj scf=xqc pop=npa geom=c
 heck
 ----------------------------------------------------------------------

 -----------------------------------
 CID_66329404_JID_6233_Energie_anion
 -----------------------------------
 Structure from the checkpoint file:  "JID_6233.chk"
 Charge = -1 Multiplicity = 2

                         Standard orientation:
 ---------------------------------------------------------------------
 Center     Atomic      Atomic             Coordinates (Angstroms)
 Number     Number       Type             X           Y           Z
 ---------------------------------------------------------------------
      1          6           0       -4.784717    0.937946   -1.281876
      2          6           0       -4.692281    0.339927    0.112914
      3          8           0       -3.445321    0.681139    0.755584
      4          6           0       -2.353808   -0.042434    0.448528
      5          7           0       -2.455838   -1.067055   -0.411569
      6          6           0       -1.318903   -1.727351   -0.644791
      7          7           0       -0.113173   -1.490638   -0.139744
      8          6           0       -0.031531   -0.454107    0.727508
      9          6           0       -1.155707    0.317792    1.059160
     10          7           0        1.192362   -0.196073    1.270314
     11          6           0        2.412210   -0.879373    0.871926
     12          6           0        2.959561   -0.555212   -0.532830
     13          6           0        3.301592    0.895041   -0.831771
     14          6           0        2.378910    2.064118   -0.602433
     15          6           0        3.623731    1.915845    0.239476
     16          8           0        4.120453   -1.370291   -0.734091
     17          1           0       -4.627897    2.021086   -1.248837
     18          1           0       -5.777189    0.744975   -1.705345
     19          1           0       -4.035076    0.489142   -1.938428
     20          1           0       -5.451543    0.760342    0.777285
     21          1           0       -4.797474   -0.746856    0.083806
     22          1           0       -1.388045   -2.561901   -1.340669
     23          1           0       -1.113980    1.148005    1.755266
     24          1           0        1.271342    0.627110    1.847153
     25          1           0        3.175540   -0.642172    1.621385
     26          1           0        2.243329   -1.958047    0.900987
     27          1           0        2.232083   -0.913403   -1.266109
     28          1           0        3.905274    0.961828   -1.735035
     29          1           0        2.366046    2.844354   -1.358204
     30          1           0        1.414883    1.883238   -0.141524
     31          1           0        3.502079    1.630837    1.281633
     32          1           0        4.448893    2.602214    0.072302
     33          1           0        4.832883   -0.974340   -0.205476
 ---------------------------------------------------------------------

 SCF Done:  E(UB3LYP) =  -744.337518326     A.U. after   33 cycles
 SCF Done:  E(UB3LYP) =  -744.337518326     a.u. after    1 cycles

 The electronic state is 2-A.
 Alpha  occ. eigenvalues --  -19.07087 -19.03041 -14.24292 -14.21416 -14.21191
 Alpha  occ. eigenvalues --  -10.18178 -10.16496 -10.14848 -10.13917 -10.12773
 Alpha  occ. eigenvalues --  -10.10902 -10.08485 -10.08071 -10.07830 -10.07706
 Alpha  occ. eigenvalues --  -10.07592  -0.99503  -0.93273  -0.89932  -0.84950
 Alpha  occ. eigenvalues --   -0.77961  -0.76369  -0.70640  -0.67345  -0.63973
 Alpha  occ. eigenvalues --   -0.58189  -0.57399  -0.55682  -0.51524  -0.50821
 Alpha  occ. eigenvalues --   -0.48216  -0.46510  -0.44448  -0.42701  -0.41290
 Alpha  occ. eigenvalues --   -0.39039  -0.38487  -0.37494  -0.37438  -0.36489
 Alpha  occ. eigenvalues --   -0.35219  -0.34824  -0.33897  -0.33061  -0.30931
 Alpha  occ. eigenvalues --   -0.29526  -0.29408  -0.28847  -0.27169  -0.26458
 Alpha  occ. eigenvalues --   -0.25450  -0.24386  -0.23758  -0.21436  -0.21016
 Alpha  occ. eigenvalues --   -0.19798  -0.18589  -0.17484  -0.16907  -0.13264
 Alpha  occ. eigenvalues --    0.04091
 Alpha virt. eigenvalues --    0.05406   0.06272   0.06805   0.07353   0.07899
 Alpha virt. eigenvalues --    0.08128   0.08612   0.08674   0.09737   0.10060
 Alpha virt. eigenvalues --    0.10503   0.10958   0.11304   0.11990   0.12399

  Beta  occ. eigenvalues --  -19.07086 -19.03026 -14.24261 -14.21418 -14.21178
  Beta  occ. eigenvalues --  -10.18164 -10.16500 -10.14829 -10.13904 -10.12773
  Beta  occ. eigenvalues --  -10.10879 -10.08480 -10.08049 -10.07809 -10.07692
  Beta  occ. eigenvalues --  -10.07539  -0.99492  -0.93243  -0.89904  -0.84912
  Beta  occ. eigenvalues --   -0.77933  -0.76342  -0.70608  -0.67317  -0.63935
  Beta  occ. eigenvalues --   -0.58156  -0.57349  -0.55637  -0.51478  -0.50732
  Beta  occ. eigenvalues --   -0.48165  -0.46465  -0.44418  -0.42674  -0.41247
  Beta  occ. eigenvalues --   -0.38991  -0.38432  -0.37439  -0.37395  -0.36456
  Beta  occ. eigenvalues --   -0.35196  -0.34794  -0.33858  -0.33019  -0.30905
  Beta  occ. eigenvalues --   -0.29495  -0.29375  -0.28817  -0.27121  -0.26417
  Beta  occ. eigenvalues --   -0.25432  -0.24358  -0.23723  -0.21413  -0.21002
  Beta  occ. eigenvalues --   -0.19762  -0.18569  -0.17471  -0.16863  -0.13217
  Beta virt. eigenvalues --    0.05993   0.06433   0.06824   0.07793   0.07828
  Beta virt. eigenvalues --    0.08073   0.08210   0.08703   0.09043   0.10039
  Beta virt. eigenvalues --    0.10541   0.10723   0.11266   0.11487   0.12089

 Mulliken charges and spin densities:
               1          2
     1  C    0.278335  -0.624473
     2  C   -0.033962  -0.204715
     3  O   -0.095926   0.028455
     4  C    0.525012  -1.359641
     5  N   -0.133593   0.014627
     6  C   -0.156637   0.165438
     7  N   -0.179663   0.023514
     8  C    0.587834  -1.388925
     9  C   -0.881056   1.742592
    10  N   -0.176818   0.152901
    11  C    1.072709  -1.365511
    12  C   -0.315800  -0.023452
    13  C   -0.846549   0.949065
    14  C    0.270946  -0.656121
    15  C    0.905733  -1.298044
    16  O   -0.202919   0.004105
    17  H    0.056567   0.086372
    18  H   -0.242961   0.374079
    19  H    0.022972   0.135230
    20  H   -0.232902   0.399354
    21  H    0.186597  -0.011594
    22  H    0.133043   0.052115
    23  H   -0.666049   0.889943
    24  H    0.012867   0.310718
    25  H   -0.627242   0.834786
    26  H    0.342088  -0.117077
    27  H    0.199109   0.022868
    28  H   -0.081392   0.315791
    29  H   -0.037444   0.191061
    30  H    0.241239  -0.137737
    31  H   -0.544100   0.707405
    32  H   -0.531489   0.693654
    33  H    0.151448   0.093213
 Sum of Mulliken charges =  -1.00000   1.00000

 Dipole moment (field-independent basis, Debye):
    X=             -3.6383    Y=             -3.6328    Z=             -3.0154  Tot=              5.9604
 Quadrupole moment (field-independent basis, Debye-Ang):
   XX=           -198.2213   YY=           -137.3366   ZZ=           -133.6624
   XY=             -2.8772   XZ=            -10.2310   YZ=             -7.7602

 Summary of Natural Population Analysis:

                                       Natural Population
                Natural  -----------------------------------------------
    Atom  No    Charge         Core      Valence    Rydberg      Total
 -----------------------------------------------------------------------
      C    1   -0.29924      0.99966     2.29540    0.00418     3.29924
      C    2   -0.01519      0.99957     2.00353    0.01209     3.01519
      O    3   -0.27359      0.99985     3.26426    0.00948     4.27359
      C    4    0.28428      0.99946     1.69846    0.01780     2.71572
      N    5   -0.30099      0.99966     2.79250    0.00882     3.80099
      C    6    0.15865      0.99968     1.82311    0.01856     2.84135
      N    7   -0.28190      0.99968     2.77425    0.00797     3.78190
      C    8    0.21564      0.99954     1.76985    0.01497     2.78436
      C    9   -0.18155      0.99947     2.17240    0.00968     3.18155
      N   10   -0.30386      0.99966     2.79241    0.01178     3.80386
      C   11   -0.10108      0.99959     2.08674    0.01475     3.10108
      C   12    0.05645      0.99953     1.93038    0.01364     2.94355
      C   13   -0.13026      0.99958     2.11924    0.01144     3.13026
      C   14   -0.19631      0.99961     2.18760    0.00909     3.19631
      C   15   -0.20023      0.99962     2.18981    0.01080     3.20023
      O   16   -0.37026      0.99990     3.36426    0.00610     4.37026
      H   17    0.09983      0.00000     0.39886    0.00131     0.40017
      H   18    0.10025      0.00000     0.39839    0.00136     0.39975
      H   19    0.10651      0.00000     0.39200    0.00149     0.39349
      H   20    0.08950      0.00000     0.40921    0.00130     0.41050
      H   21    0.09452      0.00000     0.40388    0.00160     0.40548
      H   22    0.08130      0.00000     0.41774    0.00096     0.41870
      H   23    0.11410      0.00000     0.38431    0.00159     0.38590
      H   24    0.19889      0.00000     0.29602    0.00510     0.30111
      H   25    0.10142      0.00000     0.39679    0.00179     0.39858
      H   26    0.10799      0.00000     0.39050    0.00151     0.39201
      H   27    0.09604      0.00000     0.40233    0.00164     0.40396
      H   28    0.10594      0.00000     0.39294    0.00112     0.39406
      H   29    0.10075      0.00000     0.39846    0.00078     0.39925
      H   30    0.10559      0.00000     0.39315    0.00126     0.39441
      H   31    0.10513      0.00000     0.39067    0.00420     0.39487
      H   32    0.10481      0.00000     0.39354    0.00165     0.39519
      H   33    0.22689      0.00000     0.27019    0.00292     0.27311
 =======================================================================
   * Total *    0.00000     15.99409    43.79318    0.21273    60.00000

 Normal termination of Gaussian 16 at Thu Dec 10 22:37:23 2020.
