 Gaussian 16, Revision A.03,

 -----------------------------------------------------------
 # opt freq B3LYP/6-31G(d) empiricaldispersion=gd3bj scf=xqc
 -----------------------------------------------------------

 ------------------------------
 CID_13827562_JID_5138_neutraal
 ------------------------------
 Symbolic Z-matrix:
 Charge =  0 Multiplicity = 1

 SCF Done:  E(RB3LYP) =  -622.043875246     A.U. after   13 cycles
 SCF Done:  E(RB3LYP) =  -622.046287337     A.U. after   11 cycles
 SCF Done:  E(RB3LYP) =  -622.046478229     A.U. after   11 cycles
 SCF Done:  E(RB3LYP) =  -622.046510054     A.U. after   10 cycles
 SCF Done:  E(RB3LYP) =  -622.046524641     A.U. after    9 cycles
 SCF Done:  E(RB3LYP) =  -622.046529637     A.U. after    9 cycles
 SCF Done:  E(RB3LYP) =  -622.046531908     A.U. after    8 cycles
 SCF Done:  E(RB3LYP) =  -622.046532728     A.U. after    8 cycles
 SCF Done:  E(RB3LYP) =  -622.046533203     A.U. after    7 cycles
 SCF Done:  E(RB3LYP) =  -622.046533296     A.U. after    7 cycles
 Optimization completed.
    -- Stationary point found.
 Normal termination of Gaussian 16 at Thu Dec 10 14:46:09 2020.

 --------------------------------------------------------------------
 #N Geom=AllCheck Guess=TCheck SCRF=Check GenChk RB3LYP/6-31G(d) Freq
 --------------------------------------------------------------------

 Structure from the checkpoint file:  "JID_5138.chk"
 ------------------------------
 CID_13827562_JID_5138_neutraal
 ------------------------------
 Charge =  0 Multiplicity = 1

 SCF Done:  E(RB3LYP) =  -622.046533296     A.U. after    1 cycles

  Exact polarizability: 184.196   0.616 150.612  16.855   0.478 108.691
 Approx polarizability: 230.495  -0.200 248.913  37.648   0.125 168.099

                      1                      2                      3
                      A                      A                      A
 Frequencies --     30.2866                37.1298                52.8373
 Red. masses --      3.6860                 3.1939                 3.4543
 Frc consts  --      0.0020                 0.0026                 0.0057
 IR Inten    --      0.0408                 0.0801                 0.0363

                      4                      5                      6
                      A                      A                      A
 Frequencies --     74.9787                87.2002               109.6031
 Red. masses --      2.6382                 4.0990                 2.2130
 Frc consts  --      0.0087                 0.0184                 0.0157
 IR Inten    --      0.0903                 0.3602                 0.6719

                      7                      8                      9
                      A                      A                      A
 Frequencies --    138.1386               149.2871               196.2656
 Red. masses --      2.3720                 1.8038                 4.0115
 Frc consts  --      0.0267                 0.0237                 0.0910
 IR Inten    --      0.0347                 0.1053                 2.4935

                     10                     11                     12
                      A                      A                      A
 Frequencies --    208.5631               236.5882               264.4193
 Red. masses --      1.6714                 1.5123                 1.7811
 Frc consts  --      0.0428                 0.0499                 0.0734
 IR Inten    --      1.7310                 0.3837                 4.8624

                     13                     14                     15
                      A                      A                      A
 Frequencies --    306.8306               313.5031               338.4895
 Red. masses --      2.4448                 1.2400                 1.9582
 Frc consts  --      0.1356                 0.0718                 0.1322
 IR Inten    --      2.0428                84.0115                14.0766

                     16                     17                     18
                      A                      A                      A
 Frequencies --    357.6867               363.4061               395.5050
 Red. masses --      2.0902                 2.7258                 2.3886
 Frc consts  --      0.1576                 0.2121                 0.2201
 IR Inten    --      1.4950                 1.5912                 0.4510

                     19                     20                     21
                      A                      A                      A
 Frequencies --    448.6740               452.3451               492.1406
 Red. masses --      2.1106                 2.9500                 2.3645
 Frc consts  --      0.2503                 0.3556                 0.3374
 IR Inten    --      0.1473                 0.8154                 4.4858

                     22                     23                     24
                      A                      A                      A
 Frequencies --    495.9274               557.5061               589.3577
 Red. masses --      4.5345                 3.9877                 4.1613
 Frc consts  --      0.6571                 0.7303                 0.8516
 IR Inten    --      0.9363                 0.8749                 2.9084

                     25                     26                     27
                      A                      A                      A
 Frequencies --    615.0429               666.4682               748.7246
 Red. masses --      4.5148                 2.7409                 2.1012
 Frc consts  --      1.0062                 0.7173                 0.6940
 IR Inten    --      0.8989                 1.2155                26.1366

                     28                     29                     30
                      A                      A                      A
 Frequencies --    761.2776               768.9388               782.9682
 Red. masses --      1.4719                 1.2836                 1.5232
 Frc consts  --      0.5026                 0.4472                 0.5502
 IR Inten    --      9.0535                 0.1037                25.7954

                     31                     32                     33
                      A                      A                      A
 Frequencies --    815.8869               828.4279               846.8824
 Red. masses --      2.5666                 2.6523                 4.1384
 Frc consts  --      1.0066                 1.0725                 1.7487
 IR Inten    --      0.0926                 1.5438                11.8909

                     34                     35                     36
                      A                      A                      A
 Frequencies --    868.2325               895.8242               921.0250
 Red. masses --      1.7091                 1.3937                 1.4577
 Frc consts  --      0.7591                 0.6590                 0.7286
 IR Inten    --      3.8282                 0.4308                 0.0541

                     37                     38                     39
                      A                      A                      A
 Frequencies --    928.2813               954.4924               956.0550
 Red. masses --      1.8147                 1.6269                 1.4924
 Frc consts  --      0.9213                 0.8733                 0.8037
 IR Inten    --      1.2838                 2.0736                 1.9719

                     40                     41                     42
                      A                      A                      A
 Frequencies --    980.5752               980.6539               987.9943
 Red. masses --      1.5630                 1.6174                 2.4095
 Frc consts  --      0.8855                 0.9164                 1.3858
 IR Inten    --      2.6235                 2.0713                 6.9179

                     43                     44                     45
                      A                      A                      A
 Frequencies --   1076.2128              1089.2031              1092.2468
 Red. masses --      2.1185                 1.9384                 1.6162
 Frc consts  --      1.4457                 1.3549                 1.1361
 IR Inten    --      0.0679                 4.7738                 0.6772

                     46                     47                     48
                      A                      A                      A
 Frequencies --   1108.3517              1130.1530              1136.6463
 Red. masses --      1.5690                 1.7436                 1.8100
 Frc consts  --      1.1356                 1.3121                 1.3778
 IR Inten    --      2.8771                 3.4534                 6.7266

                     49                     50                     51
                      A                      A                      A
 Frequencies --   1141.7020              1196.3111              1211.5829
 Red. masses --      1.8182                 1.1869                 1.4501
 Frc consts  --      1.3964                 1.0008                 1.2542
 IR Inten    --     12.5042                 2.8675                10.4749

                     52                     53                     54
                      A                      A                      A
 Frequencies --   1218.5445              1235.7933              1255.2769
 Red. masses --      1.4035                 1.6267                 3.0404
 Frc consts  --      1.2279                 1.4637                 2.8227
 IR Inten    --      4.4510                89.4783                11.1542

                     55                     56                     57
                      A                      A                      A
 Frequencies --   1272.9795              1275.6777              1300.1772
 Red. masses --      1.3999                 1.3257                 2.1733
 Frc consts  --      1.3365                 1.2711                 2.1646
 IR Inten    --      4.1802                 0.6353                34.8054

                     58                     59                     60
                      A                      A                      A
 Frequencies --   1327.1564              1337.9533              1344.0936
 Red. masses --      1.3666                 1.1622                 1.2856
 Frc consts  --      1.4182                 1.2258                 1.3684
 IR Inten    --      4.4646                 2.1441                 6.4877

                     61                     62                     63
                      A                      A                      A
 Frequencies --   1372.1983              1379.2451              1386.7109
 Red. masses --      1.5869                 1.5087                 2.1772
 Frc consts  --      1.7605                 1.6910                 2.4667
 IR Inten    --     13.2184                 4.5068                21.1829

                     64                     65                     66
                      A                      A                      A
 Frequencies --   1399.8430              1406.2950              1410.3878
 Red. masses --      1.3687                 1.3701                 1.4669
 Frc consts  --      1.5802                 1.5965                 1.7192
 IR Inten    --      1.3430                 5.3478                 3.8456

                     67                     68                     69
                      A                      A                      A
 Frequencies --   1412.4794              1441.8353              1444.0026
 Red. masses --      1.4737                 1.2619                 1.2660
 Frc consts  --      1.7323                 1.5456                 1.5553
 IR Inten    --      6.4593                 8.2962                 8.5398

                     70                     71                     72
                      A                      A                      A
 Frequencies --   1502.8791              1512.6785              1512.9490
 Red. masses --      2.2559                 1.0927                 1.1121
 Frc consts  --      3.0021                 1.4732                 1.4998
 IR Inten    --     58.9726                 8.5132                 2.9256

                     73                     74                     75
                      A                      A                      A
 Frequencies --   1519.6293              1520.6036              1522.7354
 Red. masses --      1.1195                 1.0635                 1.2720
 Frc consts  --      1.5231                 1.4489                 1.7378
 IR Inten    --      3.1188                 0.4745                 5.6230

                     76                     77                     78
                      A                      A                      A
 Frequencies --   1527.1822              1532.5438              1534.1846
 Red. masses --      1.3945                 1.1409                 1.1101
 Frc consts  --      1.9163                 1.5788                 1.5395
 IR Inten    --      5.5381                 4.0686                12.0026

                     79                     80                     81
                      A                      A                      A
 Frequencies --   1536.0808              1539.7799              1546.0665
 Red. masses --      1.2129                 1.0633                 1.1435
 Frc consts  --      1.6861                 1.4854                 1.6104
 IR Inten    --      1.3491                 3.3824                 6.6194

                     82                     83                     84
                      A                      A                      A
 Frequencies --   1654.1854              1670.3628              2997.4554
 Red. masses --      5.7996                 6.3408                 1.0736
 Frc consts  --      9.3502                10.4236                 5.6835
 IR Inten    --      8.8665                 2.1331                34.3890

                     85                     86                     87
                      A                      A                      A
 Frequencies --   3029.8957              3031.2465              3039.0513
 Red. masses --      1.0603                 1.0679                 1.0627
 Frc consts  --      5.7349                 5.7810                 5.7826
 IR Inten    --     39.2575                34.5521                32.0875

                     88                     89                     90
                      A                      A                      A
 Frequencies --   3043.6316              3046.0008              3046.3864
 Red. masses --      1.0381                 1.0383                 1.0648
 Frc consts  --      5.6659                 5.6758                 5.8221
 IR Inten    --     22.1408                23.2738                25.5429

                     91                     92                     93
                      A                      A                      A
 Frequencies --   3057.7653              3063.9892              3073.5449
 Red. masses --      1.0600                 1.1002                 1.0979
 Frc consts  --      5.8393                 6.0856                 6.1105
 IR Inten    --     32.9802                24.0874                29.9122

                     94                     95                     96
                      A                      A                      A
 Frequencies --   3082.3468              3087.7035              3096.9526
 Red. masses --      1.0990                 1.0999                 1.0901
 Frc consts  --      6.1519                 6.1784                 6.1602
 IR Inten    --     13.6135                 9.9137                49.1640

                     97                     98                     99
                      A                      A                      A
 Frequencies --   3102.2586              3107.9415              3111.6225
 Red. masses --      1.0999                 1.1012                 1.1009
 Frc consts  --      6.2369                 6.2673                 6.2803
 IR Inten    --     43.8972                50.2587                47.4506

                    100                    101                    102
                      A                      A                      A
 Frequencies --   3117.1254              3120.0097              3178.5481
 Red. masses --      1.1012                 1.1012                 1.0857
 Frc consts  --      6.3039                 6.3156                 6.4629
 IR Inten    --     62.4862                53.2672                 0.9179

                    103                    104                    105
                      A                      A                      A
 Frequencies --   3185.1769              3207.3354              3778.8083
 Red. masses --      1.0901                 1.0960                 1.0653
 Frc consts  --      6.5161                 6.6431                 8.9622
 IR Inten    --     29.5317                25.0138                44.5805

 - Thermochemistry -
 -------------------
 Temperature   298.150 Kelvin.  Pressure   1.00000 Atm.
 Atom     1 has atomic number  6 and mass  12.00000

 Molecular mass:   206.16707 amu.
 Principal axes and moments of inertia in atomic units:
                           1         2         3
     Eigenvalues --  1389.731786064.777036773.85086
           X            1.00000   0.00109  -0.00001
           Y           -0.00109   0.99999   0.00438
           Z            0.00001  -0.00438   0.99999
 This molecule is an asymmetric top.
 Rotational symmetry number  1.
 Warning -- assumption of classical behavior for rotation
           may cause significant error
 Rotational temperatures (Kelvin)      0.06232     0.01428     0.01279
 Rotational constants (GHZ):           1.29863     0.29758     0.26643
 Zero-point vibrational energy     877126.7 (Joules/Mol)
                                  209.63832 (Kcal/Mol)
 Warning -- explicit consideration of  25 degrees of freedom as
           vibrations may cause significant error
 Vibrational temperatures:     43.58    53.42    76.02   107.88   125.46
          (Kelvin)            157.69   198.75   214.79   282.38   300.08
                              340.40   380.44   441.46   451.06   487.01
                              514.63   522.86   569.04   645.54   650.82
                              708.08   713.53   802.13   847.95   884.91
                              958.90  1077.25  1095.31  1106.33  1126.52
                             1173.88  1191.92  1218.47  1249.19  1288.89
                             1325.15  1335.59  1373.30  1375.55  1410.83
                             1410.94  1421.50  1548.43  1567.12  1571.50
                             1594.67  1626.04  1635.38  1642.65  1721.22
                             1743.20  1753.21  1778.03  1806.06  1831.53
                             1835.42  1870.67  1909.48  1925.02  1933.85
                             1974.29  1984.43  1995.17  2014.06  2023.34
                             2029.23  2032.24  2074.48  2077.60  2162.31
                             2176.41  2176.80  2186.41  2187.81  2190.88
                             2197.27  2204.99  2207.35  2210.08  2215.40
                             2224.44  2380.00  2403.28  4312.67  4359.34
                             4361.29  4372.52  4379.11  4382.52  4383.07
                             4399.44  4408.40  4422.15  4434.81  4442.52
                             4455.82  4463.46  4471.63  4476.93  4484.85
                             4489.00  4573.22  4582.76  4614.64  5436.86

 Zero-point correction=                           0.334080 (Hartree/Particle)
 Thermal correction to Energy=                    0.350371
 Thermal correction to Enthalpy=                  0.351315
 Thermal correction to Gibbs Free Energy=         0.289578
 Sum of electronic and zero-point Energies=           -621.712453
 Sum of electronic and thermal Energies=              -621.696163
 Sum of electronic and thermal Enthalpies=            -621.695219
 Sum of electronic and thermal Free Energies=         -621.756955

                     E (Thermal)             CV                S
                      KCal/Mol        Cal/Mol-Kelvin    Cal/Mol-Kelvin
 Total                  219.861             61.834            129.935
 Electronic               0.000              0.000              0.000
 Translational            0.889              2.981             41.875
 Rotational               0.889              2.981             32.412
 Vibrational            218.083             55.873             55.648
 Vibration     1          0.594              1.984              5.811
 Vibration     2          0.594              1.982              5.407
 Vibration     3          0.596              1.976              4.708
 Vibration     4          0.599              1.966              4.018
 Vibration     5          0.601              1.958              3.722
 Vibration     6          0.606              1.942              3.276
 Vibration     7          0.614              1.915              2.829
 Vibration     8          0.618              1.903              2.681
 Vibration     9          0.636              1.845              2.168
 Vibration    10          0.642              1.828              2.056
 Vibration    11          0.655              1.785              1.828
 Vibration    12          0.671              1.738              1.632
 Vibration    13          0.697              1.661              1.379
 Vibration    14          0.701              1.648              1.344
 Vibration    15          0.719              1.599              1.219
 Vibration    16          0.733              1.559              1.132
 Vibration    17          0.737              1.548              1.107
 Vibration    18          0.762              1.480              0.979
 Vibration    19          0.808              1.364              0.800
 Vibration    20          0.811              1.356              0.789
 Vibration    21          0.848              1.267              0.678
 Vibration    22          0.851              1.259              0.668
 Vibration    23          0.913              1.123              0.529
 Vibration    24          0.947              1.054              0.468
 Vibration    25          0.975              1.000              0.424

 Optimization completed.
    -- Stationary point found.
 Normal termination of Gaussian 16 at Thu Dec 10 14:57:30 2020.

 ----------------------------------------------------------------------
 # B3LYP/6-311++G(d,p) empiricaldispersion=gd3bj scf=xqc pop=npa geom=c
 heck
 ----------------------------------------------------------------------

 --------------------------------------
 CID_13827562_JID_5138_Energie_neutraal
 --------------------------------------
 Structure from the checkpoint file:  "JID_5138.chk"
 Charge =  0 Multiplicity = 1

 SCF Done:  E(RB3LYP) =  -622.221662321     A.U. after   14 cycles
 Normal termination of Gaussian 16 at Thu Dec 10 15:02:18 2020.

 ----------------------------------------------------------------------
 # B3LYP/6-311++G(d,p) empiricaldispersion=gd3bj scf=xqc pop=npa geom=c
 heck
 ----------------------------------------------------------------------

 ------------------------------------
 CID_13827562_JID_5138_Energie_kation
 ------------------------------------
 Structure from the checkpoint file:  "JID_5138.chk"
 Charge =  1 Multiplicity = 2

 SCF Done:  E(UB3LYP) =  -621.930585620     A.U. after   22 cycles
 Normal termination of Gaussian 16 at Thu Dec 10 15:13:18 2020.
 Gaussian 16:  ES64L-G16RevA.03 25-Dec-2016

 ----------------------------------------------------------------------
 # B3LYP/6-311++G(d,p) empiricaldispersion=gd3bj scf=xqc pop=npa geom=c
 heck
 ----------------------------------------------------------------------

 -----------------------------------
 CID_13827562_JID_5138_Energie_anion
 -----------------------------------
 Structure from the checkpoint file:  "JID_5138.chk"
 Charge = -1 Multiplicity = 2

                         Standard orientation:
 ---------------------------------------------------------------------
 Center     Atomic      Atomic             Coordinates (Angstroms)
 Number     Number       Type             X           Y           Z
 ---------------------------------------------------------------------
      1          6           0       -4.767926    0.780502    0.169322
      2          6           0       -3.813426   -0.191649    0.868423
      3          6           0       -3.181264   -1.227773   -0.070174
      4          6           0       -2.255032   -0.624364   -1.151477
      5          6           0       -1.077087    0.135635   -0.582929
      6          6           0        0.007138   -0.542969   -0.001764
      7          6           0        1.088406    0.140886    0.577802
      8          6           0        1.059178    1.537213    0.567446
      9          6           0        0.000989    2.239362   -0.009190
     10          6           0       -1.055040    1.534724   -0.580432
     11          6           0        2.251377   -0.624784    1.162186
     12          6           0        3.183801   -1.231269    0.091000
     13          6           0        3.821233   -0.207494   -0.857588
     14          6           0        4.769071    0.778034   -0.167641
     15          8           0        0.066139   -1.917068    0.035415
     16          1           0       -4.246500    1.409849   -0.559952
     17          1           0       -5.246177    1.449225    0.893254
     18          1           0       -5.561388    0.241907   -0.363865
     19          1           0       -3.017418    0.371417    1.370640
     20          1           0       -4.359178   -0.726876    1.656005
     21          1           0       -2.611016   -1.943565    0.536933
     22          1           0       -3.973780   -1.802680   -0.568860
     23          1           0       -1.912231   -1.430921   -1.819410
     24          1           0       -2.833295    0.047100   -1.794254
     25          1           0        1.885899    2.078359    1.020488
     26          1           0        0.000125    3.325198   -0.011935
     27          1           0       -1.884702    2.070589   -1.034599
     28          1           0        2.822276    0.042961    1.817330
     29          1           0        1.875136   -1.440251    1.790367
     30          1           0        3.976940   -1.794695    0.602594
     31          1           0        2.608543   -1.957818   -0.493257
     32          1           0        4.374413   -0.750834   -1.635120
     33          1           0        3.029155    0.348650   -1.374937
     34          1           0        5.562154    0.248416    0.375206
     35          1           0        5.248234    1.442118   -0.895781
     36          1           0        4.241675    1.411068    0.554281
     37          1           0       -0.696500   -2.278994   -0.438361
 ---------------------------------------------------------------------

 SCF Done:  E(UB3LYP) =  -622.208381789     A.U. after   33 cycles
 SCF Done:  E(UB3LYP) =  -622.208381789     a.u. after    1 cycles

 The electronic state is 2-A.
 Alpha  occ. eigenvalues --  -19.05082 -10.13118 -10.07901 -10.07736 -10.07460
 Alpha  occ. eigenvalues --  -10.07292 -10.07281 -10.07227 -10.07069 -10.07008
 Alpha  occ. eigenvalues --  -10.06923 -10.06719 -10.06678 -10.06536 -10.06057
 Alpha  occ. eigenvalues --   -0.96100  -0.76009  -0.71660  -0.70020  -0.66818
 Alpha  occ. eigenvalues --   -0.65253  -0.61644  -0.61085  -0.55604  -0.55306
 Alpha  occ. eigenvalues --   -0.51190  -0.49936  -0.47348  -0.46221  -0.43516
 Alpha  occ. eigenvalues --   -0.39490  -0.37729  -0.37074  -0.36416  -0.35783
 Alpha  occ. eigenvalues --   -0.34793  -0.33600  -0.32315  -0.31584  -0.30481
 Alpha  occ. eigenvalues --   -0.29726  -0.29544  -0.28872  -0.28388  -0.28168
 Alpha  occ. eigenvalues --   -0.27944  -0.25633  -0.25121  -0.24122  -0.23662
 Alpha  occ. eigenvalues --   -0.23453  -0.22949  -0.22686  -0.22466  -0.21756
 Alpha  occ. eigenvalues --   -0.14608  -0.12511   0.04334
 Alpha virt. eigenvalues --    0.05905   0.06713   0.07595   0.07628   0.08030
 Alpha virt. eigenvalues --    0.08377   0.09041   0.09686   0.09728   0.09985
 Alpha virt. eigenvalues --    0.10112   0.10419   0.11239   0.11481   0.11951

  Beta  occ. eigenvalues --  -19.05047 -10.13116 -10.07889 -10.07728 -10.07427
  Beta  occ. eigenvalues --  -10.07265 -10.07254 -10.07220 -10.07073 -10.07000
  Beta  occ. eigenvalues --  -10.06906 -10.06707 -10.06644 -10.06525 -10.06028
  Beta  occ. eigenvalues --   -0.96035  -0.75968  -0.71622  -0.69987  -0.66783
  Beta  occ. eigenvalues --   -0.65212  -0.61602  -0.61031  -0.55550  -0.55250
  Beta  occ. eigenvalues --   -0.51137  -0.49896  -0.47274  -0.46183  -0.43449
  Beta  occ. eigenvalues --   -0.39461  -0.37692  -0.37042  -0.36372  -0.35750
  Beta  occ. eigenvalues --   -0.34761  -0.33558  -0.32276  -0.31553  -0.30451
  Beta  occ. eigenvalues --   -0.29690  -0.29508  -0.28833  -0.28349  -0.28137
  Beta  occ. eigenvalues --   -0.27915  -0.25604  -0.25073  -0.24083  -0.23627
  Beta  occ. eigenvalues --   -0.23420  -0.22904  -0.22661  -0.22423  -0.21719
  Beta  occ. eigenvalues --   -0.14477  -0.12462
  Beta virt. eigenvalues --    0.06092   0.06785   0.07217   0.07802   0.08068
  Beta virt. eigenvalues --    0.08421   0.08675   0.09388   0.09763   0.09979
  Beta virt. eigenvalues --    0.10240   0.10491   0.10653   0.11398   0.11776

 Mulliken charges and spin densities:
               1          2
     1  C    0.825733  -1.381453
     2  C   -1.167496   0.877641
     3  C    1.170262  -1.314031
     4  C    1.071759  -1.432292
     5  C   -0.392953   1.328779
     6  C   -0.610658  -0.348241
     7  C    1.366590  -0.281023
     8  C   -0.114651  -0.268051
     9  C   -0.538423  -0.082694
    10  C   -0.632954   0.146343
    11  C    0.234581  -0.549737
    12  C    0.193244  -0.379236
    13  C   -0.643070   0.362557
    14  C    0.223769  -0.786934
    15  O   -0.273104   0.047156
    16  H    0.001141   0.127953
    17  H   -0.110539   0.236815
    18  H   -0.210397   0.349686
    19  H    0.148023  -0.019223
    20  H   -0.117983   0.275274
    21  H   -0.202948   0.315033
    22  H   -0.502875   0.673939
    23  H   -0.566336   0.757922
    24  H   -0.190767   0.372119
    25  H    0.094597   0.011606
    26  H   -0.076032   0.237117
    27  H    0.018628   0.090676
    28  H   -0.008922   0.160823
    29  H    0.097617   0.107756
    30  H   -0.064481   0.195350
    31  H    0.006848   0.176678
    32  H   -0.091485   0.238468
    33  H    0.198451  -0.060623
    34  H   -0.057091   0.185419
    35  H   -0.045492   0.172674
    36  H    0.022646   0.109727
    37  H   -0.055233   0.346026
 Sum of Mulliken charges =  -1.00000   1.00000

 Dipole moment (field-independent basis, Debye):
    X=              4.1228    Y=              3.7409    Z=              2.0631  Tot=              5.9371
 Quadrupole moment (field-independent basis, Debye-Ang):
   XX=           -191.0132   YY=           -136.8466   ZZ=           -127.4893
   XY=             -7.2072   XZ=             -5.2561   YZ=             -4.2217

 Summary of Natural Population Analysis:

                                       Natural Population
                Natural  -----------------------------------------------
    Atom  No    Charge         Core      Valence    Rydberg      Total
 -----------------------------------------------------------------------
      C    1   -0.28655      0.99966     2.28197    0.00491     3.28655
      C    2   -0.19293      0.99964     2.18492    0.00838     3.19293
      C    3   -0.18587      0.99962     2.17695    0.00931     3.18587
      C    4   -0.20753      0.99960     2.19621    0.01172     3.20753
      C    5   -0.04402      0.99947     2.03368    0.01087     3.04402
      C    6    0.16134      0.99928     1.82569    0.01369     2.83866
      C    7   -0.03542      0.99947     2.02592    0.01003     3.03542
      C    8   -0.09377      0.99952     2.08613    0.00812     3.09377
      C    9   -0.11631      0.99956     2.10714    0.00960     3.11631
      C   10   -0.09242      0.99952     2.08364    0.00926     3.09242
      C   11   -0.19760      0.99960     2.18926    0.00875     3.19760
      C   12   -0.18672      0.99962     2.17814    0.00896     3.18672
      C   13   -0.19334      0.99964     2.18691    0.00679     3.19334
      C   14   -0.28580      0.99967     2.28175    0.00438     3.28580
      O   15   -0.34562      0.99988     3.33905    0.00669     4.34562
      H   16    0.09494      0.00000     0.40392    0.00113     0.40506
      H   17    0.09711      0.00000     0.40209    0.00080     0.40289
      H   18    0.09725      0.00000     0.40160    0.00115     0.40275
      H   19    0.09743      0.00000     0.40118    0.00140     0.40257
      H   20    0.09529      0.00000     0.40376    0.00096     0.40471
      H   21    0.09521      0.00000     0.40314    0.00165     0.40479
      H   22    0.09990      0.00000     0.39729    0.00281     0.40010
      H   23    0.10385      0.00000     0.39340    0.00275     0.39615
      H   24    0.10622      0.00000     0.39225    0.00153     0.39378
      H   25    0.09572      0.00000     0.40256    0.00173     0.40428
      H   26    0.09820      0.00000     0.40098    0.00082     0.40180
      H   27    0.09842      0.00000     0.40017    0.00141     0.40158
      H   28    0.09652      0.00000     0.40223    0.00124     0.40348
      H   29    0.10898      0.00000     0.38971    0.00131     0.39102
      H   30    0.09177      0.00000     0.40714    0.00109     0.40823
      H   31    0.10528      0.00000     0.39325    0.00147     0.39472
      H   32    0.09366      0.00000     0.40517    0.00117     0.40634
      H   33    0.09912      0.00000     0.39946    0.00143     0.40088
      H   34    0.09363      0.00000     0.40513    0.00124     0.40637
      H   35    0.09659      0.00000     0.40238    0.00103     0.40341
      H   36    0.09493      0.00000     0.40388    0.00119     0.40507
      H   37    0.24254      0.00000     0.25315    0.00431     0.25746
 =======================================================================
   * Total *    0.00000     14.99374    41.84119    0.16507    57.00000

 Normal termination of Gaussian 16 at Thu Dec 10 15:29:23 2020.
