 Gaussian 16, Revision A.03,

 -----------------------------------------------------------
 # opt freq B3LYP/6-31G(d) empiricaldispersion=gd3bj scf=xqc
 -----------------------------------------------------------

 -------------------------------
 CID_148098094_JID_6375_neutraal
 -------------------------------
 Symbolic Z-matrix:
 Charge =  0 Multiplicity = 1

 SCF Done:  E(RB3LYP) =  -687.341693216     A.U. after   15 cycles
 SCF Done:  E(RB3LYP) =  -687.346746664     A.U. after   12 cycles
 SCF Done:  E(RB3LYP) =  -687.347608987     A.U. after   12 cycles
 SCF Done:  E(RB3LYP) =  -687.347955399     A.U. after   12 cycles
 SCF Done:  E(RB3LYP) =  -687.348157403     A.U. after   12 cycles
 SCF Done:  E(RB3LYP) =  -687.348295151     A.U. after   11 cycles
 SCF Done:  E(RB3LYP) =  -687.348415449     A.U. after   11 cycles
 SCF Done:  E(RB3LYP) =  -687.348442938     A.U. after   10 cycles
 SCF Done:  E(RB3LYP) =  -687.348472534     A.U. after   10 cycles
 SCF Done:  E(RB3LYP) =  -687.348522989     A.U. after   11 cycles
 SCF Done:  E(RB3LYP) =  -687.348541232     A.U. after    8 cycles
 SCF Done:  E(RB3LYP) =  -687.348541409     A.U. after    7 cycles
 SCF Done:  E(RB3LYP) =  -687.348541529     A.U. after    7 cycles
 SCF Done:  E(RB3LYP) =  -687.348541605     A.U. after    7 cycles
 SCF Done:  E(RB3LYP) =  -687.348541641     A.U. after    6 cycles
 Optimization completed.
    -- Stationary point found.
 Normal termination of Gaussian 16 at Thu Dec 10 22:27:51 2020.

 --------------------------------------------------------------------
 #N Geom=AllCheck Guess=TCheck SCRF=Check GenChk RB3LYP/6-31G(d) Freq
 --------------------------------------------------------------------

 Structure from the checkpoint file:  "JID_6375.chk"
 -------------------------------
 CID_148098094_JID_6375_neutraal
 -------------------------------
 Charge =  0 Multiplicity = 1

 SCF Done:  E(RB3LYP) =  -687.348541641     A.U. after    1 cycles

  Exact polarizability: 220.078 -11.691 146.514   2.174 -12.032  83.110
 Approx polarizability: 329.137 -22.452 247.781   2.762 -34.627 137.541

                      1                      2                      3
                      A                      A                      A
 Frequencies --     40.8301                63.6319                93.9787
 Red. masses --      3.6152                 4.4486                 4.9120
 Frc consts  --      0.0036                 0.0106                 0.0256
 IR Inten    --      1.1239                 0.6990                 2.1888

                      4                      5                      6
                      A                      A                      A
 Frequencies --    128.8696               147.5544               167.4159
 Red. masses --      1.4353                 1.1641                 1.7324
 Frc consts  --      0.0140                 0.0149                 0.0286
 IR Inten    --      1.9122                 0.7009                 1.6172

                      7                      8                      9
                      A                      A                      A
 Frequencies --    179.9580               218.3038               238.6288
 Red. masses --      3.2432                 2.9395                 3.0761
 Frc consts  --      0.0619                 0.0825                 0.1032
 IR Inten    --      0.7779                 1.4959                 0.4605

                     10                     11                     12
                      A                      A                      A
 Frequencies --    288.3093               333.3834               341.4141
 Red. masses --      3.7286                 3.9775                 4.1116
 Frc consts  --      0.1826                 0.2605                 0.2824
 IR Inten    --      0.7656                 0.8604                 4.8320

                     13                     14                     15
                      A                      A                      A
 Frequencies --    354.4917               413.0108               426.4453
 Red. masses --      4.0515                 2.3811                 3.7157
 Frc consts  --      0.3000                 0.2393                 0.3981
 IR Inten    --      1.5151                 4.0289                 1.3650

                     16                     17                     18
                      A                      A                      A
 Frequencies --    473.0232               514.3630               583.8488
 Red. masses --      4.7016                 3.9028                 5.2284
 Frc consts  --      0.6198                 0.6084                 1.0501
 IR Inten    --      3.1373                 0.2784                 1.9941

                     19                     20                     21
                      A                      A                      A
 Frequencies --    607.8782               615.4286               631.2251
 Red. masses --      4.8101                 3.3717                 6.8932
 Frc consts  --      1.0472                 0.7524                 1.6182
 IR Inten    --      0.8187                 9.0948                 2.4221

                     22                     23                     24
                      A                      A                      A
 Frequencies --    678.7172               713.6660               720.4346
 Red. masses --      7.0258                 3.4802                 1.5675
 Frc consts  --      1.9069                 1.0443                 0.4793
 IR Inten    --      4.8026                 1.9069                12.2134

                     25                     26                     27
                      A                      A                      A
 Frequencies --    754.7317               777.2927               803.2762
 Red. masses --      6.5999                 5.2796                 4.1262
 Frc consts  --      2.2150                 1.8794                 1.5687
 IR Inten    --      9.0092                 9.6239                 8.2595

                     28                     29                     30
                      A                      A                      A
 Frequencies --    864.4757               912.6476               916.2481
 Red. masses --      4.0539                 4.5201                 1.6531
 Frc consts  --      1.7850                 2.2182                 0.8177
 IR Inten    --      3.7729                23.6993                23.0270

                     31                     32                     33
                      A                      A                      A
 Frequencies --    928.6498               948.8250               960.4174
 Red. masses --      4.1105                 1.4136                 2.3219
 Frc consts  --      2.0886                 0.7498                 1.2619
 IR Inten    --      3.1115                 2.2703                 6.4819

                     34                     35                     36
                      A                      A                      A
 Frequencies --    967.1191               973.8104              1015.8582
 Red. masses --      1.2869                 1.8950                 2.4210
 Frc consts  --      0.7092                 1.0588                 1.4720
 IR Inten    --      2.0718                 0.3314                 4.4253

                     37                     38                     39
                      A                      A                      A
 Frequencies --   1040.4671              1059.5404              1077.2445
 Red. masses --      1.5922                 4.5573                 1.5920
 Frc consts  --      1.0156                 3.0144                 1.0885
 IR Inten    --      4.8162                 5.2225                 8.6970

                     40                     41                     42
                      A                      A                      A
 Frequencies --   1078.8351              1080.8840              1099.1629
 Red. masses --      1.7048                 2.1308                 1.3280
 Frc consts  --      1.1691                 1.4667                 0.9453
 IR Inten    --      2.4199                 6.2674                 5.4473

                     43                     44                     45
                      A                      A                      A
 Frequencies --   1158.3127              1169.4469              1247.0592
 Red. masses --      1.1321                 2.4965                 1.6918
 Frc consts  --      0.8950                 2.0116                 1.5501
 IR Inten    --      1.1080                 7.5841                 6.9347

                     46                     47                     48
                      A                      A                      A
 Frequencies --   1271.5168              1293.1711              1316.0558
 Red. masses --      2.1285                 4.6737                 2.9733
 Frc consts  --      2.0275                 4.6049                 3.0341
 IR Inten    --      1.8161                48.7144                 3.2243

                     49                     50                     51
                      A                      A                      A
 Frequencies --   1317.3322              1346.0520              1397.1983
 Red. masses --      3.6467                 2.5005                 2.2275
 Frc consts  --      3.7285                 2.6693                 2.5620
 IR Inten    --      9.8248                13.4398                 9.0278

                     52                     53                     54
                      A                      A                      A
 Frequencies --   1420.4679              1435.8231              1442.8164
 Red. masses --      2.8278                 1.5716                 1.3167
 Frc consts  --      3.3617                 1.9089                 1.6149
 IR Inten    --     25.8345                12.8535                 1.3159

                     55                     56                     57
                      A                      A                      A
 Frequencies --   1465.9286              1474.9475              1499.9855
 Red. masses --      1.1465                 3.2222                 1.5513
 Frc consts  --      1.4515                 4.1301                 2.0564
 IR Inten    --      4.5065                53.6767                17.7671

                     58                     59                     60
                      A                      A                      A
 Frequencies --   1503.0885              1507.9581              1515.1570
 Red. masses --      1.1630                 1.3013                 1.1740
 Frc consts  --      1.5480                 1.7434                 1.5879
 IR Inten    --      7.2759                 8.7089                10.3352

                     61                     62                     63
                      A                      A                      A
 Frequencies --   1520.1338              1561.4763              1596.6645
 Red. masses --      1.4965                 3.5173                 6.2497
 Frc consts  --      2.0375                 5.0528                 9.3873
 IR Inten    --     18.5658                 1.4090                 8.9376

                     64                     65                     66
                      A                      A                      A
 Frequencies --   1642.6251              1665.1724              1674.9093
 Red. masses --      6.0111                 6.7831                 7.8548
 Frc consts  --      9.5561                11.0814                12.9828
 IR Inten    --      8.6108                21.6002                44.0307

                     67                     68                     69
                      A                      A                      A
 Frequencies --   3038.0734              3055.7191              3058.3778
 Red. masses --      1.0603                 1.0393                 1.0385
 Frc consts  --      5.7662                 5.7175                 5.7231
 IR Inten    --     12.5289                17.5958                10.7638

                     70                     71                     72
                      A                      A                      A
 Frequencies --   3064.8556              3114.7575              3115.7123
 Red. masses --      1.1009                 1.0982                 1.0992
 Frc consts  --      6.0930                 6.2775                 6.2872
 IR Inten    --      9.5106                 7.9576                12.1434

                     73                     74                     75
                      A                      A                      A
 Frequencies --   3152.8262              3154.3031              3177.3233
 Red. masses --      1.1017                 1.1018                 1.0902
 Frc consts  --      6.4525                 6.4590                 6.4843
 IR Inten    --      8.6730                11.3320                24.0118

                     76                     77                     78
                      A                      A                      A
 Frequencies --   3198.6010              3228.8744              3251.3492
 Red. masses --      1.0910                 1.0878                 1.1034
 Frc consts  --      6.5763                 6.6821                 6.8726
 IR Inten    --     10.8563                 1.5303                15.6833

 - Thermochemistry -
 -------------------
 Temperature   298.150 Kelvin.  Pressure   1.00000 Atm.
 Atom     1 has atomic number  6 and mass  12.00000

 Molecular mass:   212.09496 amu.
 Principal axes and moments of inertia in atomic units:
                           1         2         3
     Eigenvalues --  1467.150935756.985196816.14428
           X            0.99992  -0.01260   0.00329
           Y            0.01256   0.99986   0.01069
           Z           -0.00343  -0.01065   0.99994
 This molecule is an asymmetric top.
 Rotational symmetry number  1.
 Warning -- assumption of classical behavior for rotation
           may cause significant error
 Rotational temperatures (Kelvin)      0.05904     0.01505     0.01271
 Rotational constants (GHZ):           1.23010     0.31349     0.26477
 Zero-point vibrational energy     587895.0 (Joules/Mol)
                                  140.51028 (Kcal/Mol)
 Warning -- explicit consideration of  20 degrees of freedom as
           vibrations may cause significant error
 Vibrational temperatures:     58.75    91.55   135.21   185.41   212.30
          (Kelvin)            240.87   258.92   314.09   343.33   414.81
                              479.66   491.22   510.03   594.23   613.56
                              680.57   740.05   840.03   874.60   885.46
                              908.19   976.52  1026.81  1036.54  1085.89
                             1118.35  1155.74  1243.79  1313.10  1318.28
                             1336.12  1365.15  1381.83  1391.47  1401.10
                             1461.59  1497.00  1524.44  1549.91  1552.20
                             1555.15  1581.45  1666.55  1682.57  1794.24
                             1829.43  1860.58  1893.51  1895.35  1936.67
                             2010.26  2043.74  2065.83  2075.89  2109.14
                             2122.12  2158.14  2162.61  2169.62  2179.97
                             2187.13  2246.62  2297.24  2363.37  2395.81
                             2409.82  4371.11  4396.50  4400.32  4409.64
                             4481.44  4482.82  4536.21  4538.34  4571.46
                             4602.07  4645.63  4677.97

 Zero-point correction=                           0.223917 (Hartree/Particle)
 Thermal correction to Energy=                    0.237286
 Thermal correction to Enthalpy=                  0.238230
 Thermal correction to Gibbs Free Energy=         0.183477
 Sum of electronic and zero-point Energies=           -687.124624
 Sum of electronic and thermal Energies=              -687.111256
 Sum of electronic and thermal Enthalpies=            -687.110312
 Sum of electronic and thermal Free Energies=         -687.165065

                     E (Thermal)             CV                S
                      KCal/Mol        Cal/Mol-Kelvin    Cal/Mol-Kelvin
 Total                  148.899             51.821            115.237
 Electronic               0.000              0.000              0.000
 Translational            0.889              2.981             41.959
 Rotational               0.889              2.981             32.421
 Vibrational            147.121             45.859             40.857
 Vibration     1          0.594              1.981              5.218
 Vibration     2          0.597              1.972              4.341
 Vibration     3          0.603              1.953              3.575
 Vibration     4          0.611              1.924              2.963
 Vibration     5          0.617              1.905              2.704
 Vibration     6          0.624              1.883              2.464
 Vibration     7          0.629              1.867              2.329
 Vibration     8          0.646              1.813              1.973
 Vibration     9          0.657              1.781              1.813
 Vibration    10          0.685              1.695              1.484
 Vibration    11          0.715              1.609              1.244
 Vibration    12          0.721              1.593              1.206
 Vibration    13          0.730              1.566              1.146
 Vibration    14          0.777              1.442              0.916
 Vibration    15          0.788              1.413              0.870
 Vibration    16          0.830              1.310              0.729
 Vibration    17          0.869              1.218              0.623
 Vibration    18          0.941              1.066              0.478
 Vibration    19          0.967              1.015              0.436
 Vibration    20          0.975              0.999              0.424

 Optimization completed.
    -- Stationary point found.
 Normal termination of Gaussian 16 at Thu Dec 10 22:37:08 2020.

 ----------------------------------------------------------------------
 # B3LYP/6-311++G(d,p) empiricaldispersion=gd3bj scf=xqc pop=npa geom=c
 heck
 ----------------------------------------------------------------------

 ---------------------------------------
 CID_148098094_JID_6375_Energie_neutraal
 ---------------------------------------
 Structure from the checkpoint file:  "JID_6375.chk"
 Charge =  0 Multiplicity = 1

 SCF Done:  E(RB3LYP) =  -687.521726782     A.U. after   15 cycles
 Normal termination of Gaussian 16 at Thu Dec 10 22:40:43 2020.

 ----------------------------------------------------------------------
 # B3LYP/6-311++G(d,p) empiricaldispersion=gd3bj scf=xqc pop=npa geom=c
 heck
 ----------------------------------------------------------------------

 -------------------------------------
 CID_148098094_JID_6375_Energie_kation
 -------------------------------------
 Structure from the checkpoint file:  "JID_6375.chk"
 Charge =  1 Multiplicity = 2

 SCF Done:  E(UB3LYP) =  -687.231655032     A.U. after   22 cycles
 Normal termination of Gaussian 16 at Thu Dec 10 22:47:55 2020.
 Gaussian 16:  ES64L-G16RevA.03 25-Dec-2016

 ----------------------------------------------------------------------
 # B3LYP/6-311++G(d,p) empiricaldispersion=gd3bj scf=xqc pop=npa geom=c
 heck
 ----------------------------------------------------------------------

 ------------------------------------
 CID_148098094_JID_6375_Energie_anion
 ------------------------------------
 Structure from the checkpoint file:  "JID_6375.chk"
 Charge = -1 Multiplicity = 2

                         Standard orientation:
 ---------------------------------------------------------------------
 Center     Atomic      Atomic             Coordinates (Angstroms)
 Number     Number       Type             X           Y           Z
 ---------------------------------------------------------------------
      1          6           0        2.502873   -2.352094   -0.684962
      2          6           0        2.554939   -0.914644   -0.303890
      3          6           0        1.595245    0.015122    0.003549
      4          6           0        2.353391    1.214340    0.238297
      5          7           0        3.642095    1.011928    0.092354
      6          8           0        3.774648   -0.340731   -0.258644
      7          6           0        1.852916    2.568366    0.633014
      8          6           0        0.143667   -0.172905    0.095878
      9          6           0       -0.759508    0.768266   -0.440174
     10          6           0       -2.111483    0.516520   -0.316173
     11          6           0       -2.529003   -0.670089    0.328285
     12          6           0       -3.993664   -0.715094    0.320120
     13          6           0       -4.466387    0.385064   -0.297573
     14          6           0       -3.334466    1.276886   -0.763387
     15          7           0       -1.699520   -1.578054    0.849057
     16          6           0       -0.393095   -1.308015    0.731010
     17          1           0        2.815110   -2.998068    0.144502
     18          1           0        1.484224   -2.628343   -0.967823
     19          1           0        3.173902   -2.546890   -1.527742
     20          1           0        1.381574    3.083125   -0.212148
     21          1           0        1.105150    2.488167    1.428804
     22          1           0        2.685044    3.183440    0.983509
     23          1           0       -0.388808    1.652991   -0.949964
     24          1           0       -4.571141   -1.523327    0.752759
     25          1           0       -5.510140    0.630440   -0.456787
     26          1           0       -3.355537    1.429246   -1.851812
     27          1           0       -3.390630    2.277540   -0.311743
     28          1           0        0.283501   -2.029930    1.183752
 ---------------------------------------------------------------------

 SCF Done:  E(UB3LYP) =  -687.521906392     A.U. after   33 cycles
 SCF Done:  E(UB3LYP) =  -687.521906392     a.u. after    1 cycles

 The electronic state is 2-A.
 Alpha  occ. eigenvalues --  -19.07168 -14.22980 -14.14373 -10.09985 -10.09105
 Alpha  occ. eigenvalues --  -10.07013 -10.06905 -10.05466 -10.04847 -10.04680
 Alpha  occ. eigenvalues --  -10.03495 -10.03216 -10.02893 -10.02829 -10.01831
 Alpha  occ. eigenvalues --  -10.01536  -1.01021  -0.78936  -0.75545  -0.70266
 Alpha  occ. eigenvalues --   -0.69576  -0.64709  -0.61443  -0.60251  -0.57350
 Alpha  occ. eigenvalues --   -0.56083  -0.48940  -0.47895  -0.44608  -0.43166
 Alpha  occ. eigenvalues --   -0.41388  -0.37455  -0.36463  -0.35558  -0.33534
 Alpha  occ. eigenvalues --   -0.32275  -0.31788  -0.31336  -0.30946  -0.29488
 Alpha  occ. eigenvalues --   -0.29176  -0.28784  -0.26649  -0.25983  -0.25135
 Alpha  occ. eigenvalues --   -0.24454  -0.24086  -0.22003  -0.21709  -0.18992
 Alpha  occ. eigenvalues --   -0.17606  -0.15891  -0.13515  -0.12843  -0.10457
 Alpha  occ. eigenvalues --   -0.08069   0.05560
 Alpha virt. eigenvalues --    0.08235   0.08610   0.09141   0.10054   0.10378
 Alpha virt. eigenvalues --    0.10867   0.11346   0.11470   0.12512   0.12637
 Alpha virt. eigenvalues --    0.13262   0.13394   0.13758   0.14381   0.15331

  Beta  occ. eigenvalues --  -19.07053 -14.23003 -14.14137 -10.09706 -10.09096
  Beta  occ. eigenvalues --  -10.07013 -10.06927 -10.05532 -10.04887 -10.04702
  Beta  occ. eigenvalues --  -10.03299 -10.03187 -10.02682 -10.02580 -10.01869
  Beta  occ. eigenvalues --  -10.01097  -1.00840  -0.78498  -0.75485  -0.69925
  Beta  occ. eigenvalues --   -0.69238  -0.64290  -0.61400  -0.60123  -0.56982
  Beta  occ. eigenvalues --   -0.55880  -0.48566  -0.47663  -0.44323  -0.42979
  Beta  occ. eigenvalues --   -0.40979  -0.37295  -0.36260  -0.35189  -0.33329
  Beta  occ. eigenvalues --   -0.32130  -0.31664  -0.31210  -0.30591  -0.29326
  Beta  occ. eigenvalues --   -0.29018  -0.28663  -0.26548  -0.25847  -0.24989
  Beta  occ. eigenvalues --   -0.23957  -0.23466  -0.21799  -0.21495  -0.18828
  Beta  occ. eigenvalues --   -0.16971  -0.15141  -0.12532  -0.11909  -0.10127
  Beta  occ. eigenvalues --   -0.06495
  Beta virt. eigenvalues --    0.08209   0.08588   0.09108   0.10236   0.10458
  Beta virt. eigenvalues --    0.10929   0.11393   0.11421   0.11691   0.12603
  Beta virt. eigenvalues --    0.12773   0.13259   0.13406   0.13776   0.14441

 Mulliken charges and spin densities:
               1          2
     1  C   -0.637095  -0.051204
     2  C   -0.153569   0.134936
     3  C   -0.130343   0.009727
     4  C    0.753153  -0.016632
     5  N   -0.468993  -0.006833
     6  O    0.192151   0.023430
     7  C   -0.522656  -0.003677
     8  C    0.599237   0.133333
     9  C   -0.249194   0.194129
    10  C    0.885887  -0.047386
    11  C   -1.260107   0.189252
    12  C   -0.355140  -0.092360
    13  C   -0.226239   0.404363
    14  C   -0.630905  -0.059838
    15  N   -0.007347   0.104502
    16  C   -0.349182   0.005169
    17  H    0.097881   0.069527
    18  H    0.169623  -0.002589
    19  H    0.137750   0.000471
    20  H    0.154022   0.000466
    21  H    0.160120  -0.000218
    22  H    0.136943   0.001344
    23  H    0.083615  -0.010721
    24  H    0.106970   0.000073
    25  H    0.118652  -0.022656
    26  H    0.112300   0.019729
    27  H    0.116812   0.013722
    28  H    0.165654   0.009942
 Sum of Mulliken charges =  -1.00000   1.00000

 Dipole moment (field-independent basis, Debye):
    X=              1.8715    Y=              1.9501    Z=             -1.2293  Tot=              2.9693
 Quadrupole moment (field-independent basis, Debye-Ang):
   XX=           -159.2387   YY=           -104.8901   ZZ=           -103.2373
   XY=             -9.3082   XZ=              2.2980   YZ=              2.7040

 Summary of Natural Population Analysis:

                                       Natural Population
                Natural  -----------------------------------------------
    Atom  No    Charge         Core      Valence    Rydberg      Total
 -----------------------------------------------------------------------
      C    1   -0.31139      0.99963     2.30723    0.00453     3.31139
      C    2    0.22306      0.99945     1.76337    0.01412     2.77694
      C    3   -0.09161      0.99941     2.08201    0.01019     3.09161
      C    4    0.09226      0.99957     1.89497    0.01320     2.90774
      N    5   -0.10922      0.99966     2.59634    0.01322     3.60922
      O    6   -0.16916      0.99985     3.15871    0.01060     4.16916
      C    7   -0.29996      0.99963     2.29578    0.00455     3.29996
      C    8   -0.02210      0.99951     2.01461    0.00798     3.02210
      C    9   -0.04866      0.99949     2.04152    0.00766     3.04866
      C   10   -0.04026      0.99948     2.03151    0.00926     3.04026
      C   11    0.13484      0.99946     1.85133    0.01437     2.86516
      C   12   -0.13323      0.99951     2.12433    0.00940     3.13323
      C   13   -0.00040      0.99958     1.99129    0.00954     3.00040
      C   14   -0.21715      0.99961     2.21128    0.00626     3.21715
      N   15   -0.21723      0.99968     2.70260    0.01495     3.71723
      C   16    0.01482      0.99956     1.97278    0.01283     2.98518
      H   17    0.10571      0.00000     0.39281    0.00148     0.39429
      H   18    0.11443      0.00000     0.38465    0.00092     0.38557
      H   19    0.10393      0.00000     0.39497    0.00110     0.39607
      H   20    0.10357      0.00000     0.39550    0.00093     0.39643
      H   21    0.10953      0.00000     0.38948    0.00099     0.39047
      H   22    0.10410      0.00000     0.39472    0.00118     0.39590
      H   23    0.08776      0.00000     0.41077    0.00147     0.41224
      H   24    0.09497      0.00000     0.40399    0.00104     0.40503
      H   25    0.08225      0.00000     0.41680    0.00096     0.41775
      H   26    0.10493      0.00000     0.39381    0.00126     0.39507
      H   27    0.10459      0.00000     0.39414    0.00127     0.39541
      H   28    0.07964      0.00000     0.41822    0.00214     0.42036
 =======================================================================
   * Total *   -0.00000     15.99308    39.82953    0.17738    56.00000

 Normal termination of Gaussian 16 at Thu Dec 10 22:58:15 2020.
