 Gaussian 16, Revision A.03,

 -----------------------------------------------------------
 # opt freq B3LYP/6-31G(d) empiricaldispersion=gd3bj scf=xqc
 -----------------------------------------------------------

 -------------------------------
 CID_126575518_JID_3655_neutraal
 -------------------------------
 Symbolic Z-matrix:
 Charge =  0 Multiplicity = 1

 SCF Done:  E(RB3LYP) =  -865.148002220     A.U. after   14 cycles
 SCF Done:  E(RB3LYP) =  -865.151939491     A.U. after   13 cycles
 SCF Done:  E(RB3LYP) =  -865.151567684     A.U. after   12 cycles
 SCF Done:  E(RB3LYP) =  -865.152530260     A.U. after   12 cycles
 SCF Done:  E(RB3LYP) =  -865.152643030     A.U. after   12 cycles
 SCF Done:  E(RB3LYP) =  -865.152676449     A.U. after   11 cycles
 SCF Done:  E(RB3LYP) =  -865.152688840     A.U. after   10 cycles
 SCF Done:  E(RB3LYP) =  -865.152692330     A.U. after    9 cycles
 SCF Done:  E(RB3LYP) =  -865.152692753     A.U. after    7 cycles
 Optimization completed.
    -- Stationary point found.
 Normal termination of Gaussian 16 at Wed Dec  9 23:52:40 2020.

 --------------------------------------------------------------------
 #N Geom=AllCheck Guess=TCheck SCRF=Check GenChk RB3LYP/6-31G(d) Freq
 --------------------------------------------------------------------

 Structure from the checkpoint file:  "JID_3655.chk"
 -------------------------------
 CID_126575518_JID_3655_neutraal
 -------------------------------
 Charge =  0 Multiplicity = 1

 SCF Done:  E(RB3LYP) =  -865.152692753     A.U. after    1 cycles

  Exact polarizability: 197.406   5.298 136.700  -7.824   6.064  97.050
 Approx polarizability: 287.976   7.751 209.059 -18.323  18.105 152.008

                      1                      2                      3
                      A                      A                      A
 Frequencies --     14.5743                44.1118                54.6930
 Red. masses --      1.0137                 3.7835                 2.5642
 Frc consts  --      0.0001                 0.0043                 0.0045
 IR Inten    --      0.2632                 0.4413                 0.4729

                      4                      5                      6
                      A                      A                      A
 Frequencies --     71.0370                88.7914               125.8749
 Red. masses --      2.7067                 3.9659                 2.2779
 Frc consts  --      0.0080                 0.0184                 0.0213
 IR Inten    --      0.3782                 0.0594                 0.6833

                      7                      8                      9
                      A                      A                      A
 Frequencies --    186.1234               202.1495               221.3167
 Red. masses --      1.7257                 1.8897                 2.6434
 Frc consts  --      0.0352                 0.0455                 0.0763
 IR Inten    --      0.4284                 0.8709                 1.9469

                     10                     11                     12
                      A                      A                      A
 Frequencies --    225.0440               273.3160               327.7171
 Red. masses --      4.2000                 1.4057                 3.8471
 Frc consts  --      0.1253                 0.0619                 0.2434
 IR Inten    --      0.7600                 0.1357                 0.3214

                     13                     14                     15
                      A                      A                      A
 Frequencies --    336.7522               348.7479               381.8157
 Red. masses --      1.9836                 2.9982                 3.0337
 Frc consts  --      0.1325                 0.2149                 0.2606
 IR Inten    --      0.5864                 0.2979                 0.6061

                     16                     17                     18
                      A                      A                      A
 Frequencies --    431.1307               448.9411               456.7736
 Red. masses --      4.0460                 3.2548                 3.9338
 Frc consts  --      0.4431                 0.3865                 0.4836
 IR Inten    --      0.9928                 3.9016                 1.6328

                     19                     20                     21
                      A                      A                      A
 Frequencies --    487.9301               533.4989               578.3630
 Red. masses --      3.2552                 3.7614                 3.9432
 Frc consts  --      0.4566                 0.6308                 0.7771
 IR Inten    --     10.0861                 1.3024                 2.2113

                     22                     23                     24
                      A                      A                      A
 Frequencies --    630.3775               705.4048               708.0029
 Red. masses --      3.7184                 3.8467                 2.0164
 Frc consts  --      0.8706                 1.1278                 0.5955
 IR Inten    --      7.9003                 0.6889                 0.2600

                     25                     26                     27
                      A                      A                      A
 Frequencies --    724.8682               726.0297               794.7291
 Red. masses --      1.4596                 3.5282                 1.4041
 Frc consts  --      0.4518                 1.0957                 0.5225
 IR Inten    --      1.9432                 3.0970                 0.8433

                     28                     29                     30
                      A                      A                      A
 Frequencies --    846.3418               895.7845               904.9350
 Red. masses --      1.2923                 4.6999                 1.3549
 Frc consts  --      0.5454                 2.2220                 0.6537
 IR Inten    --     21.4063                 4.0423                41.2423

                     31                     32                     33
                      A                      A                      A
 Frequencies --    911.5335               945.8057               962.0556
 Red. masses --      1.3505                 2.0764                 1.3035
 Frc consts  --      0.6612                 1.0944                 0.7108
 IR Inten    --      2.1512                 0.4148                 0.4316

                     34                     35                     36
                      A                      A                      A
 Frequencies --   1005.1043              1027.0379              1030.7005
 Red. masses --      1.9223                 1.4750                 1.3720
 Frc consts  --      1.1442                 0.9167                 0.8588
 IR Inten    --      2.2535                 1.3509                 1.5703

                     37                     38                     39
                      A                      A                      A
 Frequencies --   1074.0575              1081.6174              1084.7726
 Red. masses --      1.7206                 2.1814                 1.4448
 Frc consts  --      1.1695                 1.5036                 1.0017
 IR Inten    --      6.9959                 5.6405                 0.3846

                     40                     41                     42
                      A                      A                      A
 Frequencies --   1089.4224              1118.7511              1188.7811
 Red. masses --      2.2108                 1.5560                 1.4117
 Frc consts  --      1.5459                 1.1474                 1.1754
 IR Inten    --      1.0479                 0.3940                 0.3999

                     43                     44                     45
                      A                      A                      A
 Frequencies --   1224.6162              1229.4553              1247.7414
 Red. masses --      2.3596                 2.2675                 2.5897
 Frc consts  --      2.0849                 2.0194                 2.3755
 IR Inten    --     41.2786                 0.7602                 1.1727

                     46                     47                     48
                      A                      A                      A
 Frequencies --   1315.6303              1319.0040              1330.4945
 Red. masses --      1.3955                 1.2589                 5.3367
 Frc consts  --      1.4232                 1.2905                 5.5661
 IR Inten    --      0.0493                 0.1047                 1.5791

                     49                     50                     51
                      A                      A                      A
 Frequencies --   1395.8207              1432.6432              1434.1238
 Red. masses --      1.6194                 1.5002                 1.3705
 Frc consts  --      1.8589                 1.8141                 1.6608
 IR Inten    --     18.1079                 2.8847                 3.7774

                     52                     53                     54
                      A                      A                      A
 Frequencies --   1442.7012              1446.3952              1458.9602
 Red. masses --      1.2496                 1.5829                 1.2642
 Frc consts  --      1.5324                 1.9511                 1.5854
 IR Inten    --      0.7682                 6.1037                 0.0585

                     55                     56                     57
                      A                      A                      A
 Frequencies --   1502.3937              1504.3087              1518.1989
 Red. masses --      1.0540                 1.0787                 1.0528
 Frc consts  --      1.4017                 1.4383                 1.4297
 IR Inten    --     11.3862                 2.7016                 5.5108

                     58                     59                     60
                      A                      A                      A
 Frequencies --   1520.9631              1521.6623              1531.7620
 Red. masses --      1.1782                 1.0582                 1.0719
 Frc consts  --      1.6058                 1.4436                 1.4818
 IR Inten    --      8.0355                 9.4825                 6.0529

                     61                     62                     63
                      A                      A                      A
 Frequencies --   1535.6732              1540.6713              1619.5041
 Red. masses --      2.0645                 1.1038                 4.8082
 Frc consts  --      2.8685                 1.5437                 7.4302
 IR Inten    --     24.5193                 0.5407                 3.4234

                     64                     65                     66
                      A                      A                      A
 Frequencies --   1664.2747              1702.1085              3042.2722
 Red. masses --      5.9363                 4.8099                 1.0407
 Frc consts  --      9.6876                 8.2104                 5.6749
 IR Inten    --      9.5508                26.1930                35.5797

                     67                     68                     69
                      A                      A                      A
 Frequencies --   3044.5747              3050.7503              3051.6021
 Red. masses --      1.0603                 1.0367                 1.0351
 Frc consts  --      5.7909                 5.6848                 5.6791
 IR Inten    --      4.4739                28.0125                15.4684

                     70                     71                     72
                      A                      A                      A
 Frequencies --   3068.0066              3099.9614              3111.6867
 Red. masses --      1.1005                 1.0954                 1.1002
 Frc consts  --      6.1033                 6.2023                 6.2766
 IR Inten    --      3.4492                21.6052                10.9387

                     73                     74                     75
                      A                      A                      A
 Frequencies --   3116.0829              3122.4100              3126.9246
 Red. masses --      1.1025                 1.1017                 1.1028
 Frc consts  --      6.3075                 6.3286                 6.3531
 IR Inten    --     34.7110                30.1106                15.9210

                     76                     77                     78
                      A                      A                      A
 Frequencies --   3131.1348              3164.8763              3179.5574
 Red. masses --      1.1033                 1.0597                 1.0888
 Frc consts  --      6.3728                 6.2538                 6.4855
 IR Inten    --     20.7154                 7.2870                16.8840

                     79                     80                     81
                      A                      A                      A
 Frequencies --   3192.5920              3215.2283              3248.5033
 Red. masses --      1.0905                 1.0911                 1.1162
 Frc consts  --      6.5488                 6.6459                 6.9402
 IR Inten    --      7.1239                16.9708                 8.5997

 - Thermochemistry -
 -------------------
 Temperature   298.150 Kelvin.  Pressure   1.00000 Atm.
 Atom     1 has atomic number  6 and mass  12.00000

 Molecular mass:   192.09727 amu.
 Principal axes and moments of inertia in atomic units:
                           1         2         3
     Eigenvalues --  1937.594193395.637574600.23964
           X            0.99927   0.03764   0.00717
           Y           -0.03751   0.99914  -0.01767
           Z           -0.00783   0.01739   0.99982
 This molecule is an asymmetric top.
 Rotational symmetry number  1.
 Warning -- assumption of classical behavior for rotation
           may cause significant error
 Rotational temperatures (Kelvin)      0.04470     0.02551     0.01883
 Rotational constants (GHZ):           0.93143     0.53149     0.39231
 Zero-point vibrational energy     650170.9 (Joules/Mol)
                                  155.39457 (Kcal/Mol)
 Warning -- explicit consideration of  21 degrees of freedom as
           vibrations may cause significant error
 Vibrational temperatures:     20.97    63.47    78.69   102.21   127.75
          (Kelvin)            181.11   267.79   290.85   318.43   323.79
                              393.24   471.51   484.51   501.77   549.35
                              620.30   645.93   657.20   702.02   767.59
                              832.14   906.97  1014.92  1018.66  1042.92
                             1044.59  1143.44  1217.70  1288.83  1302.00
                             1311.49  1360.80  1384.18  1446.12  1477.68
                             1482.95  1545.33  1556.21  1560.75  1567.44
                             1609.63  1710.39  1761.95  1768.91  1795.22
                             1892.90  1897.75  1914.28  2008.27  2061.25
                             2063.38  2075.73  2081.04  2099.12  2161.61
                             2164.36  2184.35  2188.33  2189.33  2203.86
                             2209.49  2216.68  2330.11  2394.52  2448.95
                             4377.15  4380.46  4389.35  4390.57  4414.18
                             4460.15  4477.02  4483.35  4492.45  4498.95
                             4505.00  4553.55  4574.67  4593.43  4626.00
                             4673.87

 Zero-point correction=                           0.247637 (Hartree/Particle)
 Thermal correction to Energy=                    0.262164
 Thermal correction to Enthalpy=                  0.263109
 Thermal correction to Gibbs Free Energy=         0.204419
 Sum of electronic and zero-point Energies=           -864.905056
 Sum of electronic and thermal Energies=              -864.890528
 Sum of electronic and thermal Enthalpies=            -864.889584
 Sum of electronic and thermal Free Energies=         -864.948274

                     E (Thermal)             CV                S
                      KCal/Mol        Cal/Mol-Kelvin    Cal/Mol-Kelvin
 Total                  164.511             53.418            123.523
 Electronic               0.000              0.000              0.000
 Translational            0.889              2.981             41.664
 Rotational               0.889              2.981             31.782
 Vibrational            162.733             47.457             50.078
 Vibration     1          0.593              1.986              7.263
 Vibration     2          0.595              1.980              5.065
 Vibration     3          0.596              1.976              4.640
 Vibration     4          0.598              1.968              4.124
 Vibration     5          0.602              1.957              3.687
 Vibration     6          0.611              1.927              3.008
 Vibration     7          0.632              1.859              2.266
 Vibration     8          0.639              1.837              2.113
 Vibration     9          0.648              1.809              1.948
 Vibration    10          0.650              1.803              1.918
 Vibration    11          0.676              1.723              1.575
 Vibration    12          0.711              1.620              1.271
 Vibration    13          0.717              1.602              1.227
 Vibration    14          0.726              1.578              1.172
 Vibration    15          0.751              1.509              1.032
 Vibration    16          0.792              1.402              0.855
 Vibration    17          0.808              1.363              0.799
 Vibration    18          0.815              1.346              0.776
 Vibration    19          0.844              1.277              0.689
 Vibration    20          0.888              1.176              0.579
 Vibration    21          0.935              1.078              0.488

                           ! Non-Optimized Parameters !
 Normal termination of Gaussian 16 at Thu Dec 10 00:00:00 2020.

 ----------------------------------------------------------------------
 # B3LYP/6-311++G(d,p) empiricaldispersion=gd3bj scf=xqc pop=npa geom=c
 heck
 ----------------------------------------------------------------------

 ---------------------------------------
 CID_126575518_JID_3655_Energie_neutraal
 ---------------------------------------
 Structure from the checkpoint file:  "JID_3655.chk"
 Charge =  0 Multiplicity = 1

 SCF Done:  E(RB3LYP) =  -865.302243747     A.U. after   15 cycles
 Normal termination of Gaussian 16 at Thu Dec 10 00:03:05 2020.

 ----------------------------------------------------------------------
 # B3LYP/6-311++G(d,p) empiricaldispersion=gd3bj scf=xqc pop=npa geom=c
 heck
 ----------------------------------------------------------------------

 -------------------------------------
 CID_126575518_JID_3655_Energie_kation
 -------------------------------------
 Structure from the checkpoint file:  "JID_3655.chk"
 Charge =  1 Multiplicity = 2

 SCF Done:  E(UB3LYP) =  -865.014459118     A.U. after   26 cycles
 Normal termination of Gaussian 16 at Thu Dec 10 00:10:03 2020.
 Gaussian 16:  ES64L-G16RevA.03 25-Dec-2016

 ----------------------------------------------------------------------
 # B3LYP/6-311++G(d,p) empiricaldispersion=gd3bj scf=xqc pop=npa geom=c
 heck
 ----------------------------------------------------------------------

 ------------------------------------
 CID_126575518_JID_3655_Energie_anion
 ------------------------------------
 Structure from the checkpoint file:  "JID_3655.chk"
 Charge = -1 Multiplicity = 2

                         Standard orientation:
 ---------------------------------------------------------------------
 Center     Atomic      Atomic             Coordinates (Angstroms)
 Number     Number       Type             X           Y           Z
 ---------------------------------------------------------------------
      1          6           0        0.691160    3.422274    0.012880
      2          6           0        0.920037    1.932126   -0.241909
      3          6           0       -0.303723    1.046038   -0.129588
      4          6           0       -0.244095   -0.321980   -0.475469
      5          6           0       -1.380682   -1.130989   -0.399642
      6          6           0       -2.613379   -0.624107    0.023712
      7          6           0       -2.669965    0.724567    0.381147
      8          6           0       -1.538201    1.536528    0.308889
      9          6           0       -3.825509   -1.517553    0.125566
     10         16           0        1.264922   -1.076821   -1.089820
     11          6           0        2.346873   -1.012481    0.342235
     12          6           0        3.651662   -0.794444    0.146340
     13          6           0        1.737049   -1.305770    1.684581
     14          1           0       -0.051751    3.841214   -0.675187
     15          1           0        1.626324    3.973535   -0.128856
     16          1           0        0.347900    3.613361    1.035980
     17          1           0        1.694756    1.565394    0.443738
     18          1           0        1.350355    1.791292   -1.241732
     19          1           0       -1.293885   -2.178523   -0.674384
     20          1           0       -3.611905    1.151287    0.717800
     21          1           0       -1.627796    2.581137    0.587067
     22          1           0       -3.802372   -2.310279   -0.629390
     23          1           0       -3.879414   -2.004887    1.108034
     24          1           0       -4.751902   -0.949185   -0.007124
     25          1           0        4.354955   -0.866500    0.971916
     26          1           0        4.056705   -0.560259   -0.833172
     27          1           0        0.970266   -0.566112    1.939778
     28          1           0        1.246747   -2.286172    1.685912
     29          1           0        2.504908   -1.291416    2.464286
 ---------------------------------------------------------------------

 SCF Done:  E(UB3LYP) =  -865.287002069     A.U. after   33 cycles
 SCF Done:  E(UB3LYP) =  -865.287002069     a.u. after    1 cycles

 The electronic state is 2-A.
 Alpha  occ. eigenvalues --  -88.74702 -10.11048 -10.09551 -10.08160 -10.07933
 Alpha  occ. eigenvalues --  -10.07071 -10.06959 -10.06838 -10.06805 -10.06711
 Alpha  occ. eigenvalues --  -10.06693 -10.06546 -10.05983  -7.83320  -5.79700
 Alpha  occ. eigenvalues --   -5.79331  -5.78723  -0.76705  -0.72507  -0.69493
 Alpha  occ. eigenvalues --   -0.66346  -0.64301  -0.60048  -0.59186  -0.58249
 Alpha  occ. eigenvalues --   -0.52747  -0.49242  -0.46846  -0.42767  -0.39147
 Alpha  occ. eigenvalues --   -0.37254  -0.36601  -0.35255  -0.33917  -0.33652
 Alpha  occ. eigenvalues --   -0.32307  -0.32127  -0.32037  -0.29516  -0.29422
 Alpha  occ. eigenvalues --   -0.27925  -0.27190  -0.26863  -0.26052  -0.24480
 Alpha  occ. eigenvalues --   -0.23853  -0.23427  -0.22276  -0.18546  -0.15534
 Alpha  occ. eigenvalues --   -0.13702  -0.12153   0.04586
 Alpha virt. eigenvalues --    0.06432   0.06941   0.07164   0.08041   0.08200
 Alpha virt. eigenvalues --    0.08431   0.09305   0.09551   0.10137   0.10612
 Alpha virt. eigenvalues --    0.10661   0.11051   0.11526   0.12464   0.12944

  Beta  occ. eigenvalues --  -88.74699 -10.11008 -10.09497 -10.08163 -10.07948
  Beta  occ. eigenvalues --  -10.07047 -10.06915 -10.06806 -10.06795 -10.06690
  Beta  occ. eigenvalues --  -10.06669 -10.06474 -10.05954  -7.83315  -5.79697
  Beta  occ. eigenvalues --   -5.79329  -5.78720  -0.76629  -0.72441  -0.69451
  Beta  occ. eigenvalues --   -0.66255  -0.64248  -0.59991  -0.59121  -0.58179
  Beta  occ. eigenvalues --   -0.52675  -0.49120  -0.46784  -0.42699  -0.39095
  Beta  occ. eigenvalues --   -0.37207  -0.36542  -0.35214  -0.33864  -0.33597
  Beta  occ. eigenvalues --   -0.32270  -0.32079  -0.31991  -0.29455  -0.29366
  Beta  occ. eigenvalues --   -0.27885  -0.27147  -0.26766  -0.25999  -0.24420
  Beta  occ. eigenvalues --   -0.23811  -0.23326  -0.22225  -0.18461  -0.15245
  Beta  occ. eigenvalues --   -0.13556  -0.12075
  Beta virt. eigenvalues --    0.06734   0.07196   0.07454   0.07745   0.08303
  Beta virt. eigenvalues --    0.08419   0.08982   0.09556   0.09832   0.10509
  Beta virt. eigenvalues --    0.10888   0.11063   0.11414   0.11630   0.12696

 Mulliken charges and spin densities:
               1          2
     1  C    0.726063  -1.338445
     2  C   -1.379343   0.762356
     3  C    1.704036  -0.526350
     4  C    0.664296   0.138292
     5  C   -1.702003   1.138370
     6  C   -0.679749   1.097199
     7  C    0.832232  -1.423802
     8  C   -1.216961   0.565919
     9  C    2.287280  -2.861599
    10  S   -0.469780  -0.032922
    11  C   -1.148268   1.559947
    12  C    0.085418  -0.635726
    13  C    1.112335  -1.783711
    14  H    0.026852   0.116311
    15  H   -0.466531   0.615421
    16  H   -0.248378   0.409692
    17  H    0.209778   0.005377
    18  H    0.081628   0.102327
    19  H    0.040961   0.130024
    20  H   -0.506399   0.670878
    21  H   -0.168810   0.303081
    22  H   -0.097044   0.235300
    23  H   -0.030115   0.199335
    24  H   -0.351496   0.494638
    25  H   -0.319764   0.450054
    26  H    0.172735  -0.040037
    27  H    0.073716   0.105002
    28  H   -0.062124   0.229865
    29  H   -0.170564   0.313205
 Sum of Mulliken charges =  -1.00000   1.00000

 Dipole moment (field-independent basis, Debye):
    X=              1.7642    Y=             -2.2824    Z=             -2.5649  Tot=              3.8601
 Quadrupole moment (field-independent basis, Debye-Ang):
   XX=           -157.9671   YY=           -135.7232   ZZ=           -120.0602
   XY=             -4.1145   XZ=             -4.7801   YZ=             -0.1425

 Summary of Natural Population Analysis:

                                       Natural Population
                Natural  -----------------------------------------------
    Atom  No    Charge         Core      Valence    Rydberg      Total
 -----------------------------------------------------------------------
      C    1   -0.28433      0.99967     2.28039    0.00427     3.28433
      C    2   -0.20440      0.99959     2.19561    0.00920     3.20440
      C    3   -0.01641      0.99944     2.00567    0.01131     3.01641
      C    4   -0.08302      0.99935     2.06945    0.01421     3.08302
      C    5   -0.09278      0.99944     2.08227    0.01107     3.09278
      C    6   -0.02226      0.99951     2.01273    0.01003     3.02226
      C    7   -0.08253      0.99951     2.07302    0.01000     3.08253
      C    8   -0.09803      0.99951     2.08850    0.01002     3.09803
      C    9   -0.28975      0.99964     2.28505    0.00506     3.28975
      S   10    0.12328      4.99945     2.85843    0.01883     7.87672
      C   11   -0.06952      0.99947     2.05672    0.01333     3.06952
      C   12   -0.21055      0.99945     2.20020    0.01090     3.21055
      C   13   -0.30726      0.99959     2.30038    0.00729     3.30726
      H   14    0.09587      0.00000     0.40285    0.00129     0.40413
      H   15    0.10094      0.00000     0.39802    0.00105     0.39906
      H   16    0.09844      0.00000     0.39996    0.00160     0.40156
      H   17    0.10795      0.00000     0.39025    0.00180     0.39205
      H   18    0.10612      0.00000     0.39261    0.00128     0.39388
      H   19    0.10125      0.00000     0.39750    0.00125     0.39875
      H   20    0.09863      0.00000     0.40017    0.00120     0.40137
      H   21    0.10237      0.00000     0.39630    0.00134     0.39763
      H   22    0.10036      0.00000     0.39854    0.00110     0.39964
      H   23    0.10380      0.00000     0.39495    0.00125     0.39620
      H   24    0.10422      0.00000     0.39409    0.00168     0.39578
      H   25    0.09664      0.00000     0.40226    0.00110     0.40336
      H   26    0.09642      0.00000     0.40261    0.00097     0.40358
      H   27    0.11303      0.00000     0.38533    0.00164     0.38697
      H   28    0.10679      0.00000     0.39220    0.00101     0.39321
      H   29    0.10474      0.00000     0.39388    0.00138     0.39526
 =======================================================================
   * Total *   -0.00000     16.99363    34.84991    0.15646    52.00000

 Normal termination of Gaussian 16 at Thu Dec 10 00:19:04 2020.
