 Gaussian 16, Revision A.03,

 -----------------------------------------------------------
 # opt freq B3LYP/6-31G(d) empiricaldispersion=gd3bj scf=xqc
 -----------------------------------------------------------

 -------------------------------
 CID_115877503_JID_4747_neutraal
 -------------------------------
 Symbolic Z-matrix:
 Charge =  0 Multiplicity = 1

 SCF Done:  E(RB3LYP) =  -703.827076554     A.U. after   15 cycles
 SCF Done:  E(RB3LYP) =  -703.834752933     A.U. after   13 cycles
 SCF Done:  E(RB3LYP) =  -703.835994605     A.U. after   13 cycles
 SCF Done:  E(RB3LYP) =  -703.835722898     A.U. after   13 cycles
 SCF Done:  E(RB3LYP) =  -703.837231770     A.U. after   12 cycles
 SCF Done:  E(RB3LYP) =  -703.837897449     A.U. after   12 cycles
 SCF Done:  E(RB3LYP) =  -703.838145573     A.U. after   12 cycles
 SCF Done:  E(RB3LYP) =  -703.838311503     A.U. after   11 cycles
 SCF Done:  E(RB3LYP) =  -703.838372371     A.U. after   12 cycles
 SCF Done:  E(RB3LYP) =  -703.838484324     A.U. after   11 cycles
 SCF Done:  E(RB3LYP) =  -703.839407315     A.U. after   11 cycles
 SCF Done:  E(RB3LYP) =  -703.839401394     A.U. after   10 cycles
 SCF Done:  E(RB3LYP) =  -703.839408883     A.U. after   10 cycles
 SCF Done:  E(RB3LYP) =  -703.839408983     A.U. after    8 cycles
 SCF Done:  E(RB3LYP) =  -703.839409116     A.U. after    7 cycles
 SCF Done:  E(RB3LYP) =  -703.839409195     A.U. after    7 cycles
 Optimization completed.
    -- Stationary point found.
 Normal termination of Gaussian 16 at Thu Dec 10 10:50:46 2020.

 --------------------------------------------------------------------
 #N Geom=AllCheck Guess=TCheck SCRF=Check GenChk RB3LYP/6-31G(d) Freq
 --------------------------------------------------------------------

 Structure from the checkpoint file:  "JID_4747.chk"
 -------------------------------
 CID_115877503_JID_4747_neutraal
 -------------------------------
 Charge =  0 Multiplicity = 1

 SCF Done:  E(RB3LYP) =  -703.839409195     A.U. after    1 cycles

  Exact polarizability: 138.387  -4.905 101.646   2.334   5.533  89.905
 Approx polarizability: 179.884 -10.107 147.001   5.310   7.781 141.541

                      1                      2                      3
                      A                      A                      A
 Frequencies --     37.3652                46.0339                72.3449
 Red. masses --      5.9656                 5.5228                 7.0146
 Frc consts  --      0.0049                 0.0069                 0.0216
 IR Inten    --      1.0254                 0.3706                 1.1797

                      4                      5                      6
                      A                      A                      A
 Frequencies --     91.0954               114.4035               136.8069
 Red. masses --      3.3236                 3.8413                 3.2472
 Frc consts  --      0.0162                 0.0296                 0.0358
 IR Inten    --      2.9191                 1.8197                 4.1269

                      7                      8                      9
                      A                      A                      A
 Frequencies --    176.3863               189.8600               230.5603
 Red. masses --      4.6842                 5.6022                 1.1917
 Frc consts  --      0.0859                 0.1190                 0.0373
 IR Inten    --      5.8562                 0.9399                26.3680

                     10                     11                     12
                      A                      A                      A
 Frequencies --    239.0306               267.4184               306.8800
 Red. masses --      3.4647                 2.7904                 3.0350
 Frc consts  --      0.1166                 0.1176                 0.1684
 IR Inten    --      5.6294                16.5116                 3.6167

                     13                     14                     15
                      A                      A                      A
 Frequencies --    316.1490               333.5846               357.6427
 Red. masses --      2.6365                 3.8650                 2.5422
 Frc consts  --      0.1553                 0.2534                 0.1916
 IR Inten    --     33.6950                 4.3748                46.8640

                     16                     17                     18
                      A                      A                      A
 Frequencies --    388.1669               399.3849               473.4141
 Red. masses --      3.0091                 1.3661                 1.6357
 Frc consts  --      0.2671                 0.1284                 0.2160
 IR Inten    --      5.1061               105.9287                18.0160

                     19                     20                     21
                      A                      A                      A
 Frequencies --    491.9716               526.7436               554.5839
 Red. masses --      2.9582                 2.9856                 1.3929
 Frc consts  --      0.4218                 0.4881                 0.2524
 IR Inten    --     20.3929                 2.3632                65.0904

                     22                     23                     24
                      A                      A                      A
 Frequencies --    568.2713               614.9913               647.6847
 Red. masses --      3.3785                 1.8477                 2.3743
 Frc consts  --      0.6428                 0.4117                 0.5868
 IR Inten    --     13.4885                74.1356                45.5420

                     25                     26                     27
                      A                      A                      A
 Frequencies --    690.4800               698.7067               716.8315
 Red. masses --      1.8788                 2.7119                 2.2925
 Frc consts  --      0.5278                 0.7800                 0.6941
 IR Inten    --     21.8754                79.4272                37.4766

                     28                     29                     30
                      A                      A                      A
 Frequencies --    783.2498               796.0712               815.6676
 Red. masses --      3.1234                 1.1078                 2.3099
 Frc consts  --      1.1290                 0.4136                 0.9055
 IR Inten    --      6.8035                 3.1530                21.3742

                     31                     32                     33
                      A                      A                      A
 Frequencies --    829.3556               923.3967               927.7025
 Red. masses --      2.9665                 2.1247                 1.9863
 Frc consts  --      1.2022                 1.0674                 1.0072
 IR Inten    --    145.1264                 1.1115                15.8388

                     34                     35                     36
                      A                      A                      A
 Frequencies --    942.2794               969.8272              1003.3092
 Red. masses --      1.5065                 3.3388                 1.5650
 Frc consts  --      0.7881                 1.8503                 0.9282
 IR Inten    --     14.8668                 1.1222                24.6933

                     37                     38                     39
                      A                      A                      A
 Frequencies --   1016.2003              1056.5668              1068.5980
 Red. masses --      2.2452                 1.5791                 1.7093
 Frc consts  --      1.3661                 1.0386                 1.1500
 IR Inten    --      5.3296                 8.0067                 7.3595

                     40                     41                     42
                      A                      A                      A
 Frequencies --   1085.3960              1099.6673              1102.1926
 Red. masses --      2.3062                 3.0252                 1.7316
 Frc consts  --      1.6008                 2.1554                 1.2394
 IR Inten    --     21.5773                51.0377                 9.4007

                     43                     44                     45
                      A                      A                      A
 Frequencies --   1121.6197              1175.0258              1201.6787
 Red. masses --      2.2236                 1.6376                 1.2850
 Frc consts  --      1.6481                 1.3322                 1.0933
 IR Inten    --     12.5014                45.7389                 6.6852

                     46                     47                     48
                      A                      A                      A
 Frequencies --   1215.0592              1231.5822              1297.0963
 Red. masses --      1.2983                 2.6683                 2.5333
 Frc consts  --      1.1293                 2.3846                 2.5112
 IR Inten    --     11.4810                79.8404                13.7432

                     49                     50                     51
                      A                      A                      A
 Frequencies --   1316.0386              1339.7107              1361.5550
 Red. masses --      1.4450                 1.6467                 2.0491
 Frc consts  --      1.4745                 1.7413                 2.2381
 IR Inten    --     47.5458               158.4004                64.0441

                     52                     53                     54
                      A                      A                      A
 Frequencies --   1406.8880              1417.3094              1430.9739
 Red. masses --      1.8237                 1.3870                 1.3356
 Frc consts  --      2.1267                 1.6415                 1.6114
 IR Inten    --     19.5812                 7.1789                13.0063

                     55                     56                     57
                      A                      A                      A
 Frequencies --   1439.1035              1447.8909              1480.0007
 Red. masses --      2.1017                 1.6026                 1.3913
 Frc consts  --      2.5645                 1.9795                 1.7956
 IR Inten    --    186.6014                49.8299                30.1505

                     58                     59                     60
                      A                      A                      A
 Frequencies --   1482.1443              1494.7845              1517.4774
 Red. masses --      1.2157                 1.4575                 1.1581
 Frc consts  --      1.5735                 1.9188                 1.5712
 IR Inten    --     11.1713                14.9983                 4.6849

                     61                     62                     63
                      A                      A                      A
 Frequencies --   1529.3592              1533.7192              1542.1300
 Red. masses --      1.0902                 1.2702                 1.0598
 Frc consts  --      1.5023                 1.7604                 1.4849
 IR Inten    --      6.6482                 4.3967                 4.8829

                     64                     65                     66
                      A                      A                      A
 Frequencies --   1659.1197              1765.2103              1822.1937
 Red. masses --      1.2485                 5.9923                 6.3206
 Frc consts  --      2.0248                11.0011                12.3650
 IR Inten    --    299.5348               293.5293               445.9180

                     67                     68                     69
                      A                      A                      A
 Frequencies --   3009.0678              3024.2919              3069.9176
 Red. masses --      1.0684                 1.0821                 1.0413
 Frc consts  --      5.6996                 5.8314                 5.7821
 IR Inten    --     59.1823                30.3846                19.2434

                     70                     71                     72
                      A                      A                      A
 Frequencies --   3089.5507              3136.9355              3153.8432
 Red. masses --      1.0964                 1.1012                 1.0533
 Frc consts  --      6.1660                 6.3844                 6.1728
 IR Inten    --     30.3240                15.4185                12.1938

                     73                     74                     75
                      A                      A                      A
 Frequencies --   3157.0172              3192.5564              3237.7455
 Red. masses --      1.0597                 1.0967                 1.1179
 Frc consts  --      6.2226                 6.5856                 6.9047
 IR Inten    --      6.6356                23.4759                 0.2777

                     76                     77                     78
                      A                      A                      A
 Frequencies --   3250.1318              3510.1761              3540.6908
 Red. masses --      1.1148                 1.0523                 1.0743
 Frc consts  --      6.9381                 7.6389                 7.9347
 IR Inten    --     10.7819                73.8595                12.7717

                     79                     80                     81
                      A                      A                      A
 Frequencies --   3617.1082              3642.0287              3769.6700
 Red. masses --      1.0762                 1.0942                 1.0661
 Frc consts  --      8.2963                 8.5514                 8.9262
 IR Inten    --     20.4077                66.6690                13.5408

 - Thermochemistry -
 -------------------
 Temperature   298.150 Kelvin.  Pressure   1.00000 Atm.
 Atom     1 has atomic number  6 and mass  12.00000

 Molecular mass:   201.11134 amu.
 Principal axes and moments of inertia in atomic units:
                           1         2         3
     Eigenvalues --  1377.400714834.128165075.69496
           X            0.99997  -0.00174   0.00786
           Y            0.00129   0.99838   0.05682
           Z           -0.00794  -0.05680   0.99835
 This molecule is an asymmetric top.
 Rotational symmetry number  1.
 Warning -- assumption of classical behavior for rotation
           may cause significant error
 Rotational temperatures (Kelvin)      0.06288     0.01792     0.01706
 Rotational constants (GHZ):           1.31025     0.37333     0.35557
 Zero-point vibrational energy     644396.5 (Joules/Mol)
                                  154.01445 (Kcal/Mol)
 Warning -- explicit consideration of  23 degrees of freedom as
           vibrations may cause significant error
 Vibrational temperatures:     53.76    66.23   104.09   131.07   164.60
          (Kelvin)            196.83   253.78   273.17   331.72   343.91
                              384.76   441.53   454.87   479.95   514.57
                              558.49   574.63   681.14   707.84   757.87
                              797.92   817.62   884.84   931.87   993.45
                             1005.28  1031.36  1126.92  1145.37  1173.56
                             1193.26  1328.56  1334.76  1355.73  1395.37
                             1443.54  1462.09  1520.16  1537.47  1561.64
                             1582.18  1585.81  1613.76  1690.60  1728.95
                             1748.20  1771.97  1866.23  1893.49  1927.54
                             1958.97  2024.20  2039.19  2058.85  2070.55
                             2083.19  2129.39  2132.48  2150.66  2183.31
                             2200.41  2206.68  2218.78  2387.10  2539.74
                             2621.73  4329.38  4351.28  4416.93  4445.17
                             4513.35  4537.68  4542.24  4593.38  4658.39
                             4676.21  5050.36  5094.26  5204.21  5240.07
                             5423.71

 Zero-point correction=                           0.245438 (Hartree/Particle)
 Thermal correction to Energy=                    0.260285
 Thermal correction to Enthalpy=                  0.261230
 Thermal correction to Gibbs Free Energy=         0.203346
 Sum of electronic and zero-point Energies=           -703.593972
 Sum of electronic and thermal Energies=              -703.579124
 Sum of electronic and thermal Enthalpies=            -703.578180
 Sum of electronic and thermal Free Energies=         -703.636064

                     E (Thermal)             CV                S
                      KCal/Mol        Cal/Mol-Kelvin    Cal/Mol-Kelvin
 Total                  163.332             55.832            121.827
 Electronic               0.000              0.000              0.000
 Translational            0.889              2.981             41.801
 Rotational               0.889              2.981             31.891
 Vibrational            161.554             49.871             48.135
 Vibration     1          0.594              1.982              5.394
 Vibration     2          0.595              1.979              4.981
 Vibration     3          0.598              1.967              4.089
 Vibration     4          0.602              1.956              3.636
 Vibration     5          0.607              1.937              3.193
 Vibration     6          0.614              1.917              2.848
 Vibration     7          0.628              1.871              2.366
 Vibration     8          0.633              1.854              2.229
 Vibration     9          0.652              1.794              1.875
 Vibration    10          0.657              1.781              1.810
 Vibration    11          0.673              1.733              1.613
 Vibration    12          0.697              1.661              1.379
 Vibration    13          0.703              1.643              1.330
 Vibration    14          0.715              1.608              1.243
 Vibration    15          0.733              1.560              1.132
 Vibration    16          0.756              1.495              1.007
 Vibration    17          0.765              1.471              0.965
 Vibration    18          0.830              1.309              0.728
 Vibration    19          0.848              1.268              0.679
 Vibration    20          0.882              1.191              0.595
 Vibration    21          0.910              1.130              0.535
 Vibration    22          0.924              1.100              0.508
 Vibration    23          0.974              1.000              0.425

 Optimization completed.
    -- Stationary point found.
 Normal termination of Gaussian 16 at Thu Dec 10 10:58:49 2020.

 ----------------------------------------------------------------------
 # B3LYP/6-311++G(d,p) empiricaldispersion=gd3bj scf=xqc pop=npa geom=c
 heck
 ----------------------------------------------------------------------

 ---------------------------------------
 CID_115877503_JID_4747_Energie_neutraal
 ---------------------------------------
 Structure from the checkpoint file:  "JID_4747.chk"
 Charge =  0 Multiplicity = 1

 SCF Done:  E(RB3LYP) =  -704.069806500     A.U. after   15 cycles
 Normal termination of Gaussian 16 at Thu Dec 10 11:02:06 2020.

 ----------------------------------------------------------------------
 # B3LYP/6-311++G(d,p) empiricaldispersion=gd3bj scf=xqc pop=npa geom=c
 heck
 ----------------------------------------------------------------------

 -------------------------------------
 CID_115877503_JID_4747_Energie_kation
 -------------------------------------
 Structure from the checkpoint file:  "JID_4747.chk"
 Charge =  1 Multiplicity = 2

 SCF Done:  E(UB3LYP) =  -703.748475585     A.U. after   27 cycles
 Normal termination of Gaussian 16 at Thu Dec 10 11:09:55 2020.
 Gaussian 16:  ES64L-G16RevA.03 25-Dec-2016

 ----------------------------------------------------------------------
 # B3LYP/6-311++G(d,p) empiricaldispersion=gd3bj scf=xqc pop=npa geom=c
 heck
 ----------------------------------------------------------------------

 ------------------------------------
 CID_115877503_JID_4747_Energie_anion
 ------------------------------------
 Structure from the checkpoint file:  "JID_4747.chk"
 Charge = -1 Multiplicity = 2

                         Standard orientation:
 ---------------------------------------------------------------------
 Center     Atomic      Atomic             Coordinates (Angstroms)
 Number     Number       Type             X           Y           Z
 ---------------------------------------------------------------------
      1          6           0        0.076060   -1.783670   -0.757663
      2          6           0        0.796739   -0.482527   -0.380879
      3          6           0        0.168744    0.255073    0.827574
      4          8           0        0.822096    0.476271    1.842497
      5          7           0       -1.081894    0.816649    0.716778
      6          6           0       -2.215930    0.535219   -0.122512
      7          6           0       -2.813950    1.719053   -0.853307
      8          6           0       -2.077256    0.656505   -1.621345
      9          6           0       -3.215255   -0.445634    0.480613
     10          8           0       -2.669447   -1.703303    0.836858
     11          7           0        2.189057   -0.813979   -0.117866
     12          6           0        3.258262    0.068180   -0.200956
     13          8           0        4.375044   -0.310498   -0.530199
     14          7           0        2.941340    1.386463    0.093103
     15          1           0       -0.011551   -2.442212    0.111173
     16          1           0        0.645763   -2.298393   -1.538666
     17          1           0       -0.916680   -1.580938   -1.154668
     18          1           0        0.737820    0.216802   -1.227005
     19          1           0       -1.313400    1.294261    1.583387
     20          1           0       -3.895859    1.770072   -0.940096
     21          1           0       -2.319072    2.675535   -0.720379
     22          1           0       -1.106339    0.912788   -2.029677
     23          1           0       -2.653608   -0.031706   -2.234497
     24          1           0       -3.594354   -0.021950    1.417518
     25          1           0       -4.073252   -0.550147   -0.201496
     26          1           0       -2.491912   -2.198004    0.023843
     27          1           0        2.475272   -1.740153   -0.404162
     28          1           0        2.312381    1.486172    0.886274
     29          1           0        3.779240    1.950981    0.161956
 ---------------------------------------------------------------------

 SCF Done:  E(UB3LYP) =  -704.066254733     A.U. after   31 cycles

 The electronic state is 2-A.
 Alpha  occ. eigenvalues --  -19.02671 -19.00266 -18.99105 -14.24921 -14.23586
 Alpha  occ. eigenvalues --  -14.22919 -10.20121 -10.18681 -10.13650 -10.13431
 Alpha  occ. eigenvalues --  -10.12618 -10.08716 -10.08688 -10.07945  -0.96017
 Alpha  occ. eigenvalues --   -0.95184  -0.93083  -0.84631  -0.83765  -0.79883
 Alpha  occ. eigenvalues --   -0.75824  -0.67761  -0.61313  -0.57507  -0.53151
 Alpha  occ. eigenvalues --   -0.52259  -0.51387  -0.47496  -0.44954  -0.44199
 Alpha  occ. eigenvalues --   -0.41368  -0.40750  -0.39120  -0.38532  -0.36855
 Alpha  occ. eigenvalues --   -0.35443  -0.34471  -0.34059  -0.33111  -0.32531
 Alpha  occ. eigenvalues --   -0.32074  -0.30251  -0.29017  -0.28322  -0.27123
 Alpha  occ. eigenvalues --   -0.25589  -0.23024  -0.21075  -0.19995  -0.19642
 Alpha  occ. eigenvalues --   -0.17856  -0.17286  -0.16454  -0.15766   0.04001
 Alpha virt. eigenvalues --    0.06697   0.06835   0.08139   0.08431   0.09198
 Alpha virt. eigenvalues --    0.09642   0.09858   0.10718   0.11220   0.11646
 Alpha virt. eigenvalues --    0.12650   0.12782   0.13287   0.13854   0.14477

  Beta  occ. eigenvalues --  -19.02633 -19.00243 -18.99103 -14.24908 -14.23583
  Beta  occ. eigenvalues --  -14.22911 -10.20120 -10.18645 -10.13642 -10.13433
  Beta  occ. eigenvalues --  -10.12581 -10.08684 -10.08634 -10.07900  -0.95982
  Beta  occ. eigenvalues --   -0.95163  -0.92999  -0.84601  -0.83753  -0.79869
  Beta  occ. eigenvalues --   -0.75789  -0.67716  -0.61229  -0.57416  -0.53082
  Beta  occ. eigenvalues --   -0.52183  -0.51346  -0.47440  -0.44917  -0.44154
  Beta  occ. eigenvalues --   -0.41321  -0.40667  -0.39083  -0.38431  -0.36833
  Beta  occ. eigenvalues --   -0.35401  -0.34425  -0.33980  -0.33096  -0.32492
  Beta  occ. eigenvalues --   -0.32018  -0.30209  -0.28963  -0.28260  -0.27061
  Beta  occ. eigenvalues --   -0.25536  -0.22960  -0.21033  -0.19943  -0.19630
  Beta  occ. eigenvalues --   -0.17844  -0.17262  -0.16417  -0.15725
  Beta virt. eigenvalues --    0.06502   0.07349   0.07754   0.08507   0.08892
  Beta virt. eigenvalues --    0.09601   0.10172   0.10248   0.11289   0.11484
  Beta virt. eigenvalues --    0.12104   0.12816   0.13214   0.13432   0.14026

 Mulliken charges and spin densities:
               1          2
     1  C    0.999352  -1.733858
     2  C   -0.304679   0.390467
     3  C    0.086091  -0.173709
     4  O   -0.320997   0.008295
     5  N   -0.023593   0.018957
     6  C   -3.570601   3.311323
     7  C    1.023131  -1.311160
     8  C    1.534961  -1.819894
     9  C    2.122293  -2.509878
    10  O   -0.178121   0.001999
    11  N   -0.216450   0.091656
    12  C    0.047296   0.089626
    13  O   -0.382228  -0.001046
    14  N   -0.386741   0.004305
    15  H    0.113375   0.083129
    16  H   -0.198888   0.333831
    17  H   -0.871775   1.029292
    18  H   -0.000450   0.308725
    19  H    0.211222   0.071221
    20  H   -0.264195   0.438453
    21  H   -0.079233   0.237300
    22  H    0.253064  -0.137879
    23  H   -0.760151   0.971948
    24  H   -0.017146   0.193059
    25  H   -0.572024   0.753556
    26  H    0.002319   0.244739
    27  H    0.317212  -0.005176
    28  H    0.205213   0.043222
    29  H    0.231743   0.067498
 Sum of Mulliken charges =  -1.00000   1.00000

 Dipole moment (field-independent basis, Debye):
    X=              3.7067    Y=              3.9033    Z=              3.8749  Tot=              6.6326
 Quadrupole moment (field-independent basis, Debye-Ang):
   XX=           -170.0212   YY=           -114.1584   ZZ=           -126.2334
   XY=             -5.7443   XZ=            -11.3466   YZ=             -1.4978

 Summary of Natural Population Analysis:

                                       Natural Population
                Natural  -----------------------------------------------
    Atom  No    Charge         Core      Valence    Rydberg      Total
 -----------------------------------------------------------------------
      C    1   -0.28635      0.99964     2.27952    0.00720     3.28635
      C    2   -0.05054      0.99956     2.03957    0.01141     3.05054
      C    3    0.35817      0.99965     1.61947    0.02271     2.64183
      O    4   -0.33264      0.99987     3.32697    0.00580     4.33264
      N    5   -0.31495      0.99964     2.80432    0.01099     3.81495
      C    6    0.03079      0.99953     1.95467    0.01501     2.96921
      C    7   -0.19097      0.99959     2.18203    0.00935     3.19097
      C    8   -0.19550      0.99958     2.18436    0.01155     3.19550
      C    9   -0.00746      0.99952     1.99397    0.01396     3.00746
      O   10   -0.36767      0.99990     3.36102    0.00675     4.36767
      N   11   -0.32788      0.99966     2.81857    0.00965     3.82788
      C   12    0.40754      0.99975     1.57022    0.02250     2.59246
      O   13   -0.34037      0.99987     3.33513    0.00536     4.34037
      N   14   -0.42537      0.99971     2.91812    0.00754     3.92537
      H   15    0.10569      0.00000     0.39315    0.00116     0.39431
      H   16    0.10199      0.00000     0.39666    0.00135     0.39801
      H   17    0.10918      0.00000     0.38858    0.00225     0.39082
      H   18    0.10489      0.00000     0.39248    0.00264     0.39511
      H   19    0.19158      0.00000     0.30591    0.00252     0.30842
      H   20    0.10729      0.00000     0.39122    0.00149     0.39271
      H   21    0.10566      0.00000     0.39328    0.00106     0.39434
      H   22    0.10728      0.00000     0.39109    0.00163     0.39272
      H   23    0.11626      0.00000     0.37733    0.00642     0.38374
      H   24    0.08440      0.00000     0.41419    0.00141     0.41560
      H   25    0.08848      0.00000     0.40877    0.00275     0.41152
      H   26    0.23418      0.00000     0.25998    0.00584     0.26582
      H   27    0.19378      0.00000     0.30392    0.00230     0.30622
      H   28    0.20398      0.00000     0.29408    0.00194     0.29602
      H   29    0.18860      0.00000     0.30979    0.00162     0.31140
 =======================================================================
   * Total *   -0.00000     13.99547    39.80837    0.19616    54.00000

 Normal termination of Gaussian 16 at Thu Dec 10 11:18:16 2020.
