 Gaussian 16, Revision A.03,

 -----------------------------------------------------------
 # opt freq B3LYP/6-31G(d) empiricaldispersion=gd3bj scf=xqc
 -----------------------------------------------------------

 ------------------------------
 CID_11357532_JID_8280_neutraal
 ------------------------------
 Symbolic Z-matrix:
 Charge =  0 Multiplicity = 1

 SCF Done:  E(RB3LYP) =  -1197.80633983     A.U. after   15 cycles
 SCF Done:  E(RB3LYP) =  -1197.82964531     A.U. after   13 cycles
 SCF Done:  E(RB3LYP) =  -1197.83294910     A.U. after   14 cycles
 SCF Done:  E(RB3LYP) =  -1197.83029326     A.U. after   15 cycles
 SCF Done:  E(RB3LYP) =  -1197.83433018     A.U. after   13 cycles
 SCF Done:  E(RB3LYP) =  -1197.83503778     A.U. after   12 cycles
 SCF Done:  E(RB3LYP) =  -1197.83537185     A.U. after   12 cycles
 SCF Done:  E(RB3LYP) =  -1197.83559411     A.U. after   12 cycles
 SCF Done:  E(RB3LYP) =  -1197.83575248     A.U. after   12 cycles
 SCF Done:  E(RB3LYP) =  -1197.83601291     A.U. after   12 cycles
 SCF Done:  E(RB3LYP) =  -1197.83603228     A.U. after   12 cycles
 SCF Done:  E(RB3LYP) =  -1197.83605541     A.U. after   11 cycles
 SCF Done:  E(RB3LYP) =  -1197.83606202     A.U. after   11 cycles
 SCF Done:  E(RB3LYP) =  -1197.83606243     A.U. after    8 cycles
 SCF Done:  E(RB3LYP) =  -1197.83606267     A.U. after    8 cycles
 Optimization completed.
    -- Stationary point found.
 Normal termination of Gaussian 16 at Fri Dec 11 19:53:23 2020.

 --------------------------------------------------------------------
 #N Geom=AllCheck Guess=TCheck SCRF=Check GenChk RB3LYP/6-31G(d) Freq
 --------------------------------------------------------------------

 Structure from the checkpoint file:  "JID_8280.chk"
 ------------------------------
 CID_11357532_JID_8280_neutraal
 ------------------------------
 Charge =  0 Multiplicity = 1

 SCF Done:  E(RB3LYP) =  -1197.83606267     A.U. after    1 cycles

  Exact polarizability: 216.174  -1.093 157.326  15.900   4.081 105.923
 Approx polarizability: 305.972  -4.520 305.456  38.066  11.100 172.600

                      1                      2                      3
                      A                      A                      A
 Frequencies --     28.6062                35.0864                66.3306
 Red. masses --      4.9314                 4.1210                 4.0893
 Frc consts  --      0.0024                 0.0030                 0.0106
 IR Inten    --      1.0977                 0.8540                 1.0538

                      4                      5                      6
                      A                      A                      A
 Frequencies --     94.0986               142.3876               154.8687
 Red. masses --      5.7371                 5.4868                 5.4979
 Frc consts  --      0.0299                 0.0655                 0.0777
 IR Inten    --      0.7118                 0.3275                 9.4992

                      7                      8                      9
                      A                      A                      A
 Frequencies --    172.8587               175.1112               248.1060
 Red. masses --      3.6578                 7.5555                 6.9695
 Frc consts  --      0.0644                 0.1365                 0.2528
 IR Inten    --      0.2498                 1.3422                 1.2012

                     10                     11                     12
                      A                      A                      A
 Frequencies --    262.5183               274.9799               282.8508
 Red. masses --      4.2118                 4.4752                 3.4786
 Frc consts  --      0.1710                 0.1994                 0.1640
 IR Inten    --      1.9984                 2.3060                 2.0147

                     13                     14                     15
                      A                      A                      A
 Frequencies --    342.2940               354.7230               383.6136
 Red. masses --      4.3231                 7.8569                 4.2036
 Frc consts  --      0.2984                 0.5825                 0.3645
 IR Inten    --      3.8815                14.8395                 1.9823

                     16                     17                     18
                      A                      A                      A
 Frequencies --    408.1826               415.4234               460.8916
 Red. masses --      8.0159                 3.2286                 5.4374
 Frc consts  --      0.7869                 0.3283                 0.6805
 IR Inten    --     11.7933                 0.3529                 5.0312

                     19                     20                     21
                      A                      A                      A
 Frequencies --    466.5499               509.9698               533.7091
 Red. masses --      4.9774                 2.4171                 7.4197
 Frc consts  --      0.6383                 0.3704                 1.2452
 IR Inten    --      0.1840                10.8645                11.1142

                     22                     23                     24
                      A                      A                      A
 Frequencies --    573.3469               605.5468               632.6403
 Red. masses --      8.5563                 4.2838                 9.7575
 Frc consts  --      1.6572                 0.9255                 2.3009
 IR Inten    --      1.9705                 0.1350                18.4858

                     25                     26                     27
                      A                      A                      A
 Frequencies --    678.9902               695.5480               716.0913
 Red. masses --      4.9677                 3.0858                 3.3632
 Frc consts  --      1.3494                 0.8796                 1.0161
 IR Inten    --      3.1794                33.0873                83.0485

                     28                     29                     30
                      A                      A                      A
 Frequencies --    717.8669               732.7836               786.7468
 Red. masses --      7.5021                 5.7928                 6.3489
 Frc consts  --      2.2778                 1.8327                 2.3153
 IR Inten    --      3.3050                 9.6925                 0.3228

                     31                     32                     33
                      A                      A                      A
 Frequencies --    796.1930               806.0531               859.1680
 Red. masses --      1.6482                 1.4371                 7.1694
 Frc consts  --      0.6156                 0.5501                 3.1181
 IR Inten    --      7.2157                 1.0194                54.0040

                     34                     35                     36
                      A                      A                      A
 Frequencies --    889.4047               895.6356               909.6161
 Red. masses --      2.6948                 7.8185                 1.3875
 Frc consts  --      1.2560                 3.6952                 0.6764
 IR Inten    --      2.4517                26.8036                 0.4440

                     37                     38                     39
                      A                      A                      A
 Frequencies --    911.8113               921.4170               969.4581
 Red. masses --      2.2517                 1.5056                 1.3796
 Frc consts  --      1.1030                 0.7532                 0.7639
 IR Inten    --      7.9981                16.4870                 0.9409

                     40                     41                     42
                      A                      A                      A
 Frequencies --    988.9016              1005.0044              1011.6734
 Red. masses --      1.7787                 1.2959                 1.6262
 Frc consts  --      1.0248                 0.7712                 0.9806
 IR Inten    --      1.1768                 0.0055                23.6268

                     43                     44                     45
                      A                      A                      A
 Frequencies --   1019.2366              1047.0352              1055.8881
 Red. masses --      4.1183                 2.0508                 1.8691
 Frc consts  --      2.5207                 1.3246                 1.2278
 IR Inten    --    106.8560                16.8469                 1.4686

                     46                     47                     48
                      A                      A                      A
 Frequencies --   1098.1026              1100.2670              1123.2920
 Red. masses --      2.6090                 1.3472                 5.3993
 Frc consts  --      1.8536                 0.9609                 4.0140
 IR Inten    --     44.5906                10.7871                36.4029

                     49                     50                     51
                      A                      A                      A
 Frequencies --   1168.6378              1189.8860              1199.5466
 Red. masses --      1.3542                 1.1963                 2.1535
 Frc consts  --      1.0897                 0.9979                 1.8257
 IR Inten    --     32.0141                19.2493                 2.1186

                     52                     53                     54
                      A                      A                      A
 Frequencies --   1221.7484              1230.1618              1234.2498
 Red. masses --      3.7028                 1.5141                 4.9847
 Frc consts  --      3.2564                 1.3500                 4.4740
 IR Inten    --     70.3640                 7.9456               150.2821

                     55                     56                     57
                      A                      A                      A
 Frequencies --   1243.9519              1301.7278              1314.6025
 Red. masses --      1.4165                 1.2550                 1.3484
 Frc consts  --      1.2914                 1.2529                 1.3730
 IR Inten    --      5.6747                17.3296                12.0705

                     58                     59                     60
                      A                      A                      A
 Frequencies --   1318.9389              1345.8804              1362.2329
 Red. masses --      1.5720                10.4517                 1.4136
 Frc consts  --      1.6112                11.1545                 1.5455
 IR Inten    --      1.1341               178.2706                 4.2227

                     61                     62                     63
                      A                      A                      A
 Frequencies --   1380.0481              1410.4220              1494.1041
 Red. masses --      1.2872                 6.2673                 1.0790
 Frc consts  --      1.4444                 7.3456                 1.4191
 IR Inten    --      2.2172                61.8341                 2.0411

                     64                     65                     66
                      A                      A                      A
 Frequencies --   1496.8745              1511.5071              1513.6384
 Red. masses --      1.0944                 2.5955                 2.4376
 Frc consts  --      1.4448                 3.4938                 3.2905
 IR Inten    --     33.1593                 0.6890                 7.0732

                     67                     68                     69
                      A                      A                      A
 Frequencies --   1517.9408              1530.9738              1664.3373
 Red. masses --      1.0856                 1.1030                 7.0796
 Frc consts  --      1.4737                 1.5232                11.5542
 IR Inten    --      5.5704                 1.3872                 3.8936

                     70                     71                     72
                      A                      A                      A
 Frequencies --   1666.4962              1800.7601              1850.6554
 Red. masses --      6.9023                12.7883                12.9220
 Frc consts  --     11.2942                24.4329                26.0754
 IR Inten    --     13.7573               488.4802                45.7708

                     73                     74                     75
                      A                      A                      A
 Frequencies --   3066.5898              3070.3938              3098.2904
 Red. masses --      1.0660                 1.0603                 1.0640
 Frc consts  --      5.9066                 5.8891                 6.0180
 IR Inten    --     14.1439                27.1670                 4.2434

                     76                     77                     78
                      A                      A                      A
 Frequencies --   3111.7287              3117.2616              3123.9952
 Red. masses --      1.0719                 1.0878                 1.1012
 Frc consts  --      6.1153                 6.2280                 6.3322
 IR Inten    --      8.6412                17.8853                21.6463

                     79                     80                     81
                      A                      A                      A
 Frequencies --   3177.0135              3179.7801              3197.2814
 Red. masses --      1.1091                 1.1065                 1.0868
 Frc consts  --      6.5960                 6.5916                 6.5460
 IR Inten    --      2.3544                 5.9490                 2.0517

                     82                     83                     84
                      A                      A                      A
 Frequencies --   3210.4114              3222.2886              3225.6079
 Red. masses --      1.0907                 1.0935                 1.0961
 Frc consts  --      6.6234                 6.6894                 6.7196
 IR Inten    --     10.1750                 5.7883                12.5817

 - Thermochemistry -
 -------------------
 Temperature   298.150 Kelvin.  Pressure   1.00000 Atm.
 Atom     1 has atomic number  6 and mass  12.00000

 Molecular mass:   264.05686 amu.
 Principal axes and moments of inertia in atomic units:
                           1         2         3
     Eigenvalues --  2193.835676913.065247344.68831
           X            0.99992   0.00355  -0.01209
           Y           -0.00354   0.99999   0.00049
           Z            0.01209  -0.00044   0.99993
 This molecule is an asymmetric top.
 Rotational symmetry number  1.
 Warning -- assumption of classical behavior for rotation
           may cause significant error
 Rotational temperatures (Kelvin)      0.03948     0.01253     0.01179
 Rotational constants (GHZ):           0.82264     0.26106     0.24572
 Zero-point vibrational energy     604896.8 (Joules/Mol)
                                  144.57380 (Kcal/Mol)
 Warning -- explicit consideration of  23 degrees of freedom as
           vibrations may cause significant error
 Vibrational temperatures:     41.16    50.48    95.43   135.39   204.86
          (Kelvin)            222.82   248.71   251.95   356.97   377.71
                              395.63   406.96   492.48   510.37   551.93
                              587.28   597.70   663.12   671.26   733.73
                              767.89   824.92   871.25   910.23   976.92
                             1000.74  1030.30  1032.85  1054.31  1131.95
                             1145.54  1159.73  1236.15  1279.65  1288.62
                             1308.73  1311.89  1325.71  1394.83  1422.81
                             1445.98  1455.57  1466.45  1506.45  1519.19
                             1579.92  1583.04  1616.17  1681.41  1711.98
                             1725.88  1757.82  1769.93  1775.81  1789.77
                             1872.90  1891.42  1897.66  1936.42  1959.95
                             1985.58  2029.28  2149.68  2153.67  2174.72
                             2177.79  2183.98  2202.73  2394.61  2397.72
                             2590.89  2662.68  4412.14  4417.61  4457.75
                             4477.08  4485.04  4494.73  4571.01  4574.99
                             4600.17  4619.07  4636.15  4640.93

 Zero-point correction=                           0.230393 (Hartree/Particle)
 Thermal correction to Energy=                    0.245560
 Thermal correction to Enthalpy=                  0.246504
 Thermal correction to Gibbs Free Energy=         0.187036
 Sum of electronic and zero-point Energies=          -1197.605670
 Sum of electronic and thermal Energies=             -1197.590503
 Sum of electronic and thermal Enthalpies=           -1197.589559
 Sum of electronic and thermal Free Energies=        -1197.649027

                     E (Thermal)             CV                S
                      KCal/Mol        Cal/Mol-Kelvin    Cal/Mol-Kelvin
 Total                  154.091             59.291            125.161
 Electronic               0.000              0.000              0.000
 Translational            0.889              2.981             42.612
 Rotational               0.889              2.981             33.076
 Vibrational            152.313             53.329             49.472
 Vibration     1          0.593              1.984              5.924
 Vibration     2          0.594              1.982              5.519
 Vibration     3          0.598              1.970              4.259
 Vibration     4          0.603              1.953              3.573
 Vibration     5          0.616              1.911              2.772
 Vibration     6          0.620              1.897              2.612
 Vibration     7          0.626              1.876              2.404
 Vibration     8          0.627              1.873              2.380
 Vibration     9          0.662              1.766              1.744
 Vibration    10          0.670              1.741              1.645
 Vibration    11          0.677              1.720              1.565
 Vibration    12          0.682              1.705              1.516
 Vibration    13          0.721              1.591              1.201
 Vibration    14          0.731              1.566              1.145
 Vibration    15          0.753              1.505              1.025
 Vibration    16          0.773              1.452              0.933
 Vibration    17          0.779              1.437              0.908
 Vibration    18          0.819              1.337              0.764
 Vibration    19          0.824              1.324              0.747
 Vibration    20          0.865              1.228              0.634
 Vibration    21          0.889              1.175              0.579
 Vibration    22          0.930              1.089              0.498
 Vibration    23          0.964              1.020              0.440

                           ! Non-Optimized Parameters !
 Normal termination of Gaussian 16 at Fri Dec 11 20:04:52 2020.

 ----------------------------------------------------------------------
 # B3LYP/6-311++G(d,p) empiricaldispersion=gd3bj scf=xqc pop=npa geom=c
 heck
 ----------------------------------------------------------------------

 --------------------------------------
 CID_11357532_JID_8280_Energie_neutraal
 --------------------------------------
 Structure from the checkpoint file:  "JID_8280.chk"
 Charge =  0 Multiplicity = 1

 SCF Done:  E(RB3LYP) =  -1198.08159114     A.U. after   16 cycles
 Normal termination of Gaussian 16 at Fri Dec 11 20:09:35 2020.

 ----------------------------------------------------------------------
 # B3LYP/6-311++G(d,p) empiricaldispersion=gd3bj scf=xqc pop=npa geom=c
 heck
 ----------------------------------------------------------------------

 ------------------------------------
 CID_11357532_JID_8280_Energie_kation
 ------------------------------------
 Structure from the checkpoint file:  "JID_8280.chk"
 Charge =  1 Multiplicity = 2

 SCF Done:  E(UB3LYP) =  -1197.76683680     A.U. after   31 cycles
 Normal termination of Gaussian 16 at Fri Dec 11 20:21:56 2020.
 Gaussian 16:  ES64L-G16RevA.03 25-Dec-2016

 ----------------------------------------------------------------------
 # B3LYP/6-311++G(d,p) empiricaldispersion=gd3bj scf=xqc pop=npa geom=c
 heck
 ----------------------------------------------------------------------

 -----------------------------------
 CID_11357532_JID_8280_Energie_anion
 -----------------------------------
 Structure from the checkpoint file:  "JID_8280.chk"
 Charge = -1 Multiplicity = 2

                         Standard orientation:
 ---------------------------------------------------------------------
 Center     Atomic      Atomic             Coordinates (Angstroms)
 Number     Number       Type             X           Y           Z
 ---------------------------------------------------------------------
      1          6           0       -2.723295   -0.968452    1.908882
      2          6           0       -1.924139    0.339202    2.095686
      3          6           0       -2.277392    1.248901    0.920543
      4         16           0       -2.427172    0.128189   -0.543618
      5          7           0       -1.154895    0.185546   -1.516203
      6          7           0        0.040030    0.093158   -0.778320
      7          6           0        0.787925   -1.104430   -0.691206
      8          8           0        0.363177   -2.221322   -0.906070
      9          6           0        2.146173   -0.693854   -0.238466
     10          6           0        3.258822   -1.467527    0.051774
     11          6           0        4.415746   -0.800353    0.476168
     12          6           0        4.438353    0.593186    0.608989
     13          6           0        3.304796    1.365376    0.321770
     14          6           0        2.168742    0.696618   -0.105898
     15          6           0        0.826128    1.229295   -0.469683
     16          8           0        0.439841    2.379872   -0.471707
     17          8           0       -3.686367    0.355048   -1.269829
     18          6           0       -2.517107   -1.421501    0.463145
     19          1           0       -3.786226   -0.777780    2.095731
     20          1           0       -2.396626   -1.742160    2.610163
     21          1           0       -2.160262    0.821520    3.048999
     22          1           0       -0.849414    0.123338    2.091311
     23          1           0       -1.542864    2.015453    0.670663
     24          1           0       -3.270774    1.695547    1.022770
     25          1           0        3.227595   -2.547147   -0.053594
     26          1           0        5.310262   -1.371693    0.705577
     27          1           0        5.350057    1.081873    0.939425
     28          1           0        3.308568    2.445889    0.422308
     29          1           0       -1.576492   -1.952507    0.301455
     30          1           0       -3.336726   -2.001835    0.035356
 ---------------------------------------------------------------------

 SCF Done:  E(UB3LYP) =  -1198.12165699     A.U. after   22 cycles

 The electronic state is 2-A.
 Alpha  occ. eigenvalues --  -88.91824 -19.01131 -18.94645 -18.94621 -14.23700
 Alpha  occ. eigenvalues --  -14.20013 -10.11513 -10.11489 -10.10592 -10.10579
 Alpha  occ. eigenvalues --  -10.10481 -10.10194 -10.04736 -10.04729 -10.04271
 Alpha  occ. eigenvalues --  -10.04220 -10.02830 -10.02777  -7.98730  -5.94968
 Alpha  occ. eigenvalues --   -5.94805  -5.94779  -0.97110  -0.91702  -0.89090
 Alpha  occ. eigenvalues --   -0.84469  -0.76924  -0.74121  -0.70779  -0.65708
 Alpha  occ. eigenvalues --   -0.63467  -0.62048  -0.59853  -0.51901  -0.51566
 Alpha  occ. eigenvalues --   -0.51256  -0.47101  -0.45953  -0.43553  -0.41576
 Alpha  occ. eigenvalues --   -0.39931  -0.37239  -0.36786  -0.35717  -0.34721
 Alpha  occ. eigenvalues --   -0.33750  -0.33075  -0.32084  -0.30931  -0.30604
 Alpha  occ. eigenvalues --   -0.29736  -0.29184  -0.28639  -0.28268  -0.28038
 Alpha  occ. eigenvalues --   -0.26503  -0.24657  -0.24082  -0.23698  -0.22398
 Alpha  occ. eigenvalues --   -0.22022  -0.20639  -0.19559  -0.13930  -0.13413
 Alpha  occ. eigenvalues --   -0.13395  -0.13128  -0.10865  -0.10467   0.02100
 Alpha virt. eigenvalues --    0.06224   0.08473   0.08678   0.08966   0.09727
 Alpha virt. eigenvalues --    0.10208   0.10426   0.11435   0.12042   0.12086
 Alpha virt. eigenvalues --    0.12918   0.13130   0.14005   0.14776   0.15138

  Beta  occ. eigenvalues --  -88.91827 -19.01131 -18.94210 -18.94182 -14.23807
  Beta  occ. eigenvalues --  -14.20019 -10.11279 -10.11256 -10.10592 -10.10579
  Beta  occ. eigenvalues --  -10.10481 -10.10194 -10.04780 -10.04773 -10.04128
  Beta  occ. eigenvalues --  -10.04075 -10.02607 -10.02553  -7.98733  -5.94970
  Beta  occ. eigenvalues --   -5.94809  -5.94782  -0.97112  -0.91232  -0.88315
  Beta  occ. eigenvalues --   -0.84186  -0.76835  -0.73818  -0.70624  -0.65708
  Beta  occ. eigenvalues --   -0.63198  -0.61785  -0.59675  -0.51821  -0.51468
  Beta  occ. eigenvalues --   -0.50412  -0.47054  -0.45598  -0.43488  -0.41554
  Beta  occ. eigenvalues --   -0.39787  -0.37165  -0.36606  -0.35560  -0.34593
  Beta  occ. eigenvalues --   -0.33683  -0.32646  -0.31767  -0.30856  -0.30060
  Beta  occ. eigenvalues --   -0.29531  -0.29138  -0.28273  -0.28135  -0.27725
  Beta  occ. eigenvalues --   -0.26360  -0.23595  -0.23496  -0.22465  -0.22221
  Beta  occ. eigenvalues --   -0.21788  -0.19924  -0.19541  -0.13248  -0.12988
  Beta  occ. eigenvalues --   -0.12342  -0.11937  -0.10315  -0.10158
  Beta virt. eigenvalues --    0.06219   0.08448   0.08538   0.08695   0.08974
  Beta virt. eigenvalues --    0.10175   0.10192   0.10452   0.11431   0.12017
  Beta virt. eigenvalues --    0.12072   0.12910   0.13123   0.14011   0.14799

 Mulliken charges and spin densities:
               1          2
     1  C   -0.377717  -0.000489
     2  C   -0.249454   0.003848
     3  C   -0.441537  -0.005274
     4  S    0.340708   0.000663
     5  N   -0.157770  -0.003239
     6  N    0.067867  -0.061839
     7  C   -0.233964   0.132409
     8  O   -0.382155   0.153108
     9  C    0.902783   0.136789
    10  C   -0.742854  -0.002722
    11  C   -0.365628   0.111141
    12  C   -0.371747   0.111184
    13  C   -0.742636   0.000857
    14  C    0.886225   0.134911
    15  C   -0.244438   0.144681
    16  O   -0.391079   0.154751
    17  O   -0.158547  -0.000621
    18  C   -0.493196  -0.000772
    19  H    0.142039   0.000694
    20  H    0.171456  -0.000387
    21  H    0.170985   0.001589
    22  H    0.185612  -0.001019
    23  H    0.252104   0.003714
    24  H    0.231102  -0.001561
    25  H    0.155518   0.002636
    26  H    0.112821  -0.009652
    27  H    0.113676  -0.009602
    28  H    0.155288   0.002565
    29  H    0.237379   0.001511
    30  H    0.227162   0.000125
 Sum of Mulliken charges =  -1.00000   1.00000

 Dipole moment (field-independent basis, Debye):
    X=             -3.8589    Y=             -1.0713    Z=              7.1054  Tot=              8.1564
 Quadrupole moment (field-independent basis, Debye-Ang):
   XX=           -147.8085   YY=           -135.8941   ZZ=           -127.0457
   XY=              2.9667   XZ=            -13.9924   YZ=              0.1924

 Summary of Natural Population Analysis:

                                       Natural Population
                Natural  -----------------------------------------------
    Atom  No    Charge         Core      Valence    Rydberg      Total
 -----------------------------------------------------------------------
      C    1   -0.19949      0.99964     2.19284    0.00702     3.19949
      C    2   -0.20128      0.99963     2.19448    0.00716     3.20128
      C    3   -0.29327      0.99960     2.28397    0.00971     3.29327
      S    4    0.93816      4.99916     1.98189    0.08079     7.06184
      N    5   -0.35749      0.99976     2.84188    0.01585     3.85749
      N    6   -0.21822      0.99959     2.70503    0.01360     3.71822
      C    7    0.36996      0.99962     1.60797    0.02245     2.63004
      O    8   -0.27073      0.99987     3.26440    0.00646     4.27073
      C    9   -0.01410      0.99943     2.00626    0.00841     3.01410
      C   10   -0.10007      0.99953     2.09130    0.00924     3.10007
      C   11   -0.08370      0.99959     2.07471    0.00941     3.08370
      C   12   -0.08368      0.99959     2.07468    0.00941     3.08368
      C   13   -0.09997      0.99953     2.09120    0.00923     3.09997
      C   14   -0.01391      0.99943     2.00608    0.00840     3.01391
      C   15    0.36940      0.99962     1.60823    0.02275     2.63060
      O   16   -0.26914      0.99987     3.26291    0.00636     4.26914
      O   17   -0.46384      0.99991     3.45820    0.00572     4.46384
      C   18   -0.29625      0.99959     2.28588    0.01078     3.29625
      H   19    0.09458      0.00000     0.40410    0.00132     0.40542
      H   20    0.10440      0.00000     0.39449    0.00110     0.39560
      H   21    0.10124      0.00000     0.39759    0.00116     0.39876
      H   22    0.11036      0.00000     0.38844    0.00121     0.38964
      H   23    0.13973      0.00000     0.35873    0.00154     0.36027
      H   24    0.10833      0.00000     0.39036    0.00131     0.39167
      H   25    0.10057      0.00000     0.39819    0.00124     0.39943
      H   26    0.08874      0.00000     0.41024    0.00102     0.41126
      H   27    0.08877      0.00000     0.41021    0.00102     0.41123
      H   28    0.10066      0.00000     0.39811    0.00123     0.39934
      H   29    0.13577      0.00000     0.36265    0.00158     0.36423
      H   30    0.11447      0.00000     0.38436    0.00117     0.38553
 =======================================================================
   * Total *   -0.00000     21.99297    46.72937    0.27766    69.00000

 Normal termination of Gaussian 16 at Fri Dec 11 20:30:41 2020.
