 Gaussian 16, Revision A.03,

 -----------------------------------------------------------
 # opt freq B3LYP/6-31G(d) empiricaldispersion=gd3bj scf=xqc
 -----------------------------------------------------------

 -------------------------------
 CID_152514730_JID_1535_neutraal
 -------------------------------
 Symbolic Z-matrix:
 Charge =  0 Multiplicity = 1

 SCF Done:  E(RB3LYP) =  -886.498910998     A.U. after   16 cycles
 SCF Done:  E(RB3LYP) =  -886.504088375     A.U. after   15 cycles
 SCF Done:  E(RB3LYP) =  -886.505155364     A.U. after   13 cycles
 SCF Done:  E(RB3LYP) =  -886.505304380     A.U. after   13 cycles
 SCF Done:  E(RB3LYP) =  -886.505409573     A.U. after   13 cycles
 SCF Done:  E(RB3LYP) =  -886.505466564     A.U. after   12 cycles
 SCF Done:  E(RB3LYP) =  -886.505474668     A.U. after   13 cycles
 SCF Done:  E(RB3LYP) =  -886.505491064     A.U. after   11 cycles
 SCF Done:  E(RB3LYP) =  -886.505495475     A.U. after   10 cycles
 SCF Done:  E(RB3LYP) =  -886.505498023     A.U. after   10 cycles
 SCF Done:  E(RB3LYP) =  -886.505500830     A.U. after    9 cycles
 SCF Done:  E(RB3LYP) =  -886.505501839     A.U. after    9 cycles
 SCF Done:  E(RB3LYP) =  -886.505502171     A.U. after    9 cycles
 SCF Done:  E(RB3LYP) =  -886.505502304     A.U. after    9 cycles
 Optimization completed.
    -- Stationary point found.
 Normal termination of Gaussian 16 at Tue Dec  8 20:21:08 2020.

 --------------------------------------------------------------------
 #N Geom=AllCheck Guess=TCheck SCRF=Check GenChk RB3LYP/6-31G(d) Freq
 --------------------------------------------------------------------

 Structure from the checkpoint file:  "JID_1535.chk"
 -------------------------------
 CID_152514730_JID_1535_neutraal
 -------------------------------
 Charge =  0 Multiplicity = 1

 SCF Done:  E(RB3LYP) =  -886.505502304     A.U. after    1 cycles

  Exact polarizability: 135.714  -1.180  77.868   8.607  -8.243  80.237
 Approx polarizability: 183.539 -16.795 140.283  20.632 -33.318 147.099

                      1                      2                      3
                      A                      A                      A
 Frequencies --     22.4142                37.6206                67.4570
 Red. masses --      7.5181                 6.4748                 9.3046
 Frc consts  --      0.0022                 0.0054                 0.0249
 IR Inten    --      0.8353                 1.1044                 0.9099

                      4                      5                      6
                      A                      A                      A
 Frequencies --    139.7074               145.1975               172.2077
 Red. masses --      7.2058                 1.0839                 5.0505
 Frc consts  --      0.0829                 0.0135                 0.0882
 IR Inten    --      1.8947                 0.1429                 1.0985

                      7                      8                      9
                      A                      A                      A
 Frequencies --    210.4462               283.6156               286.5700
 Red. masses --      4.2809                 2.6422                 4.1990
 Frc consts  --      0.1117                 0.1252                 0.2032
 IR Inten    --      4.1263                 7.3977                 1.5383

                     10                     11                     12
                      A                      A                      A
 Frequencies --    365.2476               424.6188               487.9957
 Red. masses --      6.2179                 5.8159                 8.5352
 Frc consts  --      0.4887                 0.6178                 1.1976
 IR Inten    --      2.6495                 3.3111                 2.0842

                     13                     14                     15
                      A                      A                      A
 Frequencies --    570.4099               629.0788               649.6405
 Red. masses --     13.3970                 4.0870                 7.8853
 Frc consts  --      2.5682                 0.9529                 1.9607
 IR Inten    --     24.0278                 3.0572                59.8497

                     16                     17                     18
                      A                      A                      A
 Frequencies --    682.5595               687.7261               697.8735
 Red. masses --      4.8287                 6.2108                 9.5968
 Frc consts  --      1.3254                 1.7307                 2.7538
 IR Inten    --      6.5419                12.9169                 9.0477

                     19                     20                     21
                      A                      A                      A
 Frequencies --    839.3278               910.3358               957.2894
 Red. masses --      1.3047                 3.6326                 2.7222
 Frc consts  --      0.5415                 1.7737                 1.4698
 IR Inten    --     13.6365                54.2060                 9.2969

                     22                     23                     24
                      A                      A                      A
 Frequencies --    971.5136               980.0899              1039.6362
 Red. masses --      4.3477                 3.1632                 2.1710
 Frc consts  --      2.4177                 1.7902                 1.3825
 IR Inten    --      0.6414                13.7871                15.4097

                     25                     26                     27
                      A                      A                      A
 Frequencies --   1083.1264              1158.7775              1192.7462
 Red. masses --      1.4490                 2.5851                 9.5321
 Frc consts  --      1.0015                 2.0452                 7.9898
 IR Inten    --      2.2612                38.0111                94.7985

                     28                     29                     30
                      A                      A                      A
 Frequencies --   1253.9830              1269.4665              1299.0473
 Red. masses --      2.6396                 1.2181                 1.8817
 Frc consts  --      2.4456                 1.1566                 1.8709
 IR Inten    --      6.7040                 1.3125               215.1773

                     31                     32                     33
                      A                      A                      A
 Frequencies --   1330.9188              1370.0900              1447.1603
 Red. masses --      3.0957                 1.8832                 1.2728
 Frc consts  --      3.2308                 2.0828                 1.5706
 IR Inten    --     31.4699                38.2221                 0.9125

                     34                     35                     36
                      A                      A                      A
 Frequencies --   1485.1368              1501.1505              1517.7625
 Red. masses --      1.0976                 1.0419                 1.1487
 Frc consts  --      1.4264                 1.3834                 1.5591
 IR Inten    --     10.9944                 7.5775                25.9327

                     37                     38                     39
                      A                      A                      A
 Frequencies --   1550.6442              1666.2282              2266.8568
 Red. masses --      6.1331                 6.4693                13.6760
 Frc consts  --      8.6886                10.5823                41.4054
 IR Inten    --     70.2416                13.7902               518.3925

                     40                     41                     42
                      A                      A                      A
 Frequencies --   3049.9719              3080.0990              3102.7628
 Red. masses --      1.0374                 1.0671                 1.1020
 Frc consts  --      5.6858                 5.9648                 6.2506
 IR Inten    --     28.8471                21.1137                13.0302

                     43                     44                     45
                      A                      A                      A
 Frequencies --   3143.7398              3199.3159              3279.8051
 Red. masses --      1.1000                 1.1003                 1.0982
 Frc consts  --      6.4052                 6.6353                 6.9606
 IR Inten    --      8.8421                 0.7764                 7.9805

 - Thermochemistry -
 -------------------
 Temperature   298.150 Kelvin.  Pressure   1.00000 Atm.
 Atom     1 has atomic number  6 and mass  12.00000

 Molecular mass:   170.02623 amu.
 Principal axes and moments of inertia in atomic units:
                           1         2         3
     Eigenvalues --   810.074043777.024813796.43614
           X            0.99971   0.01920   0.01451
           Y           -0.02377   0.69379   0.71979
           Z           -0.00376   0.71992  -0.69404
 This molecule is an asymmetric top.
 Rotational symmetry number  1.
 Warning -- assumption of classical behavior for rotation
           may cause significant error
 Rotational temperatures (Kelvin)      0.10692     0.02293     0.02281
 Rotational constants (GHZ):           2.22787     0.47782     0.47538
 Zero-point vibrational energy     314063.8 (Joules/Mol)
                                   75.06305 (Kcal/Mol)
 Warning -- explicit consideration of  13 degrees of freedom as
           vibrations may cause significant error
 Vibrational temperatures:     32.25    54.13    97.06   201.01   208.91
          (Kelvin)            247.77   302.79   408.06   412.31   525.51
                              610.93   702.12   820.69   905.10   934.69
                              982.05   989.48  1004.08  1207.61  1309.77
                             1377.33  1397.79  1410.13  1495.80  1558.38
                             1667.22  1716.10  1804.20  1826.48  1869.04
                             1914.90  1971.25  2082.14  2136.78  2159.82
                             2183.72  2231.03  2397.33  3261.50  4388.23
                             4431.58  4464.18  4523.14  4603.10  4718.91

 Zero-point correction=                           0.119621 (Hartree/Particle)
 Thermal correction to Energy=                    0.130442
 Thermal correction to Enthalpy=                  0.131387
 Thermal correction to Gibbs Free Energy=         0.080494
 Sum of electronic and zero-point Energies=           -886.385882
 Sum of electronic and thermal Energies=              -886.375060
 Sum of electronic and thermal Enthalpies=            -886.374116
 Sum of electronic and thermal Free Energies=         -886.425008

                     E (Thermal)             CV                S
                      KCal/Mol        Cal/Mol-Kelvin    Cal/Mol-Kelvin
 Total                   81.854             37.146            107.112
 Electronic               0.000              0.000              0.000
 Translational            0.889              2.981             41.300
 Rotational               0.889              2.981             30.830
 Vibrational             80.076             31.185             34.982
 Vibration     1          0.593              1.985              6.408
 Vibration     2          0.594              1.982              5.381
 Vibration     3          0.598              1.970              4.226
 Vibration     4          0.615              1.914              2.808
 Vibration     5          0.617              1.908              2.734
 Vibration     6          0.626              1.877              2.411
 Vibration     7          0.643              1.825              2.040
 Vibration     8          0.682              1.704              1.512
 Vibration     9          0.684              1.699              1.494
 Vibration    10          0.738              1.544              1.100
 Vibration    11          0.787              1.417              0.876
 Vibration    12          0.844              1.277              0.689
 Vibration    13          0.927              1.095              0.503

                           ! Non-Optimized Parameters !
 Normal termination of Gaussian 16 at Tue Dec  8 20:23:41 2020.

 ----------------------------------------------------------------------
 # B3LYP/6-311++G(d,p) empiricaldispersion=gd3bj scf=xqc pop=npa geom=c
 heck
 ----------------------------------------------------------------------

 ---------------------------------------
 CID_152514730_JID_1535_Energie_neutraal
 ---------------------------------------
 Structure from the checkpoint file:  "JID_1535.chk"
 Charge =  0 Multiplicity = 1

 SCF Done:  E(RB3LYP) =  -886.667006807     A.U. after   16 cycles
 Normal termination of Gaussian 16 at Tue Dec  8 20:25:19 2020.

 ----------------------------------------------------------------------
 # B3LYP/6-311++G(d,p) empiricaldispersion=gd3bj scf=xqc pop=npa geom=c
 heck
 ----------------------------------------------------------------------

 -------------------------------------
 CID_152514730_JID_1535_Energie_kation
 -------------------------------------
 Structure from the checkpoint file:  "JID_1535.chk"
 Charge =  1 Multiplicity = 2

 SCF Done:  E(UB3LYP) =  -886.364487629     A.U. after   22 cycles
 Normal termination of Gaussian 16 at Tue Dec  8 20:28:22 2020.
 Gaussian 16:  ES64L-G16RevA.03 25-Dec-2016

 ----------------------------------------------------------------------
 # B3LYP/6-311++G(d,p) empiricaldispersion=gd3bj scf=xqc pop=npa geom=c
 heck
 ----------------------------------------------------------------------

 ------------------------------------
 CID_152514730_JID_1535_Energie_anion
 ------------------------------------
 Structure from the checkpoint file:  "JID_1535.chk"
 Charge = -1 Multiplicity = 2

                         Standard orientation:
 ---------------------------------------------------------------------
 Center     Atomic      Atomic             Coordinates (Angstroms)
 Number     Number       Type             X           Y           Z
 ---------------------------------------------------------------------
      1          6           0       -3.960008   -0.999989    0.159387
      2          6           0       -2.692507   -0.304451   -0.172199
      3          6           0       -2.209744    0.380733   -1.238803
      4          7           0       -0.916504    0.831967   -0.973123
      5          6           0       -0.674872    0.396930    0.223104
      6          8           0       -1.691767   -0.304297    0.789005
      7         16           0        0.764823    0.607828    1.213125
      8          6           0        1.913895    1.112984   -0.141168
      9          7           0        2.391039    0.021600   -0.985293
     10          7           0        3.110962   -0.813861   -0.422161
     11          7           0        3.772862   -1.651143   -0.021138
     12          1           0       -3.791081   -2.061974    0.373547
     13          1           0       -4.443662   -0.556133    1.037729
     14          1           0       -4.649331   -0.925560   -0.686038
     15          1           0       -2.693799    0.586675   -2.182599
     16          1           0        1.372893    1.791526   -0.797020
     17          1           0        2.732860    1.637423    0.362424
 ---------------------------------------------------------------------

 SCF Done:  E(UB3LYP) =  -886.661688915     A.U. after   33 cycles
 SCF Done:  E(UB3LYP) =  -886.661688915     a.u. after    1 cycles

 The electronic state is 2-A.
 Alpha  occ. eigenvalues --  -88.75396 -19.09365 -14.32860 -14.23571 -14.22809
 Alpha  occ. eigenvalues --  -14.20302 -10.17383 -10.13079 -10.12490 -10.09348
 Alpha  occ. eigenvalues --  -10.07997  -7.84006  -5.80397  -5.80002  -5.79421
 Alpha  occ. eigenvalues --   -1.02980  -1.00238  -0.84878  -0.81948  -0.71573
 Alpha  occ. eigenvalues --   -0.67445  -0.61004  -0.56976  -0.51449  -0.47037
 Alpha  occ. eigenvalues --   -0.43021  -0.40321  -0.38662  -0.38013  -0.37369
 Alpha  occ. eigenvalues --   -0.33708  -0.32924  -0.31898  -0.31608  -0.30858
 Alpha  occ. eigenvalues --   -0.29661  -0.28752  -0.25370  -0.22155  -0.19100
 Alpha  occ. eigenvalues --   -0.18539  -0.17732  -0.13100  -0.11290   0.04597
 Alpha virt. eigenvalues --    0.05888   0.08453   0.08724   0.09271   0.10040
 Alpha virt. eigenvalues --    0.10860   0.10977   0.12242   0.12740   0.13497
 Alpha virt. eigenvalues --    0.13708   0.14426   0.14569   0.15984   0.16575

  Beta  occ. eigenvalues --  -88.75379 -19.09344 -14.32549 -14.23120 -14.22874
  Beta  occ. eigenvalues --  -14.20284 -10.17363 -10.13073 -10.12279 -10.09335
  Beta  occ. eigenvalues --  -10.07941  -7.83990  -5.80353  -5.79981  -5.79413
  Beta  occ. eigenvalues --   -1.02952  -0.99619  -0.84560  -0.81907  -0.71453
  Beta  occ. eigenvalues --   -0.67278  -0.60803  -0.56840  -0.51387  -0.46982
  Beta  occ. eigenvalues --   -0.42840  -0.39923  -0.38096  -0.37860  -0.36898
  Beta  occ. eigenvalues --   -0.33494  -0.32329  -0.31739  -0.31536  -0.30124
  Beta  occ. eigenvalues --   -0.29474  -0.28648  -0.24974  -0.22080  -0.19058
  Beta  occ. eigenvalues --   -0.18265  -0.17241  -0.12958  -0.11207
  Beta virt. eigenvalues --    0.07127   0.08004   0.09235   0.09517   0.10194
  Beta virt. eigenvalues --    0.10744   0.11256   0.11661   0.12567   0.12951
  Beta virt. eigenvalues --    0.13733   0.13813   0.14506   0.14728   0.15969

 Mulliken charges and spin densities:
               1          2
     1  C    2.788166  -3.401355
     2  C   -1.643022   2.006963
     3  C    0.047578  -0.210707
     4  N    0.006369   0.012271
     5  C   -0.298882   0.082770
     6  O   -0.002534   0.012974
     7  S   -0.254433   0.217347
     8  C   -0.093542  -0.537699
     9  N   -0.825840   0.384801
    10  N    0.620278  -0.087913
    11  N    0.047905   0.049410
    12  H   -0.227045   0.387871
    13  H   -0.267771   0.424252
    14  H   -0.678242   0.848244
    15  H   -0.075655   0.230538
    16  H    0.155087   0.069290
    17  H   -0.298416   0.510944
 Sum of Mulliken charges =  -1.00000   1.00000

 Dipole moment (field-independent basis, Debye):
    X=              1.5943    Y=              2.4499    Z=              0.9062  Tot=              3.0602
 Quadrupole moment (field-independent basis, Debye-Ang):
   XX=           -153.2245   YY=            -95.4143   ZZ=            -91.5936
   XY=             -2.6629   XZ=             -0.3952   YZ=              0.4878

 Summary of Natural Population Analysis:

                                       Natural Population
                Natural  -----------------------------------------------
    Atom  No    Charge         Core      Valence    Rydberg      Total
 -----------------------------------------------------------------------
      C    1   -0.30699      0.99963     2.30130    0.00606     3.30699
      C    2    0.13041      0.99947     1.85592    0.01420     2.86959
      C    3   -0.04646      0.99948     2.03273    0.01424     3.04646
      N    4   -0.26832      0.99966     2.75893    0.00973     3.76832
      C    5    0.18721      0.99958     1.78870    0.02451     2.81279
      O    6   -0.24426      0.99985     3.23660    0.00781     4.24426
      S    7    0.12271      4.99952     2.85867    0.01909     7.87729
      C    8   -0.14414      0.99958     2.12798    0.01658     3.14414
      N    9   -0.21399      0.99970     2.69919    0.01511     3.71399
      N   10    0.13882      0.99970     2.34514    0.01633     3.36118
      N   11    0.00449      0.99982     2.48155    0.01414     3.49551
      H   12    0.10860      0.00000     0.38981    0.00160     0.39140
      H   13    0.10763      0.00000     0.39088    0.00148     0.39237
      H   14    0.11313      0.00000     0.38422    0.00265     0.38687
      H   15    0.10168      0.00000     0.39735    0.00097     0.39832
      H   16    0.11479      0.00000     0.38356    0.00165     0.38521
      H   17    0.09470      0.00000     0.40311    0.00219     0.40530
 =======================================================================
   * Total *    0.00000     14.99599    28.83567    0.16833    44.00000

 Normal termination of Gaussian 16 at Tue Dec  8 20:32:58 2020.
