 Gaussian 16, Revision A.03,

 -----------------------------------------------------------
 # opt freq B3LYP/6-31G(d) empiricaldispersion=gd3bj scf=xqc
 -----------------------------------------------------------

 -------------------------------
 CID_129743602_JID_3242_neutraal
 -------------------------------
 Symbolic Z-matrix:
 Charge =  0 Multiplicity = 1

 SCF Done:  E(RB3LYP) =  -535.927531138     A.U. after   14 cycles
 SCF Done:  E(RB3LYP) =  -535.932446221     A.U. after   12 cycles
 SCF Done:  E(RB3LYP) =  -535.933175161     A.U. after   11 cycles
 SCF Done:  E(RB3LYP) =  -535.933299933     A.U. after   11 cycles
 SCF Done:  E(RB3LYP) =  -535.933325937     A.U. after   10 cycles
 SCF Done:  E(RB3LYP) =  -535.933333656     A.U. after   10 cycles
 SCF Done:  E(RB3LYP) =  -535.933334936     A.U. after    8 cycles
 Optimization completed.
    -- Stationary point found.
 Normal termination of Gaussian 16 at Wed Dec  9 22:26:05 2020.

 --------------------------------------------------------------------
 #N Geom=AllCheck Guess=TCheck SCRF=Check GenChk RB3LYP/6-31G(d) Freq
 --------------------------------------------------------------------

 Structure from the checkpoint file:  "JID_3242.chk"
 -------------------------------
 CID_129743602_JID_3242_neutraal
 -------------------------------
 Charge =  0 Multiplicity = 1

 SCF Done:  E(RB3LYP) =  -535.933334936     A.U. after    1 cycles

  Exact polarizability: 180.639 -12.662 132.361  -0.587  -0.725  61.838
 Approx polarizability: 264.145 -30.793 231.944   2.044  -3.614  97.071

                      1                      2                      3
                      A                      A                      A
 Frequencies --     80.7294               137.4923               173.3039
 Red. masses --      3.5725                 3.4275                 2.9090
 Frc consts  --      0.0137                 0.0382                 0.0515
 IR Inten    --      0.3817                 0.3571                 1.3513

                      4                      5                      6
                      A                      A                      A
 Frequencies --    203.9392               241.7566               323.7994
 Red. masses --      4.2591                 2.2166                 2.0507
 Frc consts  --      0.1044                 0.0763                 0.1267
 IR Inten    --      0.1763                 5.7670                15.6797

                      7                      8                      9
                      A                      A                      A
 Frequencies --    344.5675               402.7093               430.0330
 Red. masses --      3.1814                 4.4228                 2.9237
 Frc consts  --      0.2225                 0.4226                 0.3186
 IR Inten    --      5.9545                 2.2516                 1.7755

                     10                     11                     12
                      A                      A                      A
 Frequencies --    481.4474               496.2331               519.5482
 Red. masses --      3.9501                 3.6306                 2.0836
 Frc consts  --      0.5395                 0.5267                 0.3314
 IR Inten    --     36.4524                 7.2414               122.4418

                     13                     14                     15
                      A                      A                      A
 Frequencies --    525.9819               592.6048               620.0185
 Red. masses --      2.7279                 3.7025                 5.1281
 Frc consts  --      0.4446                 0.7661                 1.1615
 IR Inten    --     12.0891                 2.0472                 7.0017

                     16                     17                     18
                      A                      A                      A
 Frequencies --    631.9510               734.4633               739.5119
 Red. masses --      3.5243                 1.9150                 3.2460
 Frc consts  --      0.8293                 0.6086                 1.0459
 IR Inten    --     70.8916                16.2312                20.9777

                     19                     20                     21
                      A                      A                      A
 Frequencies --    752.2782               769.8727               827.8056
 Red. masses --      2.2991                 1.9336                 2.1226
 Frc consts  --      0.7666                 0.6752                 0.8570
 IR Inten    --     28.1963                39.9948               125.1927

                     22                     23                     24
                      A                      A                      A
 Frequencies --    832.8023               869.1515               916.1758
 Red. masses --      4.4283                 1.3396                 1.4589
 Frc consts  --      1.8096                 0.5962                 0.7215
 IR Inten    --     18.1452                 2.0775                 1.2148

                     25                     26                     27
                      A                      A                      A
 Frequencies --    926.7559               965.5984               968.5438
 Red. masses --      2.7545                 1.6888                 1.4734
 Frc consts  --      1.3938                 0.9277                 0.8143
 IR Inten    --      5.5653                 3.1030                 4.0506

                     28                     29                     30
                      A                      A                      A
 Frequencies --    974.4205               995.9043              1036.5237
 Red. masses --      1.6654                 3.0266                 3.7462
 Frc consts  --      0.9317                 1.7686                 2.3714
 IR Inten    --      6.2686                58.5959                13.1698

                     31                     32                     33
                      A                      A                      A
 Frequencies --   1056.2154              1103.1583              1127.0413
 Red. masses --      2.0929                 3.7445                 1.9656
 Frc consts  --      1.3756                 2.6848                 1.4711
 IR Inten    --      2.3810                22.3465                 2.5145

                     34                     35                     36
                      A                      A                      A
 Frequencies --   1144.6803              1161.1212              1175.2746
 Red. masses --      1.9231                 1.1738                 2.8053
 Frc consts  --      1.4846                 0.9324                 2.2830
 IR Inten    --      2.9087                 0.9558                 0.3295

                     37                     38                     39
                      A                      A                      A
 Frequencies --   1188.9240              1201.0955              1228.2881
 Red. masses --      1.2486                 1.7121                 1.8933
 Frc consts  --      1.0399                 1.4553                 1.6829
 IR Inten    --      3.0772                15.7678                 1.7178

                     40                     41                     42
                      A                      A                      A
 Frequencies --   1251.4369              1276.1464              1328.2764
 Red. masses --      1.1908                 2.2726                 1.7041
 Frc consts  --      1.0988                 2.1806                 1.7715
 IR Inten    --     13.2231                 2.9776                45.1324

                     43                     44                     45
                      A                      A                      A
 Frequencies --   1344.6562              1350.7980              1365.3909
 Red. masses --      1.4559                 1.4901                 1.4550
 Frc consts  --      1.5509                 1.6020                 1.5982
 IR Inten    --      1.8339                 4.3783                39.3451

                     46                     47                     48
                      A                      A                      A
 Frequencies --   1392.5633              1436.4209              1478.8029
 Red. masses --      2.5480                 2.3149                 1.1343
 Frc consts  --      2.9113                 2.8141                 1.4615
 IR Inten    --     38.0635                33.0123                 8.0694

                     49                     50                     51
                      A                      A                      A
 Frequencies --   1504.6385              1509.8877              1515.1928
 Red. masses --      2.2880                 2.3457                 1.1461
 Frc consts  --      3.0519                 3.1508                 1.5502
 IR Inten    --      2.8429                 9.7355                 6.6140

                     52                     53                     54
                      A                      A                      A
 Frequencies --   1516.1282              1526.6366              1531.6558
 Red. masses --      1.2864                 1.3040                 1.5655
 Frc consts  --      1.7422                 1.7906                 2.1639
 IR Inten    --     32.0575                41.3749                72.6734

                     55                     56                     57
                      A                      A                      A
 Frequencies --   1640.6751              1666.1819              1696.2772
 Red. masses --      5.6939                 6.8231                 6.7741
 Frc consts  --      9.0304                11.1603                11.4840
 IR Inten    --      0.4392                84.7943               106.3452

                     58                     59                     60
                      A                      A                      A
 Frequencies --   3008.3172              3017.9389              3033.8785
 Red. masses --      1.0693                 1.0681                 1.0610
 Frc consts  --      5.7016                 5.7319                 5.7540
 IR Inten    --     57.1482                73.3087                25.2134

                     61                     62                     63
                      A                      A                      A
 Frequencies --   3060.3995              3065.8239              3107.8473
 Red. masses --      1.0958                 1.1002                 1.0962
 Frc consts  --      6.0468                 6.0926                 6.2384
 IR Inten    --     30.2642                12.5517                48.4712

                     64                     65                     66
                      A                      A                      A
 Frequencies --   3173.7050              3179.6300              3192.3006
 Red. masses --      1.0860                 1.0882                 1.0922
 Frc consts  --      6.4448                 6.4819                 6.5580
 IR Inten    --      9.9189                 6.6403                36.8510

                     67                     68                     69
                      A                      A                      A
 Frequencies --   3205.8381              3492.3967              3544.4561
 Red. masses --      1.0967                 1.0738                 1.0755
 Frc consts  --      6.6409                 7.7165                 7.9612
 IR Inten    --     34.2188                 0.0859                 2.8958

 - Thermochemistry -
 -------------------
 Temperature   298.150 Kelvin.  Pressure   1.00000 Atm.
 Atom     1 has atomic number  6 and mass  12.00000

 Molecular mass:   172.10005 amu.
 Principal axes and moments of inertia in atomic units:
                           1         2         3
     Eigenvalues --   880.337533246.775704055.97649
           X            1.00000  -0.00083  -0.00239
           Y            0.00084   1.00000   0.00258
           Z            0.00239  -0.00259   0.99999
 This molecule is an asymmetric top.
 Rotational symmetry number  1.
 Warning -- assumption of classical behavior for rotation
           may cause significant error
 Rotational temperatures (Kelvin)      0.09839     0.02668     0.02135
 Rotational constants (GHZ):           2.05006     0.55586     0.44496
 Zero-point vibrational energy     558153.7 (Joules/Mol)
                                  133.40195 (Kcal/Mol)
 Warning -- explicit consideration of  15 degrees of freedom as
           vibrations may cause significant error
 Vibrational temperatures:    116.15   197.82   249.35   293.42   347.83
          (Kelvin)            465.88   495.76   579.41   618.72   692.70
                              713.97   747.51   756.77   852.63   892.07
                              909.24  1056.73  1063.99  1082.36  1107.68
                             1191.03  1198.22  1250.52  1318.17  1333.39
                             1389.28  1393.52  1401.97  1432.88  1491.33
                             1519.66  1587.20  1621.56  1646.94  1670.59
                             1690.96  1710.60  1728.11  1767.23  1800.54
                             1836.09  1911.09  1934.66  1943.50  1964.49
                             2003.59  2066.69  2127.67  2164.84  2172.39
                             2180.02  2181.37  2196.49  2203.71  2360.57
                             2397.26  2440.56  4328.30  4342.14  4365.07
                             4403.23  4411.04  4471.50  4566.25  4574.78
                             4593.01  4612.49  5024.78  5099.68

 Zero-point correction=                           0.212590 (Hartree/Particle)
 Thermal correction to Energy=                    0.222374
 Thermal correction to Enthalpy=                  0.223318
 Thermal correction to Gibbs Free Energy=         0.177542
 Sum of electronic and zero-point Energies=           -535.720745
 Sum of electronic and thermal Energies=              -535.710961
 Sum of electronic and thermal Enthalpies=            -535.710017
 Sum of electronic and thermal Free Energies=         -535.755793

                     E (Thermal)             CV                S
                      KCal/Mol        Cal/Mol-Kelvin    Cal/Mol-Kelvin
 Total                  139.542             40.787             96.345
 Electronic               0.000              0.000              0.000
 Translational            0.889              2.981             41.336
 Rotational               0.889              2.981             30.828
 Vibrational            137.764             34.826             24.180
 Vibration     1          0.600              1.962              3.873
 Vibration     2          0.614              1.916              2.838
 Vibration     3          0.627              1.875              2.399
 Vibration     4          0.640              1.834              2.097
 Vibration     5          0.658              1.776              1.790
 Vibration     6          0.708              1.628              1.291
 Vibration     7          0.723              1.586              1.191
 Vibration     8          0.768              1.464              0.953
 Vibration     9          0.791              1.405              0.859
 Vibration    10          0.838              1.291              0.706
 Vibration    11          0.852              1.258              0.668
 Vibration    12          0.875              1.207              0.611
 Vibration    13          0.881              1.192              0.596
 Vibration    14          0.950              1.048              0.463
 Vibration    15          0.980              0.990              0.416

                           ! Non-Optimized Parameters !
 Normal termination of Gaussian 16 at Wed Dec  9 22:32:51 2020.

 ----------------------------------------------------------------------
 # B3LYP/6-311++G(d,p) empiricaldispersion=gd3bj scf=xqc pop=npa geom=c
 heck
 ----------------------------------------------------------------------

 ---------------------------------------
 CID_129743602_JID_3242_Energie_neutraal
 ---------------------------------------
 Structure from the checkpoint file:  "JID_3242.chk"
 Charge =  0 Multiplicity = 1

 SCF Done:  E(RB3LYP) =  -536.076443864     A.U. after   15 cycles
 Normal termination of Gaussian 16 at Wed Dec  9 22:35:51 2020.

 ----------------------------------------------------------------------
 # B3LYP/6-311++G(d,p) empiricaldispersion=gd3bj scf=xqc pop=npa geom=c
 heck
 ----------------------------------------------------------------------

 -------------------------------------
 CID_129743602_JID_3242_Energie_kation
 -------------------------------------
 Structure from the checkpoint file:  "JID_3242.chk"
 Charge =  1 Multiplicity = 2

 SCF Done:  E(UB3LYP) =  -535.825892035     A.U. after   19 cycles
 Normal termination of Gaussian 16 at Wed Dec  9 22:41:19 2020.
 Gaussian 16:  ES64L-G16RevA.03 25-Dec-2016

 ----------------------------------------------------------------------
 # B3LYP/6-311++G(d,p) empiricaldispersion=gd3bj scf=xqc pop=npa geom=c
 heck
 ----------------------------------------------------------------------

 ------------------------------------
 CID_129743602_JID_3242_Energie_anion
 ------------------------------------
 Structure from the checkpoint file:  "JID_3242.chk"
 Charge = -1 Multiplicity = 2

                         Standard orientation:
 ---------------------------------------------------------------------
 Center     Atomic      Atomic             Coordinates (Angstroms)
 Number     Number       Type             X           Y           Z
 ---------------------------------------------------------------------
      1          6           0        0.105116    1.830411   -0.074125
      2          6           0        1.300261    0.897107   -0.030808
      3          6           0        2.654468    1.178566   -0.033949
      4          6           0        3.571176    0.115221    0.010721
      5          6           0        3.116967   -1.203358    0.056986
      6          6           0        1.747277   -1.494520    0.060411
      7          6           0        0.834987   -0.440025    0.016456
      8          6           0       -0.624770   -0.426904    0.009855
      9          6           0       -1.054020    0.862536   -0.030775
     10          7           0       -2.391221    1.221769   -0.086965
     11          6           0       -3.291811    0.132594    0.344088
     12          7           0       -2.970465   -1.125111   -0.298155
     13          6           0       -1.594919   -1.574880    0.007793
     14          1           0        0.084698    2.441281   -0.986961
     15          1           0        0.091338    2.529217    0.774600
     16          1           0        3.009916    2.205854   -0.071065
     17          1           0        4.637513    0.321914    0.008482
     18          1           0        3.836080   -2.017640    0.091443
     19          1           0        1.405473   -2.525569    0.097904
     20          1           0       -2.611423    2.132538    0.302945
     21          1           0       -4.318349    0.417799    0.096563
     22          1           0       -3.221172   -0.023576    1.431725
     23          1           0       -3.048170   -0.991767   -1.305203
     24          1           0       -1.601813   -2.097379    0.975727
     25          1           0       -1.320674   -2.329771   -0.740251
 ---------------------------------------------------------------------

 SCF Done:  E(UB3LYP) =  -536.061995089     A.U. after   33 cycles
 SCF Done:  E(UB3LYP) =  -536.061995089     a.u. after    1 cycles

 The electronic state is 2-A.
 Alpha  occ. eigenvalues --  -14.21457 -14.20132 -10.11780 -10.10242 -10.09850
 Alpha  occ. eigenvalues --  -10.07866 -10.07683 -10.07536 -10.07503 -10.07375
 Alpha  occ. eigenvalues --  -10.07020 -10.06953 -10.05385  -0.85430  -0.78166
 Alpha  occ. eigenvalues --   -0.76789  -0.71142  -0.65978  -0.62684  -0.60351
 Alpha  occ. eigenvalues --   -0.56752  -0.53050  -0.49976  -0.48466  -0.44342
 Alpha  occ. eigenvalues --   -0.40900  -0.39529  -0.38342  -0.37443  -0.34704
 Alpha  occ. eigenvalues --   -0.34532  -0.33904  -0.32071  -0.31588  -0.30268
 Alpha  occ. eigenvalues --   -0.29168  -0.27363  -0.26365  -0.25836  -0.24454
 Alpha  occ. eigenvalues --   -0.23651  -0.20640  -0.16879  -0.15013  -0.13972
 Alpha  occ. eigenvalues --   -0.08248   0.04727
 Alpha virt. eigenvalues --    0.06531   0.07280   0.07771   0.08396   0.08541
 Alpha virt. eigenvalues --    0.08717   0.09221   0.10270   0.10748   0.11044
 Alpha virt. eigenvalues --    0.12076   0.12943   0.13299   0.14715   0.14847

  Beta  occ. eigenvalues --  -14.21409 -14.20120 -10.11740 -10.10240 -10.09838
  Beta  occ. eigenvalues --  -10.07832 -10.07679 -10.07535 -10.07501 -10.07368
  Beta  occ. eigenvalues --  -10.07013 -10.06948 -10.05380  -0.85381  -0.78129
  Beta  occ. eigenvalues --   -0.76755  -0.71117  -0.65958  -0.62655  -0.60317
  Beta  occ. eigenvalues --   -0.56691  -0.52982  -0.49930  -0.48440  -0.44301
  Beta  occ. eigenvalues --   -0.40823  -0.39491  -0.38297  -0.37390  -0.34674
  Beta  occ. eigenvalues --   -0.34489  -0.33862  -0.32044  -0.31562  -0.30240
  Beta  occ. eigenvalues --   -0.29133  -0.27311  -0.26331  -0.25811  -0.24430
  Beta  occ. eigenvalues --   -0.23628  -0.20600  -0.16853  -0.15000  -0.13943
  Beta  occ. eigenvalues --   -0.08221
  Beta virt. eigenvalues --    0.06534   0.07486   0.07805   0.08064   0.08535
  Beta virt. eigenvalues --    0.09157   0.09276   0.09584   0.10965   0.11344
  Beta virt. eigenvalues --    0.11542   0.12352   0.13062   0.13935   0.14871

 Mulliken charges and spin densities:
               1          2
     1  C    0.133173  -0.534462
     2  C   -0.662806   0.420072
     3  C   -0.553011   0.355461
     4  C    0.164518  -0.481076
     5  C   -0.028071  -0.179480
     6  C   -0.537366   0.221739
     7  C    1.200224  -0.562508
     8  C    1.633448  -0.952773
     9  C   -0.176647  -0.355907
    10  N   -0.374386   0.328671
    11  C    1.050667  -1.382863
    12  N   -0.235115   0.145184
    13  C   -0.127977  -0.656104
    14  H   -0.202994   0.391530
    15  H   -0.241370   0.426818
    16  H   -0.238391   0.386336
    17  H   -0.009046   0.138802
    18  H   -0.055211   0.194847
    19  H    0.007016   0.103598
    20  H   -0.679119   0.959128
    21  H   -0.819074   1.015333
    22  H   -0.268143   0.443539
    23  H   -0.042805   0.293189
    24  H    0.008983   0.168282
    25  H    0.053503   0.112646
 Sum of Mulliken charges =  -1.00000   1.00000

 Dipole moment (field-independent basis, Debye):
    X=              6.6128    Y=             -4.9133    Z=             -1.0517  Tot=              8.3052
 Quadrupole moment (field-independent basis, Debye-Ang):
   XX=           -152.2731   YY=           -119.3397   ZZ=           -105.0944
   XY=             11.1374   XZ=              2.4336   YZ=             -2.7091

 Summary of Natural Population Analysis:

                                       Natural Population
                Natural  -----------------------------------------------
    Atom  No    Charge         Core      Valence    Rydberg      Total
 -----------------------------------------------------------------------
      C    1   -0.21154      0.99957     2.20325    0.00872     3.21154
      C    2   -0.00390      0.99949     1.99379    0.01062     3.00390
      C    3   -0.10142      0.99950     2.09298    0.00894     3.10142
      C    4   -0.11968      0.99957     2.10969    0.01041     3.11968
      C    5   -0.10384      0.99958     2.09449    0.00977     3.10384
      C    6   -0.11385      0.99950     2.10605    0.00830     3.11385
      C    7   -0.03044      0.99950     2.01516    0.01579     3.03044
      C    8   -0.03953      0.99942     2.03287    0.00724     3.03953
      C    9    0.10340      0.99945     1.87832    0.01883     2.89660
      N   10   -0.32181      0.99967     2.80938    0.01276     3.82181
      C   11    0.00800      0.99964     1.97628    0.01607     2.99200
      N   12   -0.33828      0.99977     2.82368    0.01483     3.83828
      C   13   -0.08415      0.99962     2.07403    0.01050     3.08415
      H   14    0.11698      0.00000     0.38155    0.00146     0.38302
      H   15    0.11719      0.00000     0.38104    0.00177     0.38281
      H   16    0.09929      0.00000     0.39948    0.00124     0.40071
      H   17    0.09662      0.00000     0.40257    0.00081     0.40338
      H   18    0.09580      0.00000     0.40338    0.00082     0.40420
      H   19    0.09788      0.00000     0.40051    0.00161     0.40212
      H   20    0.19647      0.00000     0.28089    0.02265     0.30353
      H   21    0.09814      0.00000     0.39884    0.00303     0.40186
      H   22    0.08305      0.00000     0.41480    0.00215     0.41695
      H   23    0.17253      0.00000     0.32457    0.00290     0.32747
      H   24    0.09035      0.00000     0.40771    0.00194     0.40965
      H   25    0.09323      0.00000     0.40516    0.00161     0.40677
 =======================================================================
   * Total *    0.00048     12.99428    32.81046    0.19478    45.99952

 Normal termination of Gaussian 16 at Wed Dec  9 22:50:51 2020.
