 Gaussian 16, Revision A.03,

 -----------------------------------------------------------
 # opt freq B3LYP/6-31G(d) empiricaldispersion=gd3bj scf=xqc
 -----------------------------------------------------------

 ------------------------------
 CID_59366187_JID_5792_neutraal
 ------------------------------
 Symbolic Z-matrix:
 Charge =  0 Multiplicity = 1

 SCF Done:  E(RB3LYP) =  -649.267245535     A.U. after   15 cycles
 SCF Done:  E(RB3LYP) =  -649.268774446     A.U. after   12 cycles
 SCF Done:  E(RB3LYP) =  -649.268548613     A.U. after   12 cycles
 SCF Done:  E(RB3LYP) =  -649.269111542     A.U. after   11 cycles
 SCF Done:  E(RB3LYP) =  -649.269200164     A.U. after   11 cycles
 SCF Done:  E(RB3LYP) =  -649.269204814     A.U. after    9 cycles
 SCF Done:  E(RB3LYP) =  -649.269207228     A.U. after    8 cycles
 SCF Done:  E(RB3LYP) =  -649.269207791     A.U. after    8 cycles
 SCF Done:  E(RB3LYP) =  -649.269209651     A.U. after   10 cycles
 SCF Done:  E(RB3LYP) =  -649.269220219     A.U. after   12 cycles
 SCF Done:  E(RB3LYP) =  -649.269273463     A.U. after   12 cycles
 SCF Done:  E(RB3LYP) =  -649.269497228     A.U. after    7 cycles
 SCF Done:  E(RB3LYP) =  -649.269521508     A.U. after   12 cycles
 SCF Done:  E(RB3LYP) =  -649.269528725     A.U. after   11 cycles
 SCF Done:  E(RB3LYP) =  -649.269529018     A.U. after    7 cycles
 SCF Done:  E(RB3LYP) =  -649.269529138     A.U. after    7 cycles
 Optimization completed.
    -- Stationary point found.
 Normal termination of Gaussian 16 at Thu Dec 10 17:46:40 2020.

 --------------------------------------------------------------------
 #N Geom=AllCheck Guess=TCheck SCRF=Check GenChk RB3LYP/6-31G(d) Freq
 --------------------------------------------------------------------

 Structure from the checkpoint file:  "JID_5792.chk"
 ------------------------------
 CID_59366187_JID_5792_neutraal
 ------------------------------
 Charge =  0 Multiplicity = 1

 SCF Done:  E(RB3LYP) =  -649.269529138     A.U. after    1 cycles

  Exact polarizability: 215.979   8.788 143.393  -1.025  -2.294  63.505
 Approx polarizability: 315.748  21.476 240.856  -2.969  -6.325  98.074

                      1                      2                      3
                      A                      A                      A
 Frequencies --     33.8991                47.0188                62.6762
 Red. masses --      3.6372                 3.3628                 4.5789
 Frc consts  --      0.0025                 0.0044                 0.0106
 IR Inten    --      0.4217                 0.9152                 1.7818

                      4                      5                      6
                      A                      A                      A
 Frequencies --     92.0011               101.6116               168.8047
 Red. masses --      3.9176                 4.0712                 5.5342
 Frc consts  --      0.0195                 0.0248                 0.0929
 IR Inten    --      2.2230                 2.6487                 0.9326

                      7                      8                      9
                      A                      A                      A
 Frequencies --    190.1797               232.5567               266.3889
 Red. masses --      2.4226                 1.3708                 3.6777
 Frc consts  --      0.0516                 0.0437                 0.1538
 IR Inten    --      4.9089                 2.3486                 4.0465

                     10                     11                     12
                      A                      A                      A
 Frequencies --    296.6151               310.5746               408.1977
 Red. masses --      5.0411                 6.7831                 3.1975
 Frc consts  --      0.2613                 0.3855                 0.3139
 IR Inten    --      4.2370                 1.6181                 0.8722

                     13                     14                     15
                      A                      A                      A
 Frequencies --    418.3386               437.1146               515.0079
 Red. masses --      3.0828                 5.0264                 3.5968
 Frc consts  --      0.3179                 0.5659                 0.5621
 IR Inten    --      0.3327                 3.8383                 2.4167

                     16                     17                     18
                      A                      A                      A
 Frequencies --    566.3711               610.1954               629.3375
 Red. masses --      5.0665                 3.9020                 5.1931
 Frc consts  --      0.9575                 0.8560                 1.2118
 IR Inten    --      4.5016                15.1580                 1.3970

                     19                     20                     21
                      A                      A                      A
 Frequencies --    639.0609               667.4257               703.9576
 Red. masses --      4.3207                 6.6519                 2.2516
 Frc consts  --      1.0397                 1.7458                 0.6574
 IR Inten    --      3.4655                 3.1806                14.2968

                     22                     23                     24
                      A                      A                      A
 Frequencies --    714.3064               759.1733               773.9908
 Red. masses --      6.0367                 1.6803                 1.6293
 Frc consts  --      1.8148                 0.5706                 0.5751
 IR Inten    --     16.6861                27.1523                51.3527

                     25                     26                     27
                      A                      A                      A
 Frequencies --    782.3835               821.6280               846.6208
 Red. masses --      2.1299                 1.3375                 1.2527
 Frc consts  --      0.7681                 0.5320                 0.5290
 IR Inten    --      6.6767                 2.3220                 0.0970

                     28                     29                     30
                      A                      A                      A
 Frequencies --    874.4337               921.7473               933.8483
 Red. masses --      1.3470                 1.4055                 2.3844
 Frc consts  --      0.6069                 0.7036                 1.2251
 IR Inten    --      2.8602                 4.9511                62.5943

                     31                     32                     33
                      A                      A                      A
 Frequencies --    968.0075               975.4353               996.5524
 Red. masses --      1.3500                 5.0159                 1.2567
 Frc consts  --      0.7453                 2.8119                 0.7353
 IR Inten    --      0.1875                15.5959                 0.3723

                     34                     35                     36
                      A                      A                      A
 Frequencies --   1007.7126              1022.6856              1046.1324
 Red. masses --      3.8348                 5.9284                 2.5699
 Frc consts  --      2.2944                 3.6532                 1.6571
 IR Inten    --      7.4574                 0.1190                39.7368

                     37                     38                     39
                      A                      A                      A
 Frequencies --   1057.1709              1080.7408              1090.8682
 Red. masses --      2.3826                 1.3287                 1.7709
 Frc consts  --      1.5689                 0.9144                 1.2416
 IR Inten    --      1.5126                35.2628                 5.4769

                     40                     41                     42
                      A                      A                      A
 Frequencies --   1102.0042              1115.5450              1178.7303
 Red. masses --      2.1500                 1.6121                 2.0690
 Frc consts  --      1.5383                 1.1820                 1.6937
 IR Inten    --     28.3855                 7.9502                23.5879

                     43                     44                     45
                      A                      A                      A
 Frequencies --   1195.1214              1212.5926              1273.3105
 Red. masses --      1.0987                 1.1433                 1.6750
 Frc consts  --      0.9246                 0.9905                 1.6000
 IR Inten    --      0.9217                 0.4291                85.6146

                     46                     47                     48
                      A                      A                      A
 Frequencies --   1276.1100              1310.0455              1354.1929
 Red. masses --      4.7490                 1.4169                 1.5494
 Frc consts  --      4.5564                 1.4327                 1.6740
 IR Inten    --     23.9406                62.4427                13.1861

                     49                     50                     51
                      A                      A                      A
 Frequencies --   1362.9319              1370.9106              1424.4705
 Red. masses --      3.0069                 2.0138                 6.5791
 Frc consts  --      3.2909                 2.2299                 7.8654
 IR Inten    --      9.4822                 5.1629                70.5867

                     52                     53                     54
                      A                      A                      A
 Frequencies --   1428.3702              1438.9155              1496.9327
 Red. masses --      1.4011                 3.2994                 1.7463
 Frc consts  --      1.6843                 4.0249                 2.3055
 IR Inten    --      3.5683                10.7489                17.1527

                     55                     56                     57
                      A                      A                      A
 Frequencies --   1508.1643              1513.4111              1529.3749
 Red. masses --      1.7548                 2.5290                 1.0431
 Frc consts  --      2.3517                 3.4128                 1.4375
 IR Inten    --     38.2877                16.2987                 4.0087

                     58                     59                     60
                      A                      A                      A
 Frequencies --   1539.5998              1550.4756              1567.5846
 Red. masses --      1.0795                 2.6965                 4.6887
 Frc consts  --      1.5076                 3.8193                 6.7884
 IR Inten    --      9.4641                55.6173                32.3232

                     61                     62                     63
                      A                      A                      A
 Frequencies --   1655.6336              1665.0687              1778.4162
 Red. masses --      6.2503                 5.6289                11.4351
 Frc consts  --     10.0945                 9.1947                21.3086
 IR Inten    --      3.4203                42.3591               228.0065

                     64                     65                     66
                      A                      A                      A
 Frequencies --   3058.3861              3075.3783              3120.6095
 Red. masses --      1.0345                 1.0587                 1.1037
 Frc consts  --      5.7012                 5.8995                 6.3328
 IR Inten    --     25.5893                11.2382                 5.3147

                     67                     68                     69
                      A                      A                      A
 Frequencies --   3128.7896              3143.8764              3192.8756
 Red. masses --      1.1036                 1.1044                 1.0856
 Frc consts  --      6.3653                 6.4315                 6.5206
 IR Inten    --     21.6577                44.0895                 0.9682

                     70                     71                     72
                      A                      A                      A
 Frequencies --   3201.8777              3213.5344              3221.6608
 Red. masses --      1.0896                 1.0932                 1.0961
 Frc consts  --      6.5815                 6.6517                 6.7029
 IR Inten    --     11.7296                28.1890                 9.2534

                     73                     74                     75
                      A                      A                      A
 Frequencies --   3245.9096              3291.6046              3309.1453
 Red. masses --      1.0927                 1.0911                 1.1049
 Frc consts  --      6.7830                 6.9652                 7.1289
 IR Inten    --      0.4874                 0.1989                 1.0444

 - Thermochemistry -
 -------------------
 Temperature   298.150 Kelvin.  Pressure   1.00000 Atm.
 Atom     1 has atomic number  6 and mass  12.00000

 Molecular mass:   200.09496 amu.
 Principal axes and moments of inertia in atomic units:
                           1         2         3
     Eigenvalues --  1267.160075618.494106717.16935
           X            0.99983  -0.01821  -0.00248
           Y            0.01821   0.99983   0.00330
           Z            0.00241  -0.00335   0.99999
 This molecule is an asymmetric top.
 Rotational symmetry number  1.
 Warning -- assumption of classical behavior for rotation
           may cause significant error
 Rotational temperatures (Kelvin)      0.06835     0.01542     0.01289
 Rotational constants (GHZ):           1.42424     0.32121     0.26868
 Zero-point vibrational energy     574939.2 (Joules/Mol)
                                  137.41377 (Kcal/Mol)
 Warning -- explicit consideration of  17 degrees of freedom as
           vibrations may cause significant error
 Vibrational temperatures:     48.77    67.65    90.18   132.37   146.20
          (Kelvin)            242.87   273.63   334.60   383.27   426.76
                              446.85   587.31   601.90   628.91   740.98
                              814.88   877.94   905.48   919.47   960.28
                             1012.84  1027.73  1092.28  1113.60  1125.68
                             1182.14  1218.10  1258.12  1326.19  1343.60
                             1392.75  1403.43  1433.82  1449.87  1471.42
                             1505.15  1521.03  1554.94  1569.52  1585.54
                             1605.02  1695.93  1719.51  1744.65  1832.01
                             1836.04  1884.86  1948.38  1960.96  1972.43
                             2049.50  2055.11  2070.28  2153.75  2169.91
                             2177.46  2200.43  2215.14  2230.79  2255.40
                             2382.09  2395.66  2558.74  4400.34  4424.78
                             4489.86  4501.63  4523.34  4593.84  4606.79
                             4623.56  4635.25  4670.14  4735.88  4761.12

 Zero-point correction=                           0.218983 (Hartree/Particle)
 Thermal correction to Energy=                    0.231930
 Thermal correction to Enthalpy=                  0.232874
 Thermal correction to Gibbs Free Energy=         0.177936
 Sum of electronic and zero-point Energies=           -649.050546
 Sum of electronic and thermal Energies=              -649.037599
 Sum of electronic and thermal Enthalpies=            -649.036655
 Sum of electronic and thermal Free Energies=         -649.091593

                     E (Thermal)             CV                S
                      KCal/Mol        Cal/Mol-Kelvin    Cal/Mol-Kelvin
 Total                  145.538             49.205            115.627
 Electronic               0.000              0.000              0.000
 Translational            0.889              2.981             41.786
 Rotational               0.889              2.981             32.236
 Vibrational            143.761             43.243             41.605
 Vibration     1          0.594              1.983              5.587
 Vibration     2          0.595              1.979              4.939
 Vibration     3          0.597              1.972              4.371
 Vibration     4          0.602              1.955              3.617
 Vibration     5          0.604              1.948              3.423
 Vibration     6          0.625              1.881              2.449
 Vibration     7          0.633              1.853              2.226
 Vibration     8          0.653              1.791              1.859
 Vibration     9          0.672              1.735              1.620
 Vibration    10          0.690              1.680              1.436
 Vibration    11          0.699              1.654              1.359
 Vibration    12          0.773              1.452              0.933
 Vibration    13          0.781              1.430              0.898
 Vibration    14          0.797              1.389              0.836
 Vibration    15          0.870              1.217              0.622
 Vibration    16          0.922              1.104              0.511
 Vibration    17          0.969              1.010              0.432

                           ! Non-Optimized Parameters !
 Normal termination of Gaussian 16 at Thu Dec 10 17:54:59 2020.

 ----------------------------------------------------------------------
 # B3LYP/6-311++G(d,p) empiricaldispersion=gd3bj scf=xqc pop=npa geom=c
 heck
 ----------------------------------------------------------------------

 --------------------------------------
 CID_59366187_JID_5792_Energie_neutraal
 --------------------------------------
 Structure from the checkpoint file:  "JID_5792.chk"
 Charge =  0 Multiplicity = 1

 SCF Done:  E(RB3LYP) =  -649.441475014     A.U. after   16 cycles
 Normal termination of Gaussian 16 at Thu Dec 10 17:58:22 2020.

 ----------------------------------------------------------------------
 # B3LYP/6-311++G(d,p) empiricaldispersion=gd3bj scf=xqc pop=npa geom=c
 heck
 ----------------------------------------------------------------------

 ------------------------------------
 CID_59366187_JID_5792_Energie_kation
 ------------------------------------
 Structure from the checkpoint file:  "JID_5792.chk"
 Charge =  1 Multiplicity = 2

 SCF Done:  E(UB3LYP) =  -649.133580338     A.U. after   31 cycles
 Normal termination of Gaussian 16 at Thu Dec 10 18:05:59 2020.
 Gaussian 16:  ES64L-G16RevA.03 25-Dec-2016

 ----------------------------------------------------------------------
 # B3LYP/6-311++G(d,p) empiricaldispersion=gd3bj scf=xqc pop=npa geom=c
 heck
 ----------------------------------------------------------------------

 -----------------------------------
 CID_59366187_JID_5792_Energie_anion
 -----------------------------------
 Structure from the checkpoint file:  "JID_5792.chk"
 Charge = -1 Multiplicity = 2

                         Standard orientation:
 ---------------------------------------------------------------------
 Center     Atomic      Atomic             Coordinates (Angstroms)
 Number     Number       Type             X           Y           Z
 ---------------------------------------------------------------------
      1          6           0       -3.138910    2.182422    0.637386
      2          6           0       -3.246597    1.311025   -0.627339
      3          6           0       -3.087772   -0.159877   -0.288685
      4          8           0       -4.044824   -0.910393   -0.163742
      5          6           0       -1.716409   -0.672860   -0.064321
      6          7           0       -0.637161    0.103090   -0.221819
      7          7           0        0.412703   -0.693102    0.063225
      8          6           0        0.015799   -1.964084    0.404498
      9          6           0       -1.355161   -1.987074    0.329732
     10          6           0        1.735010   -0.180350    0.008314
     11          6           0        1.940447    1.196701    0.130908
     12          6           0        3.237605    1.700117    0.084904
     13          6           0        4.328016    0.842121   -0.072733
     14          6           0        4.111513   -0.530229   -0.197678
     15          6           0        2.817404   -1.046865   -0.166419
     16          1           0       -3.892187    1.889136    1.376331
     17          1           0       -3.298402    3.236660    0.388447
     18          1           0       -2.149380    2.084024    1.093479
     19          1           0       -4.230092    1.432008   -1.090482
     20          1           0       -2.473791    1.610669   -1.342820
     21          1           0        0.730876   -2.718549    0.692585
     22          1           0       -2.024618   -2.808475    0.531828
     23          1           0        1.083986    1.847239    0.257136
     24          1           0        3.395906    2.770260    0.180362
     25          1           0        5.337536    1.240459   -0.102976
     26          1           0        4.950564   -1.205902   -0.334274
     27          1           0        2.653735   -2.110576   -0.300922
 ---------------------------------------------------------------------

 SCF Done:  E(UB3LYP) =  -649.452692712     A.U. after   27 cycles

 The electronic state is 2-A.
 Alpha  occ. eigenvalues --  -18.93378 -14.25437 -14.17023 -10.08366 -10.08065
 Alpha  occ. eigenvalues --  -10.07029 -10.05954 -10.05743 -10.05484 -10.04614
 Alpha  occ. eigenvalues --  -10.04605 -10.04099 -10.03815 -10.03445 -10.03382
 Alpha  occ. eigenvalues --   -0.91396  -0.87281  -0.74811  -0.69679  -0.65503
 Alpha  occ. eigenvalues --   -0.64195  -0.62864  -0.60618  -0.52933  -0.50550
 Alpha  occ. eigenvalues --   -0.49575  -0.46195  -0.44669  -0.41827  -0.38815
 Alpha  occ. eigenvalues --   -0.36498  -0.34125  -0.33807  -0.32410  -0.32097
 Alpha  occ. eigenvalues --   -0.31076  -0.30640  -0.29501  -0.28789  -0.26633
 Alpha  occ. eigenvalues --   -0.26234  -0.24947  -0.24478  -0.23897  -0.23077
 Alpha  occ. eigenvalues --   -0.21692  -0.21135  -0.16191  -0.15461  -0.14202
 Alpha  occ. eigenvalues --   -0.12435  -0.09968  -0.09396   0.04363
 Alpha virt. eigenvalues --    0.07695   0.08672   0.09003   0.09789   0.10020
 Alpha virt. eigenvalues --    0.10548   0.10939   0.11354   0.12467   0.12515
 Alpha virt. eigenvalues --    0.13106   0.13712   0.14883   0.14997   0.15994

  Beta  occ. eigenvalues --  -18.92933 -14.25391 -14.16473 -10.08169 -10.07834
  Beta  occ. eigenvalues --  -10.06976 -10.05970 -10.05772 -10.05432 -10.04536
  Beta  occ. eigenvalues --  -10.04397 -10.04077 -10.03746 -10.03466 -10.03440
  Beta  occ. eigenvalues --   -0.90966  -0.86491  -0.74487  -0.69261  -0.65246
  Beta  occ. eigenvalues --   -0.64014  -0.62684  -0.60353  -0.52498  -0.50330
  Beta  occ. eigenvalues --   -0.49465  -0.46000  -0.44457  -0.41629  -0.38561
  Beta  occ. eigenvalues --   -0.36195  -0.33967  -0.33512  -0.32186  -0.31691
  Beta  occ. eigenvalues --   -0.30876  -0.30453  -0.29363  -0.28421  -0.26404
  Beta  occ. eigenvalues --   -0.25722  -0.24376  -0.24359  -0.23672  -0.22956
  Beta  occ. eigenvalues --   -0.21612  -0.19666  -0.15025  -0.14836  -0.13715
  Beta  occ. eigenvalues --   -0.10848  -0.09037  -0.08992
  Beta virt. eigenvalues --    0.07632   0.08660   0.08952   0.09575   0.09967
  Beta virt. eigenvalues --    0.10091   0.10881   0.11314   0.12253   0.12401
  Beta virt. eigenvalues --    0.12852   0.13268   0.13653   0.14941   0.15386

 Mulliken charges and spin densities:
               1          2
     1  C   -0.445047  -0.061399
     2  C   -0.223558   0.020636
     3  C   -0.180927   0.135514
     4  O   -0.411370   0.149775
     5  C   -0.315744   0.011542
     6  N   -0.053085   0.291485
     7  N    0.346697  -0.021773
     8  C   -0.089339   0.049802
     9  C   -0.061529  -0.016427
    10  C   -0.225401   0.024059
    11  C    0.052308   0.115407
    12  C   -0.253371  -0.003750
    13  C   -0.403894   0.145891
    14  C   -0.201983  -0.008661
    15  C   -0.040899   0.071545
    16  H    0.124493  -0.003225
    17  H    0.046338   0.057971
    18  H    0.165856  -0.013127
    19  H    0.132472   0.026068
    20  H    0.112523   0.031663
    21  H    0.110833   0.000733
    22  H    0.177432   0.003304
    23  H    0.169594  -0.004783
    24  H    0.143672   0.002069
    25  H    0.098168  -0.013714
    26  H    0.135747   0.000129
    27  H    0.090016   0.009264
 Sum of Mulliken charges =  -1.00000   1.00000

 Dipole moment (field-independent basis, Debye):
    X=              4.8647    Y=              0.5647    Z=              0.7577  Tot=              4.9556
 Quadrupole moment (field-independent basis, Debye-Ang):
   XX=           -149.0967   YY=            -97.8114   ZZ=            -99.5060
   XY=             -9.2377   XZ=             -1.2050   YZ=             -0.3501

 Summary of Natural Population Analysis:

                                       Natural Population
                Natural  -----------------------------------------------
    Atom  No    Charge         Core      Valence    Rydberg      Total
 -----------------------------------------------------------------------
      C    1   -0.27971      0.99966     2.27573    0.00431     3.27971
      C    2   -0.23001      0.99962     2.22175    0.00864     3.23001
      C    3    0.29168      0.99961     1.68712    0.02159     2.70832
      O    4   -0.26355      0.99988     3.25734    0.00633     4.26355
      C    5    0.03084      0.99955     1.95488    0.01473     2.96916
      N    6   -0.06900      0.99970     2.55866    0.01064     3.56900
      N    7   -0.10108      0.99963     2.58866    0.01279     3.60108
      C    8   -0.01547      0.99958     2.00615    0.00974     3.01547
      C    9   -0.15489      0.99953     2.14616    0.00921     3.15489
      C   10    0.11196      0.99947     1.87751    0.01105     2.88804
      C   11   -0.09037      0.99954     2.08272    0.00811     3.09037
      C   12   -0.10893      0.99958     2.10016    0.00919     3.10893
      C   13   -0.08406      0.99957     2.07463    0.00986     3.08406
      C   14   -0.10871      0.99958     2.09971    0.00941     3.10871
      C   15   -0.10586      0.99954     2.09886    0.00746     3.10586
      H   16    0.09351      0.00000     0.40553    0.00096     0.40649
      H   17    0.08809      0.00000     0.41032    0.00159     0.41191
      H   18    0.10384      0.00000     0.39515    0.00101     0.39616
      H   19    0.09421      0.00000     0.40312    0.00266     0.40579
      H   20    0.10590      0.00000     0.39256    0.00154     0.39410
      H   21    0.09658      0.00000     0.40239    0.00103     0.40342
      H   22    0.10905      0.00000     0.38995    0.00100     0.39095
      H   23    0.11277      0.00000     0.38629    0.00094     0.38723
      H   24    0.09312      0.00000     0.40589    0.00099     0.40688
      H   25    0.08984      0.00000     0.40915    0.00101     0.41016
      H   26    0.09237      0.00000     0.40662    0.00101     0.40763
      H   27    0.09786      0.00000     0.40111    0.00103     0.40214
 =======================================================================
   * Total *   -0.00000     14.99404    37.83814    0.16782    53.00000

 Normal termination of Gaussian 16 at Thu Dec 10 18:12:34 2020.
