 Gaussian 16, Revision A.03,

 -----------------------------------------------------------
 # opt freq B3LYP/6-31G(d) empiricaldispersion=gd3bj scf=xqc
 -----------------------------------------------------------

 -----------------------------
 CID_53632851_JID_197_neutraal
 -----------------------------
 Symbolic Z-matrix:
 Charge =  0 Multiplicity = 1

 SCF Done:  E(RB3LYP) =  -461.130547736     A.U. after   14 cycles
 SCF Done:  E(RB3LYP) =  -461.132715722     A.U. after   11 cycles
 SCF Done:  E(RB3LYP) =  -461.132364193     A.U. after   12 cycles
 SCF Done:  E(RB3LYP) =  -461.133177230     A.U. after   11 cycles
 SCF Done:  E(RB3LYP) =  -461.133267007     A.U. after   11 cycles
 SCF Done:  E(RB3LYP) =  -461.133295046     A.U. after   10 cycles
 SCF Done:  E(RB3LYP) =  -461.133303913     A.U. after    9 cycles
 SCF Done:  E(RB3LYP) =  -461.133309568     A.U. after    9 cycles
 SCF Done:  E(RB3LYP) =  -461.133313903     A.U. after    9 cycles
 SCF Done:  E(RB3LYP) =  -461.133323720     A.U. after   10 cycles
 SCF Done:  E(RB3LYP) =  -461.135443664     A.U. after   10 cycles
 SCF Done:  E(RB3LYP) =  -461.135472087     A.U. after   10 cycles
 SCF Done:  E(RB3LYP) =  -461.135489977     A.U. after   10 cycles
 SCF Done:  E(RB3LYP) =  -461.135492378     A.U. after    8 cycles
 SCF Done:  E(RB3LYP) =  -461.135494743     A.U. after    9 cycles
 SCF Done:  E(RB3LYP) =  -461.135495358     A.U. after    8 cycles
 Optimization completed.
    -- Stationary point found.
 Normal termination of Gaussian 16 at Tue Dec  8 10:30:03 2020.

 --------------------------------------------------------------------
 #N Geom=AllCheck Guess=TCheck SCRF=Check GenChk RB3LYP/6-31G(d) Freq
 --------------------------------------------------------------------

 Structure from the checkpoint file:  "JID_197.chk"
 -----------------------------
 CID_53632851_JID_197_neutraal
 -----------------------------
 Charge =  0 Multiplicity = 1

 SCF Done:  E(RB3LYP) =  -461.135495358     A.U. after    1 cycles

  Exact polarizability: 101.553   0.577  91.892  -3.103   2.263  77.028
 Approx polarizability: 136.607  -0.897 125.015  -9.763   4.462 111.839

                      1                      2                      3
                      A                      A                      A
 Frequencies --     37.8282                51.7471                61.5157
 Red. masses --      2.6654                 5.3820                 2.5950
 Frc consts  --      0.0022                 0.0085                 0.0058
 IR Inten    --      0.1427                 5.1302                 2.0654

                      4                      5                      6
                      A                      A                      A
 Frequencies --    101.5158               127.7091               164.9743
 Red. masses --      2.5127                 1.3646                 2.0543
 Frc consts  --      0.0153                 0.0131                 0.0329
 IR Inten    --      0.4866                36.9088                 8.1108

                      7                      8                      9
                      A                      A                      A
 Frequencies --    227.5477               229.3011               242.4326
 Red. masses --      1.1990                 1.0825                 1.5823
 Frc consts  --      0.0366                 0.0335                 0.0548
 IR Inten    --      0.3967                 0.8548                 1.4745

                     10                     11                     12
                      A                      A                      A
 Frequencies --    257.0476               288.6011               318.1167
 Red. masses --      1.5863                 2.5014                 3.0007
 Frc consts  --      0.0618                 0.1228                 0.1789
 IR Inten    --      0.3023                 4.1117                10.0739

                     13                     14                     15
                      A                      A                      A
 Frequencies --    350.3111               399.2333               432.4383
 Red. masses --      2.6340                 3.0156                 2.4556
 Frc consts  --      0.1904                 0.2832                 0.2706
 IR Inten    --      4.2069                12.4475                 2.2806

                     16                     17                     18
                      A                      A                      A
 Frequencies --    453.4979               480.4125               603.6200
 Red. masses --      2.6175                 2.4969                 3.6567
 Frc consts  --      0.3172                 0.3395                 0.7850
 IR Inten    --      6.4521                 1.9042                 9.3029

                     19                     20                     21
                      A                      A                      A
 Frequencies --    722.7475               782.8306               812.5197
 Red. masses --      3.5391                 3.0363                 1.4836
 Frc consts  --      1.0892                 1.0963                 0.5771
 IR Inten    --      6.3116                 4.1905                 1.8864

                     22                     23                     24
                      A                      A                      A
 Frequencies --    825.1462               906.0156               944.0364
 Red. masses --      2.3776                 1.5172                 1.2215
 Frc consts  --      0.9538                 0.7338                 0.6414
 IR Inten    --      2.7661                 2.8264                 2.6505

                     25                     26                     27
                      A                      A                      A
 Frequencies --    954.1581               974.5413               982.3677
 Red. masses --      2.1144                 2.4064                 1.4561
 Frc consts  --      1.1342                 1.3466                 0.8279
 IR Inten    --      8.3029                18.4679                 0.1941

                     28                     29                     30
                      A                      A                      A
 Frequencies --   1026.4512              1070.4043              1099.4803
 Red. masses --      2.2136                 1.7896                 1.8880
 Frc consts  --      1.3741                 1.2081                 1.3447
 IR Inten    --     30.5989                 8.1607                 5.7985

                     31                     32                     33
                      A                      A                      A
 Frequencies --   1112.9776              1154.8702              1186.4697
 Red. masses --      1.6053                 2.2337                 1.9064
 Frc consts  --      1.1716                 1.7552                 1.5812
 IR Inten    --     23.8748                 3.3766                26.2033

                     34                     35                     36
                      A                      A                      A
 Frequencies --   1211.1014              1269.9551              1302.8854
 Red. masses --      1.7959                 1.6070                 1.2801
 Frc consts  --      1.5520                 1.5270                 1.2803
 IR Inten    --      5.3156                61.9416                10.6874

                     37                     38                     39
                      A                      A                      A
 Frequencies --   1332.0479              1346.0933              1355.5619
 Red. masses --      2.7509                 1.2998                 1.3524
 Frc consts  --      2.8759                 1.3876                 1.4642
 IR Inten    --     13.4185                18.1642                 2.6221

                     40                     41                     42
                      A                      A                      A
 Frequencies --   1370.3885              1394.4701              1409.4325
 Red. masses --      1.2223                 1.3388                 1.5031
 Frc consts  --      1.3524                 1.5338                 1.7593
 IR Inten    --      3.2647                 1.7505                25.6844

                     43                     44                     45
                      A                      A                      A
 Frequencies --   1429.9794              1431.8691              1448.5502
 Red. masses --      1.2362                 1.2758                 1.4803
 Frc consts  --      1.4894                 1.5412                 1.8300
 IR Inten    --      1.1565                 8.6927                66.1235

                     46                     47                     48
                      A                      A                      A
 Frequencies --   1456.3311              1509.8299              1514.2294
 Red. masses --      1.7035                 1.1026                 1.0725
 Frc consts  --      2.1287                 1.4809                 1.4489
 IR Inten    --     52.6690                10.9380                 7.0674

                     49                     50                     51
                      A                      A                      A
 Frequencies --   1519.1674              1524.8130              1527.1253
 Red. masses --      1.0518                 1.0604                 1.0467
 Frc consts  --      1.4302                 1.4527                 1.4382
 IR Inten    --      1.9273                 4.8527                 5.8069

                     52                     53                     54
                      A                      A                      A
 Frequencies --   1534.3248              1540.0904              1540.9604
 Red. masses --      1.0553                 1.0595                 1.0602
 Frc consts  --      1.4637                 1.4806                 1.4832
 IR Inten    --      2.4849                15.8035                 8.0475

                     55                     56                     57
                      A                      A                      A
 Frequencies --   1735.1619              1749.3678              3027.9740
 Red. masses --      1.2184                 4.9048                 1.0828
 Frc consts  --      2.1613                 8.8436                 5.8493
 IR Inten    --      1.0770               310.1134                19.6655

                     58                     59                     60
                      A                      A                      A
 Frequencies --   3040.4003              3050.8081              3056.1463
 Red. masses --      1.0360                 1.0359                 1.0383
 Frc consts  --      5.6425                 5.6808                 5.7136
 IR Inten    --     27.9548                22.2091                21.2687

                     61                     62                     63
                      A                      A                      A
 Frequencies --   3066.3258              3070.8628              3103.1900
 Red. masses --      1.0640                 1.0674                 1.1018
 Frc consts  --      5.8942                 5.9305                 6.2512
 IR Inten    --     10.4064                30.8137                27.9604

                     64                     65                     66
                      A                      A                      A
 Frequencies --   3114.2287              3118.5271              3119.7153
 Red. masses --      1.1026                 1.1014                 1.0982
 Frc consts  --      6.3005                 6.3110                 6.2974
 IR Inten    --      4.9137                46.9747                36.5724

                     67                     68                     69
                      A                      A                      A
 Frequencies --   3123.8994              3127.2194              3133.2936
 Red. masses --      1.1015                 1.0994                 1.0992
 Frc consts  --      6.3331                 6.3347                 6.3583
 IR Inten    --     19.7151                62.5159                 5.9601

                     70                     71                     72
                      A                      A                      A
 Frequencies --   3153.7766              3424.6823              3491.6079
 Red. masses --      1.1014                 1.0488                 1.0924
 Frc consts  --      6.4542                 7.2471                 7.8468
 IR Inten    --     28.1538                 1.4050                 0.4504

 - Thermochemistry -
 -------------------
 Temperature   298.150 Kelvin.  Pressure   1.00000 Atm.
 Atom     1 has atomic number  6 and mass  12.00000

 Molecular mass:   144.12626 amu.
 Principal axes and moments of inertia in atomic units:
                           1         2         3
     Eigenvalues --  1079.481681964.632152503.60893
           X            0.99972   0.02376   0.00113
           Y           -0.02377   0.99970   0.00643
           Z           -0.00097  -0.00646   0.99998
 This molecule is an asymmetric top.
 Rotational symmetry number  1.
 Warning -- assumption of classical behavior for rotation
           may cause significant error
 Rotational temperatures (Kelvin)      0.08024     0.04409     0.03460
 Rotational constants (GHZ):           1.67186     0.91862     0.72086
 Zero-point vibrational energy     616431.3 (Joules/Mol)
                                  147.33061 (Kcal/Mol)
 Warning -- explicit consideration of  18 degrees of freedom as
           vibrations may cause significant error
 Vibrational temperatures:     54.43    74.45    88.51   146.06   183.74
          (Kelvin)            237.36   327.39   329.91   348.81   369.83
                              415.23   457.70   504.02   574.41   622.18
                              652.48   691.21   868.47  1039.87  1126.32
                             1169.03  1187.20  1303.55  1358.26  1372.82
                             1402.15  1413.41  1476.83  1540.07  1581.91
                             1601.33  1661.60  1707.07  1742.50  1827.18
                             1874.56  1916.52  1936.73  1950.35  1971.68
                             2006.33  2027.86  2057.42  2060.14  2084.14
                             2095.34  2172.31  2178.64  2185.74  2193.87
                             2197.19  2207.55  2215.85  2217.10  2496.51
                             2516.95  4356.58  4374.46  4389.43  4397.11
                             4411.76  4418.29  4464.80  4480.68  4486.86
                             4488.57  4494.59  4499.37  4508.11  4537.58
                             4927.35  5023.65

 Zero-point correction=                           0.234786 (Hartree/Particle)
 Thermal correction to Energy=                    0.247462
 Thermal correction to Enthalpy=                  0.248406
 Thermal correction to Gibbs Free Energy=         0.195450
 Sum of electronic and zero-point Energies=           -460.900709
 Sum of electronic and thermal Energies=              -460.888033
 Sum of electronic and thermal Enthalpies=            -460.887089
 Sum of electronic and thermal Free Energies=         -460.940045

                     E (Thermal)             CV                S
                      KCal/Mol        Cal/Mol-Kelvin    Cal/Mol-Kelvin
 Total                  155.285             44.950            111.455
 Electronic               0.000              0.000              0.000
 Translational            0.889              2.981             40.808
 Rotational               0.889              2.981             30.052
 Vibrational            153.507             38.988             40.596
 Vibration     1          0.594              1.982              5.370
 Vibration     2          0.596              1.977              4.749
 Vibration     3          0.597              1.973              4.408
 Vibration     4          0.604              1.948              3.425
 Vibration     5          0.611              1.925              2.980
 Vibration     6          0.623              1.885              2.492
 Vibration     7          0.651              1.799              1.898
 Vibration     8          0.652              1.796              1.884
 Vibration     9          0.659              1.775              1.785
 Vibration    10          0.667              1.751              1.682
 Vibration    11          0.685              1.695              1.482
 Vibration    12          0.705              1.639              1.320
 Vibration    13          0.727              1.575              1.165
 Vibration    14          0.765              1.472              0.965
 Vibration    15          0.793              1.400              0.851
 Vibration    16          0.812              1.353              0.785
 Vibration    17          0.837              1.293              0.709
 Vibration    18          0.962              1.024              0.443

                           ! Non-Optimized Parameters !
 Normal termination of Gaussian 16 at Tue Dec  8 10:34:54 2020.

 ----------------------------------------------------------------------
 # B3LYP/6-311++G(d,p) empiricaldispersion=gd3bj scf=xqc pop=npa geom=c
 heck
 ----------------------------------------------------------------------

 -------------------------------------
 CID_53632851_JID_197_Energie_neutraal
 -------------------------------------
 Structure from the checkpoint file:  "JID_197.chk"
 Charge =  0 Multiplicity = 1

 SCF Done:  E(RB3LYP) =  -461.277261160     A.U. after   13 cycles
 Normal termination of Gaussian 16 at Tue Dec  8 10:37:48 2020.

 ----------------------------------------------------------------------
 # B3LYP/6-311++G(d,p) empiricaldispersion=gd3bj scf=xqc pop=npa geom=c
 heck
 ----------------------------------------------------------------------

 -----------------------------------
 CID_53632851_JID_197_Energie_kation
 -----------------------------------
 Structure from the checkpoint file:  "JID_197.chk"
 Charge =  1 Multiplicity = 2

 SCF Done:  E(UB3LYP) =  -460.950508032     A.U. after   23 cycles
 Normal termination of Gaussian 16 at Tue Dec  8 10:44:35 2020.
 Gaussian 16:  ES64L-G16RevA.03 25-Dec-2016

 ----------------------------------------------------------------------
 # B3LYP/6-311++G(d,p) empiricaldispersion=gd3bj scf=xqc pop=npa geom=c
 heck
 ----------------------------------------------------------------------

 ----------------------------------
 CID_53632851_JID_197_Energie_anion
 ----------------------------------
 Structure from the checkpoint file:  "JID_197.chk"
 Charge = -1 Multiplicity = 2

                         Standard orientation:
 ---------------------------------------------------------------------
 Center     Atomic      Atomic             Coordinates (Angstroms)
 Number     Number       Type             X           Y           Z
 ---------------------------------------------------------------------
      1          6           0        1.964714    2.052974   -0.597921
      2          6           0        1.624428    1.187125    0.622514
      3          6           0        1.501139   -0.275497    0.215336
      4          8           0        2.444626   -0.855426   -0.320023
      5          7           0        0.322042   -0.935370    0.453686
      6          6           0       -0.932786   -0.350868    0.922030
      7          6           0       -1.690954    0.481409   -0.127161
      8          6           0       -1.939470   -0.313297   -1.412889
      9          6           0       -3.002127    0.992838    0.480407
     10          7           0        0.227475   -2.282518    0.010766
     11          1           0        2.849244    1.653310   -1.100345
     12          1           0        2.163276    3.086955   -0.298356
     13          1           0        1.138388    2.060576   -1.318250
     14          1           0        2.449820    1.234730    1.342671
     15          1           0        0.732999    1.567185    1.125463
     16          1           0       -1.549971   -1.197556    1.232509
     17          1           0       -0.743153    0.255760    1.814250
     18          1           0       -1.068959    1.352046   -0.380187
     19          1           0       -2.511843   -1.225196   -1.206679
     20          1           0       -2.502803    0.287401   -2.135809
     21          1           0       -0.998544   -0.610306   -1.886978
     22          1           0       -2.824199    1.573741    1.393436
     23          1           0       -3.538261    1.634764   -0.226815
     24          1           0       -3.663871    0.156503    0.738970
     25          1           0        0.593834   -2.298340   -0.943594
     26          1           0        0.920754   -2.811043    0.544829
 ---------------------------------------------------------------------

 SCF Done:  E(UB3LYP) =  -461.262912184     A.U. after   31 cycles

 The electronic state is 2-A.
 Alpha  occ. eigenvalues --  -18.98488 -14.26329 -14.23356 -10.16699 -10.10012
 Alpha  occ. eigenvalues --  -10.07528 -10.07279 -10.06144 -10.05335 -10.05289
 Alpha  occ. eigenvalues --   -0.94660  -0.87452  -0.73337  -0.69145  -0.66454
 Alpha  occ. eigenvalues --   -0.59218  -0.58153  -0.53884  -0.48673  -0.44634
 Alpha  occ. eigenvalues --   -0.41144  -0.39633  -0.39437  -0.35377  -0.34831
 Alpha  occ. eigenvalues --   -0.33415  -0.31960  -0.30512  -0.29747  -0.28430
 Alpha  occ. eigenvalues --   -0.27776  -0.26692  -0.25973  -0.25060  -0.23975
 Alpha  occ. eigenvalues --   -0.23416  -0.22755  -0.18268  -0.15788  -0.14705
 Alpha  occ. eigenvalues --    0.04655
 Alpha virt. eigenvalues --    0.07347   0.07547   0.07982   0.09798   0.09856
 Alpha virt. eigenvalues --    0.10231   0.10564   0.11073   0.11730   0.12503
 Alpha virt. eigenvalues --    0.13173   0.13408   0.13856   0.14285   0.14699

  Beta  occ. eigenvalues --  -18.98479 -14.26323 -14.23328 -10.16696 -10.09988
  Beta  occ. eigenvalues --  -10.07505 -10.07264 -10.06116 -10.05304 -10.05242
  Beta  occ. eigenvalues --   -0.94643  -0.87426  -0.73294  -0.69106  -0.66411
  Beta  occ. eigenvalues --   -0.59170  -0.58076  -0.53814  -0.48610  -0.44572
  Beta  occ. eigenvalues --   -0.41101  -0.39591  -0.39395  -0.35322  -0.34801
  Beta  occ. eigenvalues --   -0.33370  -0.31932  -0.30469  -0.29708  -0.28389
  Beta  occ. eigenvalues --   -0.27735  -0.26654  -0.25927  -0.25023  -0.23935
  Beta  occ. eigenvalues --   -0.23372  -0.22700  -0.18236  -0.15771  -0.14669
  Beta virt. eigenvalues --    0.07003   0.07994   0.08317   0.08853   0.10283
  Beta virt. eigenvalues --    0.10331   0.10949   0.11079   0.11423   0.11892
  Beta virt. eigenvalues --    0.12988   0.13575   0.13728   0.14295   0.14616

 Mulliken charges and spin densities:
               1          2
     1  C    0.717044  -1.236459
     2  C   -0.144312   0.105281
     3  C    0.066161  -0.095867
     4  O   -0.358513   0.015902
     5  N   -0.122836   0.190824
     6  C    2.225491  -3.025030
     7  C   -3.352703   3.993058
     8  C    1.211096  -1.851631
     9  C    1.486972  -2.135889
    10  N   -0.409646   0.026141
    11  H    0.124750   0.032268
    12  H   -0.348069   0.497988
    13  H   -0.314035   0.450642
    14  H   -0.299207   0.488118
    15  H   -0.272957   0.428229
    16  H    0.124024   0.052011
    17  H   -0.284381   0.487690
    18  H    0.297713  -0.155872
    19  H   -0.100659   0.263527
    20  H   -0.308796   0.460140
    21  H    0.041235   0.103751
    22  H   -0.525009   0.670265
    23  H   -0.524889   0.677213
    24  H   -0.101886   0.221057
    25  H    0.126086   0.115770
    26  H    0.047325   0.220872
 Sum of Mulliken charges =  -1.00000   1.00000

 Dipole moment (field-independent basis, Debye):
    X=              2.1720    Y=             -3.9291    Z=             -0.7106  Tot=              4.5454
 Quadrupole moment (field-independent basis, Debye-Ang):
   XX=           -122.7445   YY=           -108.4889   ZZ=            -99.7219
   XY=              5.7527   XZ=             -0.5219   YZ=             -4.2333

 Summary of Natural Population Analysis:

                                       Natural Population
                Natural  -----------------------------------------------
    Atom  No    Charge         Core      Valence    Rydberg      Total
 -----------------------------------------------------------------------
      C    1   -0.28197      0.99966     2.27616    0.00614     3.28197
      C    2   -0.23075      0.99960     2.22270    0.00845     3.23075
      C    3    0.34203      0.99963     1.63623    0.02211     2.65797
      O    4   -0.33772      0.99988     3.33168    0.00617     4.33772
      N    5   -0.17250      0.99963     2.65930    0.01358     3.67250
      C    6   -0.08177      0.99957     2.07033    0.01187     3.08177
      C    7   -0.12263      0.99961     2.11348    0.00954     3.12263
      C    8   -0.28412      0.99965     2.27801    0.00646     3.28412
      C    9   -0.28463      0.99965     2.27844    0.00654     3.28463
      N   10   -0.31511      0.99977     2.80403    0.01131     3.81511
      H   11    0.10376      0.00000     0.39517    0.00107     0.39624
      H   12    0.10015      0.00000     0.39865    0.00119     0.39985
      H   13    0.09724      0.00000     0.40138    0.00138     0.40276
      H   14    0.10848      0.00000     0.39027    0.00125     0.39152
      H   15    0.10481      0.00000     0.39291    0.00228     0.39519
      H   16    0.10560      0.00000     0.39281    0.00159     0.39440
      H   17    0.10243      0.00000     0.39567    0.00190     0.39757
      H   18    0.09480      0.00000     0.40229    0.00290     0.40520
      H   19    0.09812      0.00000     0.40087    0.00101     0.40188
      H   20    0.10117      0.00000     0.39775    0.00108     0.39883
      H   21    0.09823      0.00000     0.40040    0.00137     0.40177
      H   22    0.10289      0.00000     0.39512    0.00199     0.39711
      H   23    0.10336      0.00000     0.39507    0.00157     0.39664
      H   24    0.09501      0.00000     0.40375    0.00124     0.40499
      H   25    0.17794      0.00000     0.32029    0.00177     0.32206
      H   26    0.17516      0.00000     0.32311    0.00173     0.32484
 =======================================================================
   * Total *   -0.00000      9.99665    29.87585    0.12749    40.00000

 Normal termination of Gaussian 16 at Tue Dec  8 10:54:23 2020.
