 Gaussian 16, Revision A.03,

 -----------------------------------------------------------
 # opt freq B3LYP/6-31G(d) empiricaldispersion=gd3bj scf=xqc
 -----------------------------------------------------------

 ----------------------------
 CID_131592_JID_4460_neutraal
 ----------------------------
 Symbolic Z-matrix:
 Charge =  0 Multiplicity = 1

 SCF Done:  E(RB3LYP) =  -634.635895265     A.U. after   15 cycles
 SCF Done:  E(RB3LYP) =  -634.641411754     A.U. after   12 cycles
 SCF Done:  E(RB3LYP) =  -634.641529221     A.U. after   13 cycles
 SCF Done:  E(RB3LYP) =  -634.641947824     A.U. after   12 cycles
 SCF Done:  E(RB3LYP) =  -634.642172578     A.U. after   12 cycles
 SCF Done:  E(RB3LYP) =  -634.642198309     A.U. after   11 cycles
 SCF Done:  E(RB3LYP) =  -634.642283648     A.U. after   12 cycles
 SCF Done:  E(RB3LYP) =  -634.642335114     A.U. after   12 cycles
 SCF Done:  E(RB3LYP) =  -634.642366196     A.U. after   10 cycles
 SCF Done:  E(RB3LYP) =  -634.642387814     A.U. after   10 cycles
 SCF Done:  E(RB3LYP) =  -634.642391222     A.U. after   10 cycles
 SCF Done:  E(RB3LYP) =  -634.642393986     A.U. after    8 cycles
 SCF Done:  E(RB3LYP) =  -634.642394909     A.U. after    9 cycles
 SCF Done:  E(RB3LYP) =  -634.642395431     A.U. after    9 cycles
 Optimization completed.
    -- Stationary point found.
 Normal termination of Gaussian 16 at Thu Dec 10 09:54:41 2020.

 --------------------------------------------------------------------
 #N Geom=AllCheck Guess=TCheck SCRF=Check GenChk RB3LYP/6-31G(d) Freq
 --------------------------------------------------------------------

 Structure from the checkpoint file:  "JID_4460.chk"
 ----------------------------
 CID_131592_JID_4460_neutraal
 ----------------------------
 Charge =  0 Multiplicity = 1

 SCF Done:  E(RB3LYP) =  -634.642395431     A.U. after    1 cycles

  Exact polarizability: 141.466  13.673 144.851  13.488  -9.510  97.910
 Approx polarizability: 200.672  35.816 234.625  27.424 -22.087 153.475

                      1                      2                      3
                      A                      A                      A
 Frequencies --     26.6225                51.1568                72.4506
 Red. masses --      3.6231                 4.1576                 5.6405
 Frc consts  --      0.0015                 0.0064                 0.0174
 IR Inten    --      0.0799                 0.7956                 4.5128

                      4                      5                      6
                      A                      A                      A
 Frequencies --     83.0775               107.2088               152.7287
 Red. masses --      2.8511                 3.7568                 2.9740
 Frc consts  --      0.0116                 0.0254                 0.0409
 IR Inten    --      0.3706                 1.4122                 1.8415

                      7                      8                      9
                      A                      A                      A
 Frequencies --    177.4506               190.0416               209.5981
 Red. masses --      3.2402                 5.5535                 3.5987
 Frc consts  --      0.0601                 0.1182                 0.0931
 IR Inten    --      0.9099                 1.0936                 6.8548

                     10                     11                     12
                      A                      A                      A
 Frequencies --    226.3444               246.9450               262.8849
 Red. masses --      1.0950                 1.6714                 1.6046
 Frc consts  --      0.0331                 0.0601                 0.0653
 IR Inten    --      0.4952                 5.3145                 3.6824

                     13                     14                     15
                      A                      A                      A
 Frequencies --    325.3621               331.8297               366.6521
 Red. masses --      1.8908                 2.4023                 1.6262
 Frc consts  --      0.1179                 0.1558                 0.1288
 IR Inten    --     24.6913                 2.1968                76.3785

                     16                     17                     18
                      A                      A                      A
 Frequencies --    374.8611               394.3543               420.3353
 Red. masses --      3.1147                 1.9665                 1.9746
 Frc consts  --      0.2579                 0.1802                 0.2056
 IR Inten    --      2.4235                54.1521                 4.1608

                     19                     20                     21
                      A                      A                      A
 Frequencies --    445.3906               508.4732               539.4130
 Red. masses --      2.8126                 2.7128                 4.1671
 Frc consts  --      0.3287                 0.4132                 0.7144
 IR Inten    --     34.9023                 0.4838                12.3618

                     22                     23                     24
                      A                      A                      A
 Frequencies --    628.7810               641.7216               684.0800
 Red. masses --      3.9917                 3.8744                 3.7056
 Frc consts  --      0.9298                 0.9400                 1.0217
 IR Inten    --      1.2529                 0.7710                 3.5443

                     25                     26                     27
                      A                      A                      A
 Frequencies --    757.7499               778.6362               799.7588
 Red. masses --      2.6065                 2.5866                 2.1981
 Frc consts  --      0.8818                 0.9239                 0.8284
 IR Inten    --     26.7849                 5.3783                40.7158

                     28                     29                     30
                      A                      A                      A
 Frequencies --    806.7300               887.6794               908.7993
 Red. masses --      2.3298                 1.3192                 1.7653
 Frc consts  --      0.8934                 0.6125                 0.8590
 IR Inten    --     14.9631                 0.9780                 5.9838

                     31                     32                     33
                      A                      A                      A
 Frequencies --    917.5555               942.1678               958.5104
 Red. masses --      1.9583                 1.2330                 1.8729
 Frc consts  --      0.9714                 0.6449                 1.0138
 IR Inten    --      1.1413                 2.5253                15.2187

                     34                     35                     36
                      A                      A                      A
 Frequencies --    975.4862               982.3093              1008.2147
 Red. masses --      1.4825                 1.8306                 1.7468
 Frc consts  --      0.8312                 1.0407                 1.0462
 IR Inten    --      4.1194                 2.8956                 0.4266

                     37                     38                     39
                      A                      A                      A
 Frequencies --   1026.4340              1036.1103              1044.6731
 Red. masses --      2.3499                 4.5824                 2.1798
 Frc consts  --      1.4587                 2.8984                 1.4016
 IR Inten    --     18.0638                68.8242                 6.8394

                     40                     41                     42
                      A                      A                      A
 Frequencies --   1061.5702              1162.3472              1169.9804
 Red. masses --      1.2338                 1.9522                 2.1986
 Frc consts  --      0.8192                 1.5540                 1.7732
 IR Inten    --     16.0667                 2.2753                12.6345

                     43                     44                     45
                      A                      A                      A
 Frequencies --   1191.0777              1207.1405              1220.3289
 Red. masses --      1.5031                 1.7563                 2.1251
 Frc consts  --      1.2564                 1.5078                 1.8646
 IR Inten    --     22.5135                 2.3669                35.3836

                     46                     47                     48
                      A                      A                      A
 Frequencies --   1249.8109              1269.7397              1294.3024
 Red. masses --      1.5419                 1.4546                 1.4395
 Frc consts  --      1.4191                 1.3818                 1.4208
 IR Inten    --     67.9157                 9.6918                 3.7358

                     49                     50                     51
                      A                      A                      A
 Frequencies --   1359.3693              1370.2959              1372.4102
 Red. masses --      1.6244                 1.6690                 1.4367
 Frc consts  --      1.7685                 1.8465                 1.5944
 IR Inten    --     19.4157                26.3763                17.4780

                     52                     53                     54
                      A                      A                      A
 Frequencies --   1385.6984              1405.9628              1409.8728
 Red. masses --      1.5273                 1.9581                 1.3483
 Frc consts  --      1.7278                 2.2805                 1.5790
 IR Inten    --      4.5309                13.9495                 6.1604

                     55                     56                     57
                      A                      A                      A
 Frequencies --   1426.1281              1431.2996              1433.4795
 Red. masses --      1.4055                 1.2933                 1.2947
 Frc consts  --      1.6842                 1.5611                 1.5675
 IR Inten    --     12.4379                70.9964                67.1387

                     58                     59                     60
                      A                      A                      A
 Frequencies --   1452.8186              1470.5103              1484.1371
 Red. masses --      1.2386                 2.5397                 2.3452
 Frc consts  --      1.5402                 3.2357                 3.0436
 IR Inten    --      7.2404                30.7263                35.8236

                     61                     62                     63
                      A                      A                      A
 Frequencies --   1513.4569              1518.6971              1522.6045
 Red. masses --      1.0777                 1.0580                 1.1020
 Frc consts  --      1.4544                 1.4378                 1.5053
 IR Inten    --      1.3684                 0.1926                 1.6113

                     64                     65                     66
                      A                      A                      A
 Frequencies --   1530.2541              1531.2484              1535.2740
 Red. masses --      1.1720                 2.5891                 1.0840
 Frc consts  --      1.6169                 3.5768                 1.5054
 IR Inten    --      1.9630                31.4981                 3.5989

                     67                     68                     69
                      A                      A                      A
 Frequencies --   1539.3471              1548.2928              1588.2118
 Red. masses --      1.0596                 1.2156                 5.2917
 Frc consts  --      1.4794                 1.7169                 7.8643
 IR Inten    --      9.7831                18.0016                52.3650

                     70                     71                     72
                      A                      A                      A
 Frequencies --   1768.1807              2945.9549              3028.9007
 Red. masses --      9.0024                 1.0812                 1.0776
 Frc consts  --     16.5830                 5.5284                 5.8249
 IR Inten    --    292.0978               124.4567                 0.2926

                     73                     74                     75
                      A                      A                      A
 Frequencies --   3036.0519              3038.2803              3039.7777
 Red. masses --      1.0684                 1.0464                 1.0518
 Frc consts  --      5.8026                 5.6911                 5.7261
 IR Inten    --     57.8703                19.9550                22.0867

                     76                     77                     78
                      A                      A                      A
 Frequencies --   3046.8583              3092.1643              3102.6149
 Red. masses --      1.0484                 1.0658                 1.1007
 Frc consts  --      5.7342                 6.0043                 6.2428
 IR Inten    --     49.2011                20.2284                11.9071

                     79                     80                     81
                      A                      A                      A
 Frequencies --   3106.4736              3107.7850              3111.8702
 Red. masses --      1.0948                 1.0981                 1.0987
 Frc consts  --      6.2250                 6.2488                 6.2685
 IR Inten    --     46.2157                30.3122                21.3902

                     82                     83                     84
                      A                      A                      A
 Frequencies --   3115.6263              3118.4991              3144.5146
 Red. masses --      1.1004                 1.1013                 1.0996
 Frc consts  --      6.2934                 6.3105                 6.4059
 IR Inten    --     19.7230                52.5141                16.4205

                     85                     86                     87
                      A                      A                      A
 Frequencies --   3251.3670              3283.3408              3729.6313
 Red. masses --      1.0938                 1.0986                 1.0662
 Frc consts  --      6.8128                 6.9776                 8.7382
 IR Inten    --      5.1002                 0.4751                14.1842

 - Thermochemistry -
 -------------------
 Temperature   298.150 Kelvin.  Pressure   1.00000 Atm.
 Atom     1 has atomic number  6 and mass  12.00000

 Molecular mass:   195.12593 amu.
 Principal axes and moments of inertia in atomic units:
                           1         2         3
     Eigenvalues --  2563.283912861.273254656.66464
           X            0.99659  -0.08249  -0.00017
           Y            0.08249   0.99658   0.00444
           Z           -0.00020  -0.00444   0.99999
 This molecule is an asymmetric top.
 Rotational symmetry number  1.
 Warning -- assumption of classical behavior for rotation
           may cause significant error
 Rotational temperatures (Kelvin)      0.03379     0.03027     0.01860
 Rotational constants (GHZ):           0.70407     0.63075     0.38756
 Zero-point vibrational energy     705929.1 (Joules/Mol)
                                  168.72112 (Kcal/Mol)
 Warning -- explicit consideration of  21 degrees of freedom as
           vibrations may cause significant error
 Vibrational temperatures:     38.30    73.60   104.24   119.53   154.25
          (Kelvin)            219.74   255.31   273.43   301.56   325.66
                              355.30   378.23   468.12   477.43   527.53
                              539.34   567.39   604.77   640.82   731.58
                              776.09   904.68   923.29   984.24  1090.23
                             1120.28  1150.67  1160.70  1277.17  1307.56
                             1320.16  1355.57  1379.08  1403.51  1413.32
                             1450.60  1476.81  1490.73  1503.05  1527.36
                             1672.36  1683.34  1713.70  1736.81  1755.78
                             1798.20  1826.87  1862.21  1955.83  1971.55
                             1974.59  1993.71  2022.87  2028.49  2051.88
                             2059.32  2062.46  2090.28  2115.74  2135.34
                             2177.53  2185.07  2190.69  2201.69  2203.12
                             2208.92  2214.78  2227.65  2285.08  2544.02
                             4238.57  4357.91  4368.20  4371.41  4373.56
                             4383.75  4448.93  4463.97  4469.52  4471.41
                             4477.29  4482.69  4486.82  4524.26  4677.99
                             4724.00  5366.11

 Zero-point correction=                           0.268874 (Hartree/Particle)
 Thermal correction to Energy=                    0.283748
 Thermal correction to Enthalpy=                  0.284692
 Thermal correction to Gibbs Free Energy=         0.226409
 Sum of electronic and zero-point Energies=           -634.373521
 Sum of electronic and thermal Energies=              -634.358648
 Sum of electronic and thermal Enthalpies=            -634.357703
 Sum of electronic and thermal Free Energies=         -634.415986

                     E (Thermal)             CV                S
                      KCal/Mol        Cal/Mol-Kelvin    Cal/Mol-Kelvin
 Total                  178.054             55.242            122.667
 Electronic               0.000              0.000              0.000
 Translational            0.889              2.981             41.711
 Rotational               0.889              2.981             31.902
 Vibrational            176.277             49.281             49.054
 Vibration     1          0.593              1.984              6.066
 Vibration     2          0.595              1.977              4.772
 Vibration     3          0.599              1.967              4.086
 Vibration     4          0.600              1.961              3.817
 Vibration     5          0.606              1.943              3.319
 Vibration     6          0.619              1.900              2.638
 Vibration     7          0.628              1.870              2.355
 Vibration     8          0.633              1.854              2.227
 Vibration     9          0.642              1.826              2.047
 Vibration    10          0.650              1.801              1.908
 Vibration    11          0.661              1.768              1.752
 Vibration    12          0.670              1.741              1.643
 Vibration    13          0.709              1.625              1.283
 Vibration    14          0.714              1.612              1.251
 Vibration    15          0.740              1.541              1.094
 Vibration    16          0.746              1.524              1.060
 Vibration    17          0.761              1.482              0.984
 Vibration    18          0.783              1.426              0.891
 Vibration    19          0.805              1.371              0.810
 Vibration    20          0.864              1.231              0.637
 Vibration    21          0.894              1.163              0.567

 Optimization completed.
    -- Stationary point found.
 Normal termination of Gaussian 16 at Thu Dec 10 10:05:12 2020.

 ----------------------------------------------------------------------
 # B3LYP/6-311++G(d,p) empiricaldispersion=gd3bj scf=xqc pop=npa geom=c
 heck
 ----------------------------------------------------------------------

 ------------------------------------
 CID_131592_JID_4460_Energie_neutraal
 ------------------------------------
 Structure from the checkpoint file:  "JID_4460.chk"
 Charge =  0 Multiplicity = 1

 SCF Done:  E(RB3LYP) =  -634.829728873     A.U. after   15 cycles
 Normal termination of Gaussian 16 at Thu Dec 10 10:10:04 2020.

 ----------------------------------------------------------------------
 # B3LYP/6-311++G(d,p) empiricaldispersion=gd3bj scf=xqc pop=npa geom=c
 heck
 ----------------------------------------------------------------------

 ----------------------------------
 CID_131592_JID_4460_Energie_kation
 ----------------------------------
 Structure from the checkpoint file:  "JID_4460.chk"
 Charge =  1 Multiplicity = 2

 SCF Done:  E(UB3LYP) =  -634.522939947     A.U. after   25 cycles
 Normal termination of Gaussian 16 at Thu Dec 10 10:22:06 2020.
 Gaussian 16:  ES64L-G16RevA.03 25-Dec-2016

 ----------------------------------------------------------------------
 # B3LYP/6-311++G(d,p) empiricaldispersion=gd3bj scf=xqc pop=npa geom=c
 heck
 ----------------------------------------------------------------------

 ---------------------------------
 CID_131592_JID_4460_Energie_anion
 ---------------------------------
 Structure from the checkpoint file:  "JID_4460.chk"
 Charge = -1 Multiplicity = 2

                         Standard orientation:
 ---------------------------------------------------------------------
 Center     Atomic      Atomic             Coordinates (Angstroms)
 Number     Number       Type             X           Y           Z
 ---------------------------------------------------------------------
      1          6           0        3.273432    0.085445    0.403900
      2          6           0        2.139412   -0.611040   -0.359566
      3          6           0        2.713626   -1.591056   -1.390463
      4          6           0        1.175390   -1.344109    0.588505
      5          6           0        0.223403   -0.442595    1.386870
      6          7           0       -0.774093    0.235923    0.553422
      7          6           0       -1.937565   -0.338914    0.098352
      8          6           0       -2.585391    0.581563   -0.724787
      9          6           0       -1.798550    1.742036   -0.772831
     10          6           0       -0.675741    1.520160    0.022098
     11          6           0        0.389125    2.467653    0.301305
     12          8           0        0.447099    3.581072   -0.199717
     13          6           0       -2.372854   -1.731267    0.420933
     14          8           0       -1.665340   -2.744682   -0.304507
     15          1           0        3.909956   -0.656055    0.903658
     16          1           0        2.901868    0.771789    1.172830
     17          1           0        3.906247    0.667652   -0.274784
     18          1           0        1.568324    0.150743   -0.908584
     19          1           0        3.266449   -2.399306   -0.894581
     20          1           0        1.917774   -2.049366   -1.988528
     21          1           0        3.404377   -1.085858   -2.074936
     22          1           0        0.557939   -2.054725    0.030841
     23          1           0        1.758407   -1.933225    1.310808
     24          1           0       -0.318766   -1.043337    2.122379
     25          1           0        0.766531    0.320038    1.947978
     26          1           0       -3.537290    0.412887   -1.211126
     27          1           0       -1.994213    2.665899   -1.297579
     28          1           0        1.170914    2.137611    1.014560
     29          1           0       -2.215110   -1.976142    1.475549
     30          1           0       -3.452535   -1.798671    0.228376
     31          1           0       -1.712018   -2.499774   -1.242916
 ---------------------------------------------------------------------

 SCF Done:  E(UB3LYP) =  -634.834493203     A.U. after   32 cycles

 The electronic state is 2-A.
 Alpha  occ. eigenvalues --  -19.00286 -18.91725 -14.21599 -10.10427 -10.09268
 Alpha  occ. eigenvalues --  -10.06507 -10.05934 -10.05913 -10.05635 -10.05620
 Alpha  occ. eigenvalues --  -10.05315 -10.04136 -10.02553 -10.00840  -0.90412
 Alpha  occ. eigenvalues --   -0.85729  -0.84326  -0.71015  -0.67043  -0.62587
 Alpha  occ. eigenvalues --   -0.60135  -0.58384  -0.55228  -0.52518  -0.47194
 Alpha  occ. eigenvalues --   -0.45938  -0.42883  -0.40429  -0.39373  -0.36584
 Alpha  occ. eigenvalues --   -0.35308  -0.34637  -0.33091  -0.31920  -0.31382
 Alpha  occ. eigenvalues --   -0.30691  -0.29005  -0.28770  -0.27828  -0.26582
 Alpha  occ. eigenvalues --   -0.25788  -0.25183  -0.25099  -0.23866  -0.22755
 Alpha  occ. eigenvalues --   -0.22150  -0.21891  -0.21113  -0.20722  -0.16443
 Alpha  occ. eigenvalues --   -0.11284  -0.08292  -0.08195   0.04983
 Alpha virt. eigenvalues --    0.07410   0.08382   0.08760   0.09942   0.10337
 Alpha virt. eigenvalues --    0.10597   0.11091   0.12012   0.12719   0.13302
 Alpha virt. eigenvalues --    0.13569   0.13849   0.14268   0.15279   0.15612

  Beta  occ. eigenvalues --  -19.00192 -18.91133 -14.21329 -10.10422 -10.09276
  Beta  occ. eigenvalues --  -10.06498 -10.05929 -10.05619 -10.05586 -10.05515
  Beta  occ. eigenvalues --  -10.05307 -10.04137 -10.02628 -10.00669  -0.90174
  Beta  occ. eigenvalues --   -0.84900  -0.83713  -0.70982  -0.66926  -0.62296
  Beta  occ. eigenvalues --   -0.60005  -0.58375  -0.54855  -0.52456  -0.46699
  Beta  occ. eigenvalues --   -0.45784  -0.42640  -0.40237  -0.39131  -0.36477
  Beta  occ. eigenvalues --   -0.35166  -0.34445  -0.32969  -0.31834  -0.31203
  Beta  occ. eigenvalues --   -0.30565  -0.28886  -0.28719  -0.27673  -0.26409
  Beta  occ. eigenvalues --   -0.25470  -0.24785  -0.24656  -0.23629  -0.22393
  Beta  occ. eigenvalues --   -0.22039  -0.21800  -0.20972  -0.18508  -0.16323
  Beta  occ. eigenvalues --   -0.10424  -0.07767  -0.06820
  Beta virt. eigenvalues --    0.07446   0.08392   0.08567   0.09860   0.10391
  Beta virt. eigenvalues --    0.10622   0.10685   0.11597   0.12342   0.12747
  Beta virt. eigenvalues --    0.13258   0.13498   0.13844   0.14288   0.15266

 Mulliken charges and spin densities:
               1          2
     1  C   -0.655612  -0.003961
     2  C    0.305869   0.053525
     3  C   -0.572357  -0.008117
     4  C   -0.414403  -0.086298
     5  C   -0.094444  -0.099936
     6  N    0.357780   0.087322
     7  C   -0.091989   0.340706
     8  C   -0.053864  -0.135315
     9  C   -0.150461   0.149838
    10  C    0.181538   0.014342
    11  C   -0.586531   0.233097
    12  O   -0.396274   0.198744
    13  C   -0.432793  -0.339629
    14  O   -0.150197  -0.048293
    15  H    0.109760   0.002999
    16  H    0.137691  -0.003632
    17  H    0.132244  -0.001004
    18  H    0.230501  -0.000028
    19  H    0.122638  -0.000174
    20  H    0.065854   0.073228
    21  H    0.109768   0.017212
    22  H    0.315025  -0.064151
    23  H    0.086696   0.007275
    24  H    0.128849   0.004303
    25  H    0.034101   0.137826
    26  H    0.035512   0.084073
    27  H    0.150392  -0.007921
    28  H   -0.019123  -0.009903
    29  H    0.120878   0.024604
    30  H    0.030812   0.109553
    31  H   -0.037858   0.269712
 Sum of Mulliken charges =  -1.00000   1.00000

 Dipole moment (field-independent basis, Debye):
    X=              2.3693    Y=             -5.1509    Z=              1.7316  Tot=              5.9282
 Quadrupole moment (field-independent basis, Debye-Ang):
   XX=           -107.5421   YY=           -144.6650   ZZ=            -97.5809
   XY=             -7.5809   XZ=             -1.3727   YZ=             -2.2741

 Summary of Natural Population Analysis:

                                       Natural Population
                Natural  -----------------------------------------------
    Atom  No    Charge         Core      Valence    Rydberg      Total
 -----------------------------------------------------------------------
      C    1   -0.28315      0.99965     2.27872    0.00477     3.28315
      C    2   -0.12454      0.99961     2.11688    0.00804     3.12454
      C    3   -0.27924      0.99966     2.27503    0.00455     3.27924
      C    4   -0.19613      0.99960     2.18838    0.00815     3.19613
      C    5   -0.08153      0.99962     2.07129    0.01062     3.08153
      N    6   -0.16902      0.99959     2.65861    0.01082     3.66902
      C    7    0.07511      0.99953     1.91321    0.01215     2.92489
      C    8   -0.16322      0.99952     2.15349    0.01021     3.16322
      C    9   -0.09265      0.99952     2.08471    0.00842     3.09265
      C   10    0.02607      0.99951     1.96037    0.01406     2.97393
      C   11    0.22239      0.99966     1.75837    0.01958     2.77761
      O   12   -0.24168      0.99989     3.23432    0.00748     4.24168
      C   13   -0.02995      0.99955     2.01616    0.01424     3.02995
      O   14   -0.37209      0.99990     3.36491    0.00727     4.37209
      H   15    0.08858      0.00000     0.41052    0.00090     0.41142
      H   16    0.10137      0.00000     0.39733    0.00131     0.39863
      H   17    0.09724      0.00000     0.40200    0.00076     0.40276
      H   18    0.10810      0.00000     0.39020    0.00170     0.39190
      H   19    0.09030      0.00000     0.40879    0.00091     0.40970
      H   20    0.10058      0.00000     0.39856    0.00086     0.39942
      H   21    0.09444      0.00000     0.40478    0.00078     0.40556
      H   22    0.11479      0.00000     0.38382    0.00139     0.38521
      H   23    0.08899      0.00000     0.41010    0.00091     0.41101
      H   24    0.09426      0.00000     0.40468    0.00106     0.40574
      H   25    0.10095      0.00000     0.39706    0.00200     0.39905
      H   26    0.09705      0.00000     0.40215    0.00080     0.40295
      H   27    0.10400      0.00000     0.39512    0.00087     0.39600
      H   28    0.03206      0.00000     0.46579    0.00215     0.46794
      H   29    0.08503      0.00000     0.41377    0.00120     0.41497
      H   30    0.08255      0.00000     0.41616    0.00128     0.41745
      H   31    0.22933      0.00000     0.26482    0.00585     0.27067
 =======================================================================
   * Total *   -0.00000     13.99480    38.84011    0.16509    53.00000

 Normal termination of Gaussian 16 at Thu Dec 10 10:37:08 2020.
