 Gaussian 16, Revision A.03,

 -----------------------------------------------------------
 # opt freq B3LYP/6-31G(d) empiricaldispersion=gd3bj scf=xqc
 -----------------------------------------------------------

 ------------------------------
 CID_63898137_JID_5413_neutraal
 ------------------------------
 Symbolic Z-matrix:
 Charge =  0 Multiplicity = 1

 SCF Done:  E(RB3LYP) =  -725.894677850     A.U. after   15 cycles
 SCF Done:  E(RB3LYP) =  -725.899392276     A.U. after   13 cycles
 SCF Done:  E(RB3LYP) =  -725.899770732     A.U. after   14 cycles
 SCF Done:  E(RB3LYP) =  -725.900395905     A.U. after   12 cycles
 SCF Done:  E(RB3LYP) =  -725.900918253     A.U. after   12 cycles
 SCF Done:  E(RB3LYP) =  -725.901266043     A.U. after   12 cycles
 SCF Done:  E(RB3LYP) =  -725.901770850     A.U. after   13 cycles
 SCF Done:  E(RB3LYP) =  -725.902220954     A.U. after   12 cycles
 SCF Done:  E(RB3LYP) =  -725.901659561     A.U. after   13 cycles
 SCF Done:  E(RB3LYP) =  -725.902565998     A.U. after   12 cycles
 SCF Done:  E(RB3LYP) =  -725.904115727     A.U. after    9 cycles
 SCF Done:  E(RB3LYP) =  -725.904116030     A.U. after    8 cycles
 SCF Done:  E(RB3LYP) =  -725.904116208     A.U. after    9 cycles
 SCF Done:  E(RB3LYP) =  -725.904116305     A.U. after    8 cycles
 SCF Done:  E(RB3LYP) =  -725.904116374     A.U. after    8 cycles
 SCF Done:  E(RB3LYP) =  -725.904116396     A.U. after    7 cycles
 Optimization completed.
    -- Stationary point found.
 Normal termination of Gaussian 16 at Thu Dec 10 16:14:21 2020.

 --------------------------------------------------------------------
 #N Geom=AllCheck Guess=TCheck SCRF=Check GenChk RB3LYP/6-31G(d) Freq
 --------------------------------------------------------------------

 Structure from the checkpoint file:  "JID_5413.chk"
 ------------------------------
 CID_63898137_JID_5413_neutraal
 ------------------------------
 Charge =  0 Multiplicity = 1

 SCF Done:  E(RB3LYP) =  -725.904116396     A.U. after    1 cycles

  Exact polarizability: 130.539  -6.794 117.205   3.672  -4.836 108.695
 Approx polarizability: 163.318 -15.718 172.589  13.698 -23.708 179.430

                      1                      2                      3
                      A                      A                      A
 Frequencies --     11.4267                29.1216                44.8682
 Red. masses --      4.7342                 6.9884                 5.9730
 Frc consts  --      0.0004                 0.0035                 0.0071
 IR Inten    --      0.7213                 3.9513                 0.7014

                      4                      5                      6
                      A                      A                      A
 Frequencies --     53.6242                73.6174                97.2725
 Red. masses --      3.0311                 4.4319                 6.1274
 Frc consts  --      0.0051                 0.0142                 0.0342
 IR Inten    --      0.9634                 4.2506                 2.5529

                      7                      8                      9
                      A                      A                      A
 Frequencies --    105.5848               129.2056               134.3604
 Red. masses --      4.3456                 3.6229                 3.7927
 Frc consts  --      0.0285                 0.0356                 0.0403
 IR Inten    --      4.2835                 4.3997                 0.3797

                     10                     11                     12
                      A                      A                      A
 Frequencies --    191.7256               204.3150               244.6662
 Red. masses --      3.2111                 2.3328                 1.3005
 Frc consts  --      0.0695                 0.0574                 0.0459
 IR Inten    --      3.7945                 1.3378                 4.3610

                     13                     14                     15
                      A                      A                      A
 Frequencies --    268.7801               289.9202               317.0384
 Red. masses --      2.5543                 1.4514                 1.9824
 Frc consts  --      0.1087                 0.0719                 0.1174
 IR Inten    --      7.2684                 0.5621                 4.9850

                     16                     17                     18
                      A                      A                      A
 Frequencies --    349.3477               356.3789               377.2631
 Red. masses --      2.3334                 2.6489                 2.9521
 Frc consts  --      0.1678                 0.1982                 0.2476
 IR Inten    --      0.6430                 9.0293                 1.2132

                     19                     20                     21
                      A                      A                      A
 Frequencies --    394.0653               414.1094               435.9391
 Red. masses --      2.7574                 4.3996                 4.3971
 Frc consts  --      0.2523                 0.4445                 0.4923
 IR Inten    --      1.9824                16.5200                 6.0448

                     22                     23                     24
                      A                      A                      A
 Frequencies --    484.2157               505.2216               527.2507
 Red. masses --      4.0096                 2.3693                 4.3602
 Frc consts  --      0.5539                 0.3563                 0.7141
 IR Inten    --      8.3436                22.6614                 9.4320

                     25                     26                     27
                      A                      A                      A
 Frequencies --    612.9407               621.7173               722.6314
 Red. masses --      3.0859                 4.6242                 3.1273
 Frc consts  --      0.6831                 1.0531                 0.9622
 IR Inten    --     10.3604                 7.3972                 6.1792

                     28                     29                     30
                      A                      A                      A
 Frequencies --    767.0161               800.2551               816.7910
 Red. masses --      2.6387                 1.8901                 2.2354
 Frc consts  --      0.9146                 0.7132                 0.8787
 IR Inten    --      5.1971                 2.1963                 3.5977

                     31                     32                     33
                      A                      A                      A
 Frequencies --    831.9094               866.0934               916.8081
 Red. masses --      2.3482                 2.5651                 2.1168
 Frc consts  --      0.9575                 1.1337                 1.0483
 IR Inten    --      4.8718                 7.8112                 6.1292

                     34                     35                     36
                      A                      A                      A
 Frequencies --    940.6570               944.9803              1001.7328
 Red. masses --      2.6010                 2.7020                 2.4461
 Frc consts  --      1.3560                 1.4216                 1.4462
 IR Inten    --      6.7777                17.9194                 2.7779

                     37                     38                     39
                      A                      A                      A
 Frequencies --   1010.4175              1052.5173              1072.8079
 Red. masses --      2.7480                 2.3467                 4.0785
 Frc consts  --      1.6530                 1.5316                 2.7657
 IR Inten    --      5.7870                 9.8474                58.3542

                     40                     41                     42
                      A                      A                      A
 Frequencies --   1086.8481              1132.1323              1157.4189
 Red. masses --      1.8870                 1.9648                 1.5081
 Frc consts  --      1.3133                 1.4838                 1.1903
 IR Inten    --     36.8514                26.5796                82.8724

                     43                     44                     45
                      A                      A                      A
 Frequencies --   1165.7797              1192.9789              1208.5289
 Red. masses --      1.6004                 1.6786                 1.7661
 Frc consts  --      1.2815                 1.4075                 1.5198
 IR Inten    --     42.9334                 4.5228                10.2813

                     46                     47                     48
                      A                      A                      A
 Frequencies --   1215.9452              1238.4123              1264.9904
 Red. masses --      2.4521                 1.7060                 1.2475
 Frc consts  --      2.1360                 1.5415                 1.1762
 IR Inten    --    130.6050                39.0949                 8.9573

                     49                     50                     51
                      A                      A                      A
 Frequencies --   1297.8953              1314.8470              1332.4414
 Red. masses --      2.1066                 1.7852                 1.4857
 Frc consts  --      2.0908                 1.8184                 1.5541
 IR Inten    --    161.1099                59.5610                32.3710

                     52                     53                     54
                      A                      A                      A
 Frequencies --   1348.6721              1351.2910              1381.6078
 Red. masses --      1.7130                 1.1339                 1.4043
 Frc consts  --      1.8357                 1.2199                 1.5794
 IR Inten    --      3.9894                15.3603                 1.7685

                     55                     56                     57
                      A                      A                      A
 Frequencies --   1407.7815              1421.0853              1421.8969
 Red. masses --      1.4234                 1.2755                 1.3025
 Frc consts  --      1.6620                 1.5176                 1.5516
 IR Inten    --     16.4419                12.3593                12.9910

                     58                     59                     60
                      A                      A                      A
 Frequencies --   1445.0398              1475.5485              1477.3212
 Red. masses --      1.3369                 1.1038                 1.1053
 Frc consts  --      1.6447                 1.4159                 1.4213
 IR Inten    --      6.0056                 3.5607                24.7564

                     61                     62                     63
                      A                      A                      A
 Frequencies --   1494.3381              1499.0697              1510.9774
 Red. masses --      1.0873                 1.1042                 1.0569
 Frc consts  --      1.4305                 1.4620                 1.4217
 IR Inten    --      9.1711                 9.3148                 7.1275

                     64                     65                     66
                      A                      A                      A
 Frequencies --   1516.2863              1518.4112              1521.2739
 Red. masses --      1.0696                 1.0717                 1.1046
 Frc consts  --      1.4489                 1.4558                 1.5062
 IR Inten    --     10.1599                 5.1131                14.0530

                     67                     68                     69
                      A                      A                      A
 Frequencies --   1538.4790              1551.5803              1809.1209
 Red. masses --      1.0549                 1.0551                11.8434
 Frc consts  --      1.4712                 1.4966                22.8381
 IR Inten    --      5.3835                 5.6507               346.3915

                     70                     71                     72
                      A                      A                      A
 Frequencies --   1834.8735              2367.7171              2981.7497
 Red. masses --     11.3367                12.5867                 1.0574
 Frc consts  --     22.4880                41.5740                 5.5388
 IR Inten    --     43.9719                 7.3057                78.1096

                     73                     74                     75
                      A                      A                      A
 Frequencies --   3045.4014              3053.6081              3062.4020
 Red. masses --      1.0608                 1.0667                 1.0369
 Frc consts  --      5.7964                 5.8605                 5.7297
 IR Inten    --     25.0530                10.3363                14.5777

                     76                     77                     78
                      A                      A                      A
 Frequencies --   3067.5557              3082.3618              3083.8648
 Red. masses --      1.0600                 1.0805                 1.0597
 Frc consts  --      5.8769                 6.0482                 5.9378
 IR Inten    --      9.6810                31.5737                 1.1097

                     79                     80                     81
                      A                      A                      A
 Frequencies --   3091.0905              3093.2477              3103.0913
 Red. masses --      1.0997                 1.0595                 1.1022
 Frc consts  --      6.1911                 5.9727                 6.2532
 IR Inten    --      8.3279                23.6942                 1.8269

                     82                     83                     84
                      A                      A                      A
 Frequencies --   3123.7376              3125.5731              3133.2097
 Red. masses --      1.1000                 1.1010                 1.1019
 Frc consts  --      6.3243                 6.3373                 6.3731
 IR Inten    --     19.6236                38.7164                 5.7486

                     85                     86                     87
                      A                      A                      A
 Frequencies --   3142.0649              3146.5473              3163.7212
 Red. masses --      1.1059                 1.0979                 1.1055
 Frc consts  --      6.4328                 6.4042                 6.5192
 IR Inten    --      8.5298                16.3446                25.4307

 - Thermochemistry -
 -------------------
 Temperature   298.150 Kelvin.  Pressure   1.00000 Atm.
 Atom     1 has atomic number  6 and mass  12.00000

 Molecular mass:   212.11609 amu.
 Principal axes and moments of inertia in atomic units:
                           1         2         3
     Eigenvalues --  2008.787924699.203675479.17729
           X            0.99979  -0.00668  -0.01917
           Y            0.00752   0.99900   0.04417
           Z            0.01886  -0.04430   0.99884
 This molecule is an asymmetric top.
 Rotational symmetry number  1.
 Warning -- assumption of classical behavior for rotation
           may cause significant error
 Rotational temperatures (Kelvin)      0.04312     0.01843     0.01581
 Rotational constants (GHZ):           0.89842     0.38405     0.32938
 Zero-point vibrational energy     681981.5 (Joules/Mol)
                                  162.99750 (Kcal/Mol)
 Warning -- explicit consideration of  25 degrees of freedom as
           vibrations may cause significant error
 Vibrational temperatures:     16.44    41.90    64.56    77.15   105.92
          (Kelvin)            139.95   151.91   185.90   193.31   275.85
                              293.96   352.02   386.71   417.13   456.15
                              502.63   512.75   542.80   566.97   595.81
                              627.22   696.68   726.90   758.60   881.88
                              894.51  1039.71  1103.57  1151.39  1175.18
                             1196.93  1246.12  1319.08  1353.40  1359.62
                             1441.27  1453.77  1514.34  1543.53  1563.73
                             1628.89  1665.27  1677.30  1716.43  1738.80
                             1749.47  1781.80  1820.04  1867.38  1891.77
                             1917.09  1940.44  1944.21  1987.83  2025.48
                             2044.62  2045.79  2079.09  2122.99  2125.54
                             2150.02  2156.83  2173.96  2181.60  2184.66
                             2188.77  2213.53  2232.38  2602.92  2639.97
                             3406.62  4290.07  4381.65  4393.46  4406.11
                             4413.53  4434.83  4436.99  4447.39  4450.49
                             4464.66  4494.36  4497.00  4507.99  4520.73
                             4527.18  4551.89

 Zero-point correction=                           0.259753 (Hartree/Particle)
 Thermal correction to Energy=                    0.276516
 Thermal correction to Enthalpy=                  0.277461
 Thermal correction to Gibbs Free Energy=         0.212650
 Sum of electronic and zero-point Energies=           -725.644363
 Sum of electronic and thermal Energies=              -725.627600
 Sum of electronic and thermal Enthalpies=            -725.626656
 Sum of electronic and thermal Free Energies=         -725.691466

                     E (Thermal)             CV                S
                      KCal/Mol        Cal/Mol-Kelvin    Cal/Mol-Kelvin
 Total                  173.517             59.350            136.405
 Electronic               0.000              0.000              0.000
 Translational            0.889              2.981             41.959
 Rotational               0.889              2.981             32.314
 Vibrational            171.739             53.388             62.131
 Vibration     1          0.593              1.987              7.746
 Vibration     2          0.593              1.984              5.888
 Vibration     3          0.595              1.979              5.032
 Vibration     4          0.596              1.976              4.679
 Vibration     5          0.599              1.966              4.054
 Vibration     6          0.603              1.951              3.508
 Vibration     7          0.605              1.945              3.349
 Vibration     8          0.612              1.924              2.958
 Vibration     9          0.613              1.919              2.883
 Vibration    10          0.634              1.851              2.211
 Vibration    11          0.640              1.834              2.094
 Vibration    12          0.660              1.772              1.769
 Vibration    13          0.673              1.731              1.604
 Vibration    14          0.686              1.692              1.474
 Vibration    15          0.704              1.641              1.325
 Vibration    16          0.727              1.577              1.169
 Vibration    17          0.732              1.562              1.138
 Vibration    18          0.748              1.519              1.050
 Vibration    19          0.761              1.483              0.985
 Vibration    20          0.778              1.440              0.912
 Vibration    21          0.796              1.392              0.839
 Vibration    22          0.840              1.285              0.699
 Vibration    23          0.860              1.238              0.645
 Vibration    24          0.882              1.190              0.593
 Vibration    25          0.972              1.004              0.428

 Optimization completed.
    -- Stationary point found.
 Normal termination of Gaussian 16 at Thu Dec 10 16:24:56 2020.

 ----------------------------------------------------------------------
 # B3LYP/6-311++G(d,p) empiricaldispersion=gd3bj scf=xqc pop=npa geom=c
 heck
 ----------------------------------------------------------------------

 --------------------------------------
 CID_63898137_JID_5413_Energie_neutraal
 --------------------------------------
 Structure from the checkpoint file:  "JID_5413.chk"
 Charge =  0 Multiplicity = 1

 SCF Done:  E(RB3LYP) =  -726.117275992     A.U. after   14 cycles
 Normal termination of Gaussian 16 at Thu Dec 10 16:28:47 2020.

 ----------------------------------------------------------------------
 # B3LYP/6-311++G(d,p) empiricaldispersion=gd3bj scf=xqc pop=npa geom=c
 heck
 ----------------------------------------------------------------------

 ------------------------------------
 CID_63898137_JID_5413_Energie_kation
 ------------------------------------
 Structure from the checkpoint file:  "JID_5413.chk"
 Charge =  1 Multiplicity = 2

 SCF Done:  E(UB3LYP) =  -725.808799172     A.U. after   21 cycles
 Normal termination of Gaussian 16 at Thu Dec 10 16:38:26 2020.
 Gaussian 16:  ES64L-G16RevA.03 25-Dec-2016

 ----------------------------------------------------------------------
 # B3LYP/6-311++G(d,p) empiricaldispersion=gd3bj scf=xqc pop=npa geom=c
 heck
 ----------------------------------------------------------------------

 -----------------------------------
 CID_63898137_JID_5413_Energie_anion
 -----------------------------------
 Structure from the checkpoint file:  "JID_5413.chk"
 Charge = -1 Multiplicity = 2

                         Standard orientation:
 ---------------------------------------------------------------------
 Center     Atomic      Atomic             Coordinates (Angstroms)
 Number     Number       Type             X           Y           Z
 ---------------------------------------------------------------------
      1          6           0       -3.016794    1.896022    0.834002
      2          6           0       -3.493488    0.494773    0.494265
      3          8           0       -2.400046   -0.447371    0.384810
      4          6           0       -1.780545   -0.506048   -0.818226
      5          8           0       -2.028053    0.226896   -1.750627
      6          6           0       -0.849647   -1.699380   -0.870551
      7          6           0        0.104500   -1.876514    0.313172
      8          8           0        0.338849   -2.976038    0.767231
      9          6           0        0.767028   -0.635095    0.913595
     10          7           0        0.668101    0.538185    0.061833
     11          6           0        0.597563    1.807235    0.765913
     12          6           0        1.515871    0.555026   -1.117951
     13          6           0        2.939444    1.156265   -0.959249
     14          6           0        3.759083    0.480437    0.046857
     15          7           0        4.393996   -0.059844    0.854718
     16          1           0       -2.466838    1.904272    1.780300
     17          1           0       -3.879877    2.563654    0.936277
     18          1           0       -2.372469    2.281893    0.040685
     19          1           0       -4.123050    0.082852    1.286348
     20          1           0       -4.046528    0.490577   -0.448176
     21          1           0       -1.446479   -2.615289   -0.926602
     22          1           0       -0.273495   -1.621056   -1.797446
     23          1           0        0.210242   -0.428190    1.835346
     24          1           0        1.786504   -0.908564    1.217795
     25          1           0        1.527133    2.079579    1.294667
     26          1           0        0.359012    2.605061    0.053269
     27          1           0       -0.207504    1.765791    1.502774
     28          1           0        1.615217   -0.467613   -1.491395
     29          1           0        1.010136    1.135220   -1.900259
     30          1           0        3.453107    1.101607   -1.926493
     31          1           0        2.876120    2.217596   -0.695225
 ---------------------------------------------------------------------

 SCF Done:  E(UB3LYP) =  -726.113245607     A.U. after   31 cycles

 The electronic state is 2-A.
 Alpha  occ. eigenvalues --  -19.07125 -19.01258 -19.00619 -14.21953 -14.21811
 Alpha  occ. eigenvalues --  -10.20673 -10.15244 -10.13600 -10.11913 -10.11877
 Alpha  occ. eigenvalues --  -10.11868 -10.10135 -10.09345 -10.09209 -10.07089
 Alpha  occ. eigenvalues --   -1.00977  -0.94327  -0.92398  -0.84244  -0.81468
 Alpha  occ. eigenvalues --   -0.70347  -0.69589  -0.66092  -0.62771  -0.60269
 Alpha  occ. eigenvalues --   -0.56133  -0.51443  -0.47274  -0.45006  -0.42744
 Alpha  occ. eigenvalues --   -0.41847  -0.41088  -0.39686  -0.37775  -0.37090
 Alpha  occ. eigenvalues --   -0.36653  -0.35245  -0.34561  -0.34043  -0.32854
 Alpha  occ. eigenvalues --   -0.32162  -0.31159  -0.30473  -0.29579  -0.28468
 Alpha  occ. eigenvalues --   -0.28328  -0.27979  -0.27442  -0.27094  -0.25192
 Alpha  occ. eigenvalues --   -0.25053  -0.23973  -0.23594  -0.21255  -0.19036
 Alpha  occ. eigenvalues --   -0.15497  -0.12450   0.03883
 Alpha virt. eigenvalues --    0.05712   0.06265   0.07533   0.08370   0.08692
 Alpha virt. eigenvalues --    0.09027   0.09527   0.09970   0.10793   0.11278
 Alpha virt. eigenvalues --    0.11566   0.11838   0.12266   0.12479   0.13326

  Beta  occ. eigenvalues --  -19.07125 -19.01238 -19.00479 -14.21951 -14.21797
  Beta  occ. eigenvalues --  -10.20629 -10.15070 -10.13586 -10.11881 -10.11856
  Beta  occ. eigenvalues --  -10.11839 -10.10144 -10.09300 -10.09220 -10.07051
  Beta  occ. eigenvalues --   -1.00946  -0.94046  -0.92368  -0.84225  -0.81436
  Beta  occ. eigenvalues --   -0.70259  -0.69522  -0.65995  -0.62701  -0.60182
  Beta  occ. eigenvalues --   -0.56054  -0.51299  -0.47148  -0.44824  -0.42652
  Beta  occ. eigenvalues --   -0.41796  -0.41043  -0.39613  -0.37659  -0.37002
  Beta  occ. eigenvalues --   -0.36549  -0.35130  -0.34502  -0.33916  -0.32716
  Beta  occ. eigenvalues --   -0.32086  -0.31062  -0.30396  -0.29429  -0.28409
  Beta  occ. eigenvalues --   -0.28265  -0.27933  -0.27349  -0.27050  -0.25103
  Beta  occ. eigenvalues --   -0.24661  -0.23827  -0.23552  -0.21212  -0.19006
  Beta  occ. eigenvalues --   -0.15403  -0.12396
  Beta virt. eigenvalues --    0.06356   0.06868   0.07597   0.08053   0.08787
  Beta virt. eigenvalues --    0.09226   0.09295   0.09931   0.10274   0.11052
  Beta virt. eigenvalues --    0.11480   0.11714   0.12122   0.12469   0.12717

 Mulliken charges and spin densities:
               1          2
     1  C    0.179677  -0.672256
     2  C    0.150476  -0.210101
     3  O    0.058920   0.025181
     4  C   -0.220025  -0.017903
     5  O   -0.210533   0.025318
     6  C   -0.253990  -0.008689
     7  C   -0.085375   0.096795
     8  O   -0.280482   0.054153
     9  C   -0.358532  -0.174202
    10  N    0.018889   0.149755
    11  C    0.953088  -1.293659
    12  C   -0.500154   0.321268
    13  C    0.367439  -0.611137
    14  C    0.666580  -0.688070
    15  N   -0.353645   0.048947
    16  H   -0.067100   0.223569
    17  H   -0.499843   0.644695
    18  H    0.049237   0.153188
    19  H   -0.142340   0.312036
    20  H    0.135992   0.013684
    21  H    0.190008   0.039234
    22  H    0.171767   0.017531
    23  H   -0.008144   0.221096
    24  H    0.194919  -0.009309
    25  H   -0.069774   0.220327
    26  H   -0.417634   0.599831
    27  H    0.298223  -0.178070
    28  H    0.054312   0.038518
    29  H   -0.127835   0.362274
    30  H   -0.618717   0.839964
    31  H   -0.275405   0.456032
 Sum of Mulliken charges =  -1.00000   1.00000

 Dipole moment (field-independent basis, Debye):
    X=             -3.2611    Y=             -2.5238    Z=             -0.9473  Tot=              4.2311
 Quadrupole moment (field-independent basis, Debye-Ang):
   XX=           -160.3072   YY=           -139.7868   ZZ=           -125.2342
   XY=              6.2712   XZ=              0.8327   YZ=              9.6160

 Summary of Natural Population Analysis:

                                       Natural Population
                Natural  -----------------------------------------------
    Atom  No    Charge         Core      Valence    Rydberg      Total
 -----------------------------------------------------------------------
      C    1   -0.29924      0.99966     2.29459    0.00500     3.29924
      C    2   -0.01602      0.99957     2.00401    0.01244     3.01602
      O    3   -0.28836      0.99986     3.27951    0.00900     4.28836
      C    4    0.41965      0.99969     1.55516    0.02550     2.58035
      O    5   -0.30931      0.99987     3.30353    0.00592     4.30931
      C    6   -0.28203      0.99953     2.27393    0.00858     3.28203
      C    7    0.31791      0.99968     1.66167    0.02074     2.68209
      O    8   -0.27500      0.99987     3.26825    0.00688     4.27500
      C    9   -0.13559      0.99955     2.12459    0.01145     3.13559
      N   10   -0.28803      0.99973     2.77348    0.01483     3.78803
      C   11   -0.17587      0.99963     2.16734    0.00891     3.17587
      C   12   -0.07300      0.99960     2.06050    0.01291     3.07300
      C   13   -0.25930      0.99954     2.25022    0.00954     3.25930
      C   14    0.16291      0.99966     1.82111    0.01633     2.83709
      N   15   -0.18770      0.99979     2.67685    0.01106     3.68770
      H   16    0.09991      0.00000     0.39875    0.00134     0.40009
      H   17    0.10209      0.00000     0.39666    0.00125     0.39791
      H   18    0.10881      0.00000     0.38987    0.00132     0.39119
      H   19    0.08907      0.00000     0.40984    0.00110     0.41093
      H   20    0.09270      0.00000     0.40611    0.00118     0.40730
      H   21    0.12012      0.00000     0.37862    0.00125     0.37988
      H   22    0.11882      0.00000     0.38014    0.00104     0.38118
      H   23    0.11642      0.00000     0.38218    0.00140     0.38358
      H   24    0.10790      0.00000     0.39042    0.00168     0.39210
      H   25    0.08405      0.00000     0.41439    0.00156     0.41595
      H   26    0.09898      0.00000     0.39948    0.00154     0.40102
      H   27    0.09982      0.00000     0.39885    0.00133     0.40018
      H   28    0.09667      0.00000     0.40176    0.00157     0.40333
      H   29    0.10481      0.00000     0.39389    0.00130     0.39519
      H   30    0.12448      0.00000     0.37299    0.00254     0.37552
      H   31    0.12436      0.00000     0.37286    0.00278     0.37564
 =======================================================================
   * Total *   -0.00000     14.99522    41.80152    0.20326    57.00000

 Normal termination of Gaussian 16 at Thu Dec 10 16:52:38 2020.
