 Gaussian 16, Revision A.03,

 -----------------------------------------------------------
 # opt freq B3LYP/6-31G(d) empiricaldispersion=gd3bj scf=xqc
 -----------------------------------------------------------

 ------------------------------
 CID_64064690_JID_5470_neutraal
 ------------------------------
 Symbolic Z-matrix:
 Charge =  0 Multiplicity = 1

 SCF Done:  E(RB3LYP) =  -741.874132436     A.U. after   15 cycles
 SCF Done:  E(RB3LYP) =  -741.880469696     A.U. after   13 cycles
 SCF Done:  E(RB3LYP) =  -741.879467130     A.U. after   13 cycles
 SCF Done:  E(RB3LYP) =  -741.880977180     A.U. after   12 cycles
 SCF Done:  E(RB3LYP) =  -741.882037990     A.U. after   12 cycles
 SCF Done:  E(RB3LYP) =  -741.882431400     A.U. after   12 cycles
 SCF Done:  E(RB3LYP) =  -741.882847804     A.U. after   13 cycles
 SCF Done:  E(RB3LYP) =  -741.883160036     A.U. after   15 cycles
 SCF Done:  E(RB3LYP) =  -741.884069200     A.U. after   12 cycles
 SCF Done:  E(RB3LYP) =  -741.884657172     A.U. after   13 cycles
 SCF Done:  E(RB3LYP) =  -741.884943365     A.U. after    6 cycles
 SCF Done:  E(RB3LYP) =  -741.884943383     A.U. after    6 cycles
 SCF Done:  E(RB3LYP) =  -741.884943267     A.U. after    7 cycles
 SCF Done:  E(RB3LYP) =  -741.884943113     A.U. after    7 cycles
 SCF Done:  E(RB3LYP) =  -741.884943063     A.U. after    6 cycles
 Optimization completed.
    -- Stationary point found.
 Normal termination of Gaussian 16 at Thu Dec 10 16:44:23 2020.

 --------------------------------------------------------------------
 #N Geom=AllCheck Guess=TCheck SCRF=Check GenChk RB3LYP/6-31G(d) Freq
 --------------------------------------------------------------------

 Structure from the checkpoint file:  "JID_5470.chk"
 ------------------------------
 CID_64064690_JID_5470_neutraal
 ------------------------------
 Charge =  0 Multiplicity = 1

 SCF Done:  E(RB3LYP) =  -741.884943063     A.U. after    1 cycles

  Exact polarizability: 132.120   2.131 113.560  -5.726  -2.064 101.728
 Approx polarizability: 176.398   0.370 195.606 -13.240  -9.001 153.468

                      1                      2                      3
                      A                      A                      A
 Frequencies --     15.4298                43.6690                47.6928
 Red. masses --      4.3587                 8.2417                 4.1153
 Frc consts  --      0.0006                 0.0093                 0.0055
 IR Inten    --      0.5841                 0.4529                 0.1945

                      4                      5                      6
                      A                      A                      A
 Frequencies --     64.0284               124.2653               134.3524
 Red. masses --      6.0871                 1.9390                 1.3983
 Frc consts  --      0.0147                 0.0176                 0.0149
 IR Inten    --      1.3654                 0.9283                 0.2955

                      7                      8                      9
                      A                      A                      A
 Frequencies --    187.6882               217.3784               222.9603
 Red. masses --      2.6786                 1.6784                 2.2762
 Frc consts  --      0.0556                 0.0467                 0.0667
 IR Inten    --      1.8390                 0.5941                 0.0686

                     10                     11                     12
                      A                      A                      A
 Frequencies --    238.1000               248.2699               275.3304
 Red. masses --      3.2522                 1.6468                 2.2909
 Frc consts  --      0.1086                 0.0598                 0.1023
 IR Inten    --      1.0019                 1.0560                 0.9127

                     13                     14                     15
                      A                      A                      A
 Frequencies --    279.8450               309.8296               328.1421
 Red. masses --      1.7969                 3.0821                 1.4007
 Frc consts  --      0.0829                 0.1743                 0.0889
 IR Inten    --      0.8458                 0.0706                 0.5723

                     16                     17                     18
                      A                      A                      A
 Frequencies --    346.9286               354.6802               382.9440
 Red. masses --      2.1162                 2.5479                 2.4740
 Frc consts  --      0.1501                 0.1888                 0.2138
 IR Inten    --      1.4442                 1.2222                 3.4365

                     19                     20                     21
                      A                      A                      A
 Frequencies --    390.7164               440.6363               475.5063
 Red. masses --      3.3925                 3.8533                 3.9329
 Frc consts  --      0.3051                 0.4408                 0.5239
 IR Inten    --      1.3470                 3.7337                 2.5291

                     22                     23                     24
                      A                      A                      A
 Frequencies --    552.6338               603.8440               620.5476
 Red. masses --      3.2879                 3.0976                 1.3052
 Frc consts  --      0.5916                 0.6655                 0.2961
 IR Inten    --      9.6129                31.8125                69.0038

                     25                     26                     27
                      A                      A                      A
 Frequencies --    634.5155               653.3306               687.9959
 Red. masses --     12.0613                 4.6239                 4.2774
 Frc consts  --      2.8611                 1.1628                 1.1929
 IR Inten    --      1.5080                14.0510                 5.4646

                     28                     29                     30
                      A                      A                      A
 Frequencies --    721.8826               782.4501               802.0836
 Red. masses --      3.8596                 4.7452                 5.2534
 Frc consts  --      1.1850                 1.7117                 1.9913
 IR Inten    --     21.1205                33.8586                15.8868

                     31                     32                     33
                      A                      A                      A
 Frequencies --    846.0024               904.7710               931.4771
 Red. masses --      2.3665                 9.7513                 6.1366
 Frc consts  --      0.9979                 4.7032                 3.1371
 IR Inten    --     10.2993                 0.8811                 6.7446

                     34                     35                     36
                      A                      A                      A
 Frequencies --    933.3300               949.6273               969.9603
 Red. masses --      2.8129                 1.5932                 2.1907
 Frc consts  --      1.4437                 0.8465                 1.2143
 IR Inten    --     15.2010                 1.1403                16.1395

                     37                     38                     39
                      A                      A                      A
 Frequencies --   1021.9506              1040.3133              1046.5504
 Red. masses --      2.2003                 1.3509                 1.8759
 Frc consts  --      1.3539                 0.8614                 1.2106
 IR Inten    --      2.7221                 6.3818                29.7426

                     40                     41                     42
                      A                      A                      A
 Frequencies --   1077.1535              1081.1321              1132.0724
 Red. masses --      3.7790                 1.5160                 3.3114
 Frc consts  --      2.5833                 1.0440                 2.5004
 IR Inten    --     14.5700                 3.8107               266.2492

                     43                     44                     45
                      A                      A                      A
 Frequencies --   1157.3481              1166.5171              1188.0861
 Red. masses --      1.8163                 2.1352                 2.2558
 Frc consts  --      1.4334                 1.7119                 1.8761
 IR Inten    --     22.9990                69.4969                12.4732

                     46                     47                     48
                      A                      A                      A
 Frequencies --   1226.7132              1236.1096              1249.7437
 Red. masses --      3.0421                 2.0011                 2.5710
 Frc consts  --      2.6971                 1.8015                 2.3659
 IR Inten    --     14.9181                39.2219                 6.7458

                     49                     50                     51
                      A                      A                      A
 Frequencies --   1305.0662              1346.8593              1365.6869
 Red. masses --      2.5436                 1.5821                 2.2484
 Frc consts  --      2.5525                 1.6909                 2.4707
 IR Inten    --     27.8138                 7.7046                16.9828

                     52                     53                     54
                      A                      A                      A
 Frequencies --   1400.2482              1422.2073              1441.6230
 Red. masses --      1.9255                 1.2139                 1.3174
 Frc consts  --      2.2244                 1.4467                 1.6131
 IR Inten    --     14.5693                 6.7271                 1.6065

                     55                     56                     57
                      A                      A                      A
 Frequencies --   1447.1748              1462.7742              1488.4907
 Red. masses --      1.2749                 1.8706                 1.2169
 Frc consts  --      1.5731                 2.3582                 1.5885
 IR Inten    --      8.9886                13.5897                 1.6766

                     58                     59                     60
                      A                      A                      A
 Frequencies --   1506.5282              1512.8210              1513.6703
 Red. masses --      1.2339                 1.1969                 1.1428
 Frc consts  --      1.6500                 1.6139                 1.5427
 IR Inten    --     10.5484                 3.4010                 4.7977

                     61                     62                     63
                      A                      A                      A
 Frequencies --   1515.4885              1522.1628              1530.6966
 Red. masses --      1.0700                 1.0535                 1.8377
 Frc consts  --      1.4480                 1.4382                 2.5369
 IR Inten    --      1.8923                 2.7384                 3.9088

                     64                     65                     66
                      A                      A                      A
 Frequencies --   1533.4105              1536.7276              1542.4619
 Red. masses --      1.0850                 1.0877                 1.2531
 Frc consts  --      1.5031                 1.5134                 1.7566
 IR Inten    --     13.1940                14.8673                 3.5240

                     67                     68                     69
                      A                      A                      A
 Frequencies --   1549.2809              1641.0200              1851.9110
 Red. masses --      1.0795                 7.2707                10.0922
 Frc consts  --      1.5267                11.5360                20.3928
 IR Inten    --      9.0819                 4.0402               233.9680

                     70                     71                     72
                      A                      A                      A
 Frequencies --   2964.8176              2972.8868              3055.7896
 Red. masses --      1.0661                 1.0675                 1.0385
 Frc consts  --      5.5212                 5.5587                 5.7136
 IR Inten    --     39.8014                80.7882                10.9863

                     73                     74                     75
                      A                      A                      A
 Frequencies --   3065.1133              3075.0032              3075.8559
 Red. masses --      1.0382                 1.0396                 1.0838
 Frc consts  --      5.7468                 5.7919                 6.0414
 IR Inten    --     18.6556                18.1829                 9.3519

                     76                     77                     78
                      A                      A                      A
 Frequencies --   3100.9985              3109.5020              3130.5488
 Red. masses --      1.0795                 1.1011                 1.1000
 Frc consts  --      6.1161                 6.2725                 6.3515
 IR Inten    --     31.7600                12.5116                24.2820

                     79                     80                     81
                      A                      A                      A
 Frequencies --   3145.6726              3157.5098              3159.2116
 Red. masses --      1.0994                 1.1004                 1.1012
 Frc consts  --      6.4098                 6.4638                 6.4756
 IR Inten    --     20.5440                 6.5678                15.3276

                     82                     83                     84
                      A                      A                      A
 Frequencies --   3169.6214              3178.0006              3688.7009
 Red. masses --      1.1043                 1.0960                 1.0641
 Frc consts  --      6.5367                 6.5217                 8.5310
 IR Inten    --      9.9622                10.0791                58.1162

 - Thermochemistry -
 -------------------
 Temperature   298.150 Kelvin.  Pressure   1.00000 Atm.
 Atom     1 has atomic number  6 and mass  12.00000

 Molecular mass:   213.11134 amu.
 Principal axes and moments of inertia in atomic units:
                           1         2         3
     Eigenvalues --  1644.565075109.478445311.05798
           X            0.99993   0.01130  -0.00462
           Y           -0.01123   0.99981   0.01584
           Z            0.00480  -0.01579   0.99986
 This molecule is an asymmetric top.
 Rotational symmetry number  1.
 Warning -- assumption of classical behavior for rotation
           may cause significant error
 Rotational temperatures (Kelvin)      0.05267     0.01695     0.01631
 Rotational constants (GHZ):           1.09740     0.35321     0.33981
 Zero-point vibrational energy     650960.4 (Joules/Mol)
                                  155.58327 (Kcal/Mol)
 Warning -- explicit consideration of  24 degrees of freedom as
           vibrations may cause significant error
 Vibrational temperatures:     22.20    62.83    68.62    92.12   178.79
          (Kelvin)            193.30   270.04   312.76   320.79   342.57
                              357.21   396.14   402.63   445.78   472.12
                              499.15   510.31   550.97   562.15   633.98
                              684.15   795.12   868.80   892.83   912.93
                              940.00   989.87  1038.63  1125.77  1154.02
                             1217.21  1301.76  1340.19  1342.85  1366.30
                             1395.56  1470.36  1496.78  1505.75  1549.78
                             1555.51  1628.80  1665.17  1678.36  1709.39
                             1764.97  1778.49  1798.10  1877.70  1937.83
                             1964.92  2014.64  2046.24  2074.17  2082.16
                             2104.61  2141.61  2167.56  2176.61  2177.83
                             2180.45  2190.05  2202.33  2206.24  2211.01
                             2219.26  2229.07  2361.06  2664.49  4265.71
                             4277.32  4396.60  4410.01  4424.24  4425.47
                             4461.65  4473.88  4504.16  4525.92  4542.95
                             4545.40  4560.38  4572.43  5307.22

 Zero-point correction=                           0.247938 (Hartree/Particle)
 Thermal correction to Energy=                    0.263578
 Thermal correction to Enthalpy=                  0.264522
 Thermal correction to Gibbs Free Energy=         0.203800
 Sum of electronic and zero-point Energies=           -741.637005
 Sum of electronic and thermal Energies=              -741.621365
 Sum of electronic and thermal Enthalpies=            -741.620421
 Sum of electronic and thermal Free Energies=         -741.681143

                     E (Thermal)             CV                S
                      KCal/Mol        Cal/Mol-Kelvin    Cal/Mol-Kelvin
 Total                  165.398             57.892            127.801
 Electronic               0.000              0.000              0.000
 Translational            0.889              2.981             41.973
 Rotational               0.889              2.981             32.168
 Vibrational            163.620             51.931             53.660
 Vibration     1          0.593              1.986              7.149
 Vibration     2          0.595              1.980              5.085
 Vibration     3          0.595              1.978              4.911
 Vibration     4          0.597              1.971              4.329
 Vibration     5          0.610              1.929              3.033
 Vibration     6          0.613              1.919              2.883
 Vibration     7          0.632              1.857              2.251
 Vibration     8          0.646              1.815              1.981
 Vibration     9          0.649              1.806              1.935
 Vibration    10          0.656              1.782              1.817
 Vibration    11          0.662              1.766              1.743
 Vibration    12          0.677              1.719              1.563
 Vibration    13          0.680              1.711              1.535
 Vibration    14          0.699              1.655              1.363
 Vibration    15          0.711              1.619              1.269
 Vibration    16          0.725              1.582              1.180
 Vibration    17          0.731              1.566              1.145
 Vibration    18          0.752              1.507              1.028
 Vibration    19          0.758              1.490              0.997
 Vibration    20          0.801              1.382              0.825
 Vibration    21          0.832              1.304              0.722
 Vibration    22          0.908              1.134              0.539
 Vibration    23          0.962              1.024              0.443
 Vibration    24          0.981              0.989              0.416

 Optimization completed.
    -- Stationary point found.
 Normal termination of Gaussian 16 at Thu Dec 10 16:55:31 2020.

 ----------------------------------------------------------------------
 # B3LYP/6-311++G(d,p) empiricaldispersion=gd3bj scf=xqc pop=npa geom=c
 heck
 ----------------------------------------------------------------------

 --------------------------------------
 CID_64064690_JID_5470_Energie_neutraal
 --------------------------------------
 Structure from the checkpoint file:  "JID_5470.chk"
 Charge =  0 Multiplicity = 1

 SCF Done:  E(RB3LYP) =  -742.099378740     A.U. after   15 cycles
 Normal termination of Gaussian 16 at Thu Dec 10 17:03:26 2020.

 ----------------------------------------------------------------------
 # B3LYP/6-311++G(d,p) empiricaldispersion=gd3bj scf=xqc pop=npa geom=c
 heck
 ----------------------------------------------------------------------

 ------------------------------------
 CID_64064690_JID_5470_Energie_kation
 ------------------------------------
 Structure from the checkpoint file:  "JID_5470.chk"
 Charge =  1 Multiplicity = 2

 SCF Done:  E(UB3LYP) =  -741.793863611     A.U. after   23 cycles
 Normal termination of Gaussian 16 at Thu Dec 10 17:25:22 2020.
 Gaussian 16:  ES64L-G16RevA.03 25-Dec-2016

 ----------------------------------------------------------------------
 # B3LYP/6-311++G(d,p) empiricaldispersion=gd3bj scf=xqc pop=npa geom=c
 heck
 ----------------------------------------------------------------------

 -----------------------------------
 CID_64064690_JID_5470_Energie_anion
 -----------------------------------
 Structure from the checkpoint file:  "JID_5470.chk"
 Charge = -1 Multiplicity = 2

                         Standard orientation:
 ---------------------------------------------------------------------
 Center     Atomic      Atomic             Coordinates (Angstroms)
 Number     Number       Type             X           Y           Z
 ---------------------------------------------------------------------
      1          6           0        3.315520    1.721462   -0.521181
      2          6           0        2.879511    0.323546   -0.226650
      3          7           0        3.588509   -0.720998   -0.569710
      4          8           0        2.869992   -1.812964   -0.145715
      5          7           0        1.698567   -1.435134    0.469590
      6          6           0        1.685508   -0.128875    0.427151
      7          6           0        0.592978    0.719749    1.021342
      8          7           0       -0.737160    0.128183    0.969571
      9          6           0       -1.481058    0.371428    2.203947
     10          6           0       -1.494254    0.388850   -0.267077
     11          6           0       -2.051336    1.829768   -0.350215
     12          6           0       -0.628099    0.103146   -1.513600
     13          6           0       -2.651666   -0.624731   -0.342545
     14          8           0       -2.814077   -1.601077    0.349396
     15          8           0       -3.507699   -0.311457   -1.352782
     16          1           0        4.258950    1.711692   -1.071262
     17          1           0        2.565493    2.246713   -1.124202
     18          1           0        3.455992    2.295011    0.401861
     19          1           0        0.841684    0.876655    2.076862
     20          1           0        0.645980    1.722762    0.562976
     21          1           0       -1.635948    1.440848    2.432335
     22          1           0       -2.450972   -0.122204    2.151280
     23          1           0       -0.932369   -0.078925    3.036644
     24          1           0       -1.229972    2.549887   -0.266053
     25          1           0       -2.556694    1.998961   -1.302888
     26          1           0       -2.765532    2.034352    0.452533
     27          1           0       -0.204232   -0.902203   -1.468186
     28          1           0       -1.242509    0.195107   -2.411704
     29          1           0        0.189652    0.825732   -1.594356
     30          1           0       -4.177283   -1.020808   -1.356226
 ---------------------------------------------------------------------

 SCF Done:  E(UB3LYP) =  -742.095005365     A.U. after   33 cycles
 SCF Done:  E(UB3LYP) =  -742.095005365     a.u. after    1 cycles

 The electronic state is 2-A.
 Alpha  occ. eigenvalues --  -19.10148 -19.07357 -19.01970 -14.24440 -14.24137
 Alpha  occ. eigenvalues --  -14.20989 -10.20810 -10.13147 -10.11134 -10.10245
 Alpha  occ. eigenvalues --  -10.09676 -10.08990 -10.08024 -10.06733 -10.06516
 Alpha  occ. eigenvalues --   -1.05340  -1.01541  -0.92574  -0.83725  -0.78405
 Alpha  occ. eigenvalues --   -0.75853  -0.69908  -0.63256  -0.62584  -0.59635
 Alpha  occ. eigenvalues --   -0.56581  -0.55552  -0.49931  -0.49126  -0.45245
 Alpha  occ. eigenvalues --   -0.40802  -0.39567  -0.39310  -0.37993  -0.37639
 Alpha  occ. eigenvalues --   -0.36083  -0.34932  -0.34027  -0.33344  -0.32221
 Alpha  occ. eigenvalues --   -0.31989  -0.31122  -0.30393  -0.29500  -0.29050
 Alpha  occ. eigenvalues --   -0.28809  -0.27705  -0.26832  -0.26659  -0.25059
 Alpha  occ. eigenvalues --   -0.22927  -0.21558  -0.18919  -0.18750  -0.18332
 Alpha  occ. eigenvalues --   -0.17630  -0.11959   0.04141
 Alpha virt. eigenvalues --    0.05894   0.06284   0.07654   0.08303   0.08968
 Alpha virt. eigenvalues --    0.09764   0.09889   0.10566   0.11427   0.11699
 Alpha virt. eigenvalues --    0.12259   0.12829   0.13631   0.13978   0.14519

  Beta  occ. eigenvalues --  -19.09951 -19.07317 -19.01957 -14.24203 -14.23874
  Beta  occ. eigenvalues --  -14.20980 -10.20808 -10.13140 -10.11119 -10.10235
  Beta  occ. eigenvalues --  -10.09664 -10.08983 -10.07991 -10.06725 -10.06479
  Beta  occ. eigenvalues --   -1.04980  -1.01490  -0.92529  -0.83690  -0.77994
  Beta  occ. eigenvalues --   -0.75642  -0.69872  -0.63178  -0.62461  -0.59580
  Beta  occ. eigenvalues --   -0.56541  -0.55469  -0.49758  -0.48942  -0.45128
  Beta  occ. eigenvalues --   -0.40752  -0.39510  -0.39224  -0.37955  -0.37093
  Beta  occ. eigenvalues --   -0.35932  -0.34824  -0.33969  -0.33275  -0.31989
  Beta  occ. eigenvalues --   -0.31909  -0.31055  -0.30331  -0.29447  -0.29002
  Beta  occ. eigenvalues --   -0.28748  -0.27677  -0.26778  -0.26552  -0.25029
  Beta  occ. eigenvalues --   -0.22889  -0.21238  -0.18583  -0.18247  -0.17468
  Beta  occ. eigenvalues --   -0.16969  -0.11915
  Beta virt. eigenvalues --    0.06532   0.07260   0.07867   0.08274   0.08793
  Beta virt. eigenvalues --    0.09125   0.09951   0.10100   0.11239   0.11506
  Beta virt. eigenvalues --    0.11794   0.12380   0.13147   0.13755   0.14159

 Mulliken charges and spin densities:
               1          2
     1  C    0.811190  -1.414749
     2  C   -1.196261   1.066716
     3  N   -0.265512   0.108250
     4  O    0.352882   0.033705
     5  N   -0.469706   0.143706
     6  C    0.978315  -0.305334
     7  C   -0.617540  -0.165355
     8  N    0.526744   0.027361
     9  C    0.034352  -0.374473
    10  C   -1.376004   0.651014
    11  C    0.898924  -1.474593
    12  C   -0.284249  -0.082996
    13  C    0.329968  -0.142434
    14  O   -0.269104   0.008769
    15  O   -0.181497   0.055392
    16  H   -0.024611   0.186115
    17  H   -0.396424   0.539185
    18  H   -0.071140   0.233882
    19  H    0.170751   0.006332
    20  H    0.303018  -0.131317
    21  H   -0.056342   0.175856
    22  H    0.088950   0.063404
    23  H    0.140921   0.003726
    24  H   -0.485101   0.628959
    25  H   -0.085091   0.259165
    26  H   -0.125606   0.299888
    27  H    0.124886   0.065071
    28  H    0.129826   0.071698
    29  H    0.252452  -0.067901
    30  H   -0.238989   0.530958
 Sum of Mulliken charges =  -1.00000   1.00000

 Dipole moment (field-independent basis, Debye):
    X=              0.0993    Y=              0.4496    Z=              2.1512  Tot=              2.1999
 Quadrupole moment (field-independent basis, Debye-Ang):
   XX=           -156.7353   YY=           -136.0077   ZZ=           -111.9363
   XY=              2.8978   XZ=             -0.1458   YZ=              4.7581

 Summary of Natural Population Analysis:

                                       Natural Population
                Natural  -----------------------------------------------
    Atom  No    Charge         Core      Valence    Rydberg      Total
 -----------------------------------------------------------------------
      C    1   -0.30100      0.99963     2.29572    0.00565     3.30100
      C    2    0.05265      0.99956     1.93228    0.01551     2.94735
      N    3   -0.03840      0.99966     2.52562    0.01312     3.53840
      O    4   -0.08181      0.99990     3.07255    0.00936     4.08181
      N    5   -0.01990      0.99965     2.50824    0.01201     3.51990
      C    6    0.04835      0.99953     1.93524    0.01687     2.95165
      C    7   -0.09877      0.99957     2.08745    0.01176     3.09877
      N    8   -0.27581      0.99969     2.76334    0.01279     3.77581
      C    9   -0.17812      0.99964     2.17059    0.00789     3.17812
      C   10    0.02990      0.99952     1.95545    0.01513     2.97010
      C   11   -0.29636      0.99962     2.28948    0.00726     3.29636
      C   12   -0.28986      0.99962     2.28339    0.00685     3.28986
      C   13    0.41309      0.99963     1.55961    0.02767     2.58691
      O   14   -0.29975      0.99986     3.29344    0.00644     4.29975
      O   15   -0.34987      0.99988     3.34288    0.00711     4.34987
      H   16    0.10973      0.00000     0.38920    0.00107     0.39027
      H   17    0.10923      0.00000     0.38871    0.00205     0.39077
      H   18    0.10482      0.00000     0.39415    0.00102     0.39518
      H   19    0.10602      0.00000     0.39281    0.00118     0.39398
      H   20    0.09439      0.00000     0.40377    0.00185     0.40561
      H   21    0.07960      0.00000     0.41936    0.00104     0.42040
      H   22    0.10414      0.00000     0.39485    0.00101     0.39586
      H   23    0.09532      0.00000     0.40395    0.00073     0.40468
      H   24    0.10310      0.00000     0.39528    0.00163     0.39690
      H   25    0.10979      0.00000     0.38873    0.00148     0.39021
      H   26    0.10216      0.00000     0.39658    0.00126     0.39784
      H   27    0.11441      0.00000     0.38422    0.00136     0.38559
      H   28    0.10775      0.00000     0.39118    0.00107     0.39225
      H   29    0.10317      0.00000     0.39537    0.00146     0.39683
      H   30    0.24204      0.00000     0.24945    0.00851     0.25796
 =======================================================================
   * Total *   -0.00000     14.99496    41.80289    0.20215    57.00000

 Normal termination of Gaussian 16 at Thu Dec 10 17:44:35 2020.
