 Gaussian 16, Revision A.03,

 -----------------------------------------------------------
 # opt freq B3LYP/6-31G(d) empiricaldispersion=gd3bj scf=xqc
 -----------------------------------------------------------

 ------------------------------
 CID_78199377_JID_4345_neutraal
 ------------------------------
 Symbolic Z-matrix:
 Charge =  0 Multiplicity = 1

 SCF Done:  E(RB3LYP) =  -682.797813935     A.U. after   15 cycles
 SCF Done:  E(RB3LYP) =  -682.806632306     A.U. after   12 cycles
 SCF Done:  E(RB3LYP) =  -682.808011108     A.U. after   12 cycles
 SCF Done:  E(RB3LYP) =  -682.808241470     A.U. after   11 cycles
 SCF Done:  E(RB3LYP) =  -682.808374221     A.U. after   11 cycles
 SCF Done:  E(RB3LYP) =  -682.808439239     A.U. after   10 cycles
 SCF Done:  E(RB3LYP) =  -682.808488379     A.U. after   10 cycles
 SCF Done:  E(RB3LYP) =  -682.808518136     A.U. after   10 cycles
 SCF Done:  E(RB3LYP) =  -682.808548548     A.U. after   11 cycles
 SCF Done:  E(RB3LYP) =  -682.808575693     A.U. after   10 cycles
 SCF Done:  E(RB3LYP) =  -682.808629730     A.U. after   10 cycles
 SCF Done:  E(RB3LYP) =  -682.808633431     A.U. after   10 cycles
 SCF Done:  E(RB3LYP) =  -682.808635094     A.U. after    9 cycles
 SCF Done:  E(RB3LYP) =  -682.808636135     A.U. after    9 cycles
 SCF Done:  E(RB3LYP) =  -682.808636192     A.U. after    7 cycles
 Optimization completed.
    -- Stationary point found.
 Normal termination of Gaussian 16 at Thu Dec 10 09:28:10 2020.

 --------------------------------------------------------------------
 #N Geom=AllCheck Guess=TCheck SCRF=Check GenChk RB3LYP/6-31G(d) Freq
 --------------------------------------------------------------------

 Structure from the checkpoint file:  "JID_4345.chk"
 ------------------------------
 CID_78199377_JID_4345_neutraal
 ------------------------------
 Charge =  0 Multiplicity = 1

 SCF Done:  E(RB3LYP) =  -682.808636192     A.U. after    1 cycles

  Exact polarizability: 130.380   1.813 126.394  -0.849   0.596  76.724
 Approx polarizability: 166.360   2.566 189.121  -3.222   5.580 123.079

                      1                      2                      3
                      A                      A                      A
 Frequencies --     37.0149                50.3808               106.2672
 Red. masses --      2.0061                 4.5850                 5.0236
 Frc consts  --      0.0016                 0.0069                 0.0334
 IR Inten    --      0.0734                 0.4435                 0.3092

                      4                      5                      6
                      A                      A                      A
 Frequencies --    128.7625               142.6508               202.8726
 Red. masses --      8.4351                 2.9055                 2.6745
 Frc consts  --      0.0824                 0.0348                 0.0649
 IR Inten    --      2.7202                 0.8445                 2.0302

                      7                      8                      9
                      A                      A                      A
 Frequencies --    218.8106               268.1055               307.7221
 Red. masses --      1.9706                 2.2497                 2.5535
 Frc consts  --      0.0556                 0.0953                 0.1425
 IR Inten    --      0.5073                 0.2272                 5.5821

                     10                     11                     12
                      A                      A                      A
 Frequencies --    321.7730               378.7401               382.6166
 Red. masses --      4.2443                 5.4937                 2.4038
 Frc consts  --      0.2589                 0.4643                 0.2073
 IR Inten    --      9.6265                 6.9444                 0.2031

                     13                     14                     15
                      A                      A                      A
 Frequencies --    407.6383               433.1024               437.5974
 Red. masses --      4.1294                 2.4428                 5.1138
 Frc consts  --      0.4043                 0.2700                 0.5770
 IR Inten    --      1.0969                33.2421                19.3858

                     16                     17                     18
                      A                      A                      A
 Frequencies --    495.5511               515.1079               551.4451
 Red. masses --      2.3675                 2.2910                 4.6260
 Frc consts  --      0.3425                 0.3582                 0.8288
 IR Inten    --     14.0178                24.4805                 1.8133

                     19                     20                     21
                      A                      A                      A
 Frequencies --    563.0346               632.7603               683.6746
 Red. masses --      2.4996                 1.9962                 1.9155
 Frc consts  --      0.4669                 0.4709                 0.5275
 IR Inten    --     17.7314                 7.4701                68.2817

                     22                     23                     24
                      A                      A                      A
 Frequencies --    706.8352               742.1204               757.6424
 Red. masses --      2.6168                 3.9652                 8.4673
 Frc consts  --      0.7703                 1.2867                 2.8637
 IR Inten    --     60.6409                17.7490                65.6465

                     25                     26                     27
                      A                      A                      A
 Frequencies --    801.0674               828.7102               845.6848
 Red. masses --      1.3637                 1.4520                 2.2969
 Frc consts  --      0.5156                 0.5875                 0.9678
 IR Inten    --     14.0027                55.7818                 7.7701

                     28                     29                     30
                      A                      A                      A
 Frequencies --    908.6629               936.5221               985.3880
 Red. masses --      2.8806                 2.3336                 2.8718
 Frc consts  --      1.4013                 1.2059                 1.6430
 IR Inten    --      2.2621                 0.7769                 1.5790

                     31                     32                     33
                      A                      A                      A
 Frequencies --   1012.3234              1027.3658              1060.8681
 Red. masses --      3.2845                 2.5167                 2.7408
 Frc consts  --      1.9832                 1.5651                 1.8174
 IR Inten    --     17.1252                12.9098                14.9845

                     34                     35                     36
                      A                      A                      A
 Frequencies --   1098.1147              1115.6235              1119.0566
 Red. masses --      2.4924                 1.9130                 1.8013
 Frc consts  --      1.7708                 1.4028                 1.3290
 IR Inten    --     11.4671                 5.4274                 5.9534

                     37                     38                     39
                      A                      A                      A
 Frequencies --   1139.7027              1157.3712              1182.3368
 Red. masses --      3.1262                 2.3288                 2.0480
 Frc consts  --      2.3925                 1.8379                 1.6868
 IR Inten    --     33.3887                19.2376                16.5623

                     40                     41                     42
                      A                      A                      A
 Frequencies --   1199.8550              1238.7637              1257.8582
 Red. masses --      2.3414                 2.7812                 1.7498
 Frc consts  --      1.9860                 2.5145                 1.6312
 IR Inten    --     29.4640                10.9992                46.1829

                     43                     44                     45
                      A                      A                      A
 Frequencies --   1283.0028              1298.1270              1320.4660
 Red. masses --      1.3910                 1.6937                 1.3138
 Frc consts  --      1.3491                 1.6816                 1.3497
 IR Inten    --     12.8254               104.4809                79.5378

                     46                     47                     48
                      A                      A                      A
 Frequencies --   1342.0357              1357.3600              1373.8895
 Red. masses --      1.1737                 1.4715                 1.2898
 Frc consts  --      1.2455                 1.5973                 1.4344
 IR Inten    --     11.4962                98.0566                27.6807

                     49                     50                     51
                      A                      A                      A
 Frequencies --   1404.0303              1413.4614              1414.7757
 Red. masses --      1.4511                 1.5752                 1.4471
 Frc consts  --      1.6854                 1.8542                 1.7066
 IR Inten    --     33.8684                 2.3637                15.0545

                     52                     53                     54
                      A                      A                      A
 Frequencies --   1431.4368              1441.3834              1445.2583
 Red. masses --      1.2954                 1.7917                 3.0739
 Frc consts  --      1.5638                 2.1932                 3.7830
 IR Inten    --      9.5838                98.0063               144.0588

                     55                     56                     57
                      A                      A                      A
 Frequencies --   1451.6551              1473.0497              1495.3815
 Red. masses --      1.4251                 1.7362                 1.5390
 Frc consts  --      1.7694                 2.2196                 2.0277
 IR Inten    --      7.1322                69.6060                19.8644

                     58                     59                     60
                      A                      A                      A
 Frequencies --   1520.6424              1522.7771              1527.0687
 Red. masses --      1.0631                 1.1067                 1.0887
 Frc consts  --      1.4484                 1.5120                 1.4958
 IR Inten    --      5.5871                13.2291                 3.5834

                     61                     62                     63
                      A                      A                      A
 Frequencies --   1531.0205              1546.9666              1822.6192
 Red. masses --      1.0748                 1.0838                 9.5896
 Frc consts  --      1.4844                 1.5281                18.7691
 IR Inten    --      4.6814                 3.6720               400.8609

                     64                     65                     66
                      A                      A                      A
 Frequencies --   1840.7918              2901.8537              2915.2876
 Red. masses --      8.6681                 1.0762                 1.0828
 Frc consts  --     17.3055                 5.3393                 5.4219
 IR Inten    --    544.1381                10.6004                65.6155

                     67                     68                     69
                      A                      A                      A
 Frequencies --   2946.4959              2952.5971              2964.6642
 Red. masses --      1.0744                 1.0733                 1.0721
 Frc consts  --      5.4956                 5.5130                 5.5517
 IR Inten    --     51.1353                26.5267               127.7044

                     70                     71                     72
                      A                      A                      A
 Frequencies --   3063.5878              3091.2673              3101.9921
 Red. masses --      1.0357                 1.0863                 1.0907
 Frc consts  --      5.7270                 6.1160                 6.1833
 IR Inten    --     17.8263                29.1714                35.6190

                     73                     74                     75
                      A                      A                      A
 Frequencies --   3122.4387              3132.9148              3141.9344
 Red. masses --      1.0911                 1.1005                 1.1013
 Frc consts  --      6.2674                 6.3638                 6.4056
 IR Inten    --     24.1062                31.2225                37.4462

                     76                     77                     78
                      A                      A                      A
 Frequencies --   3532.2768              3607.0881              3643.4316
 Red. masses --      1.0747                 1.0773                 1.0761
 Frc consts  --      7.9003                 8.2588                 8.4164
 IR Inten    --      7.9335                63.8792                33.4514

 - Thermochemistry -
 -------------------
 Temperature   298.150 Kelvin.  Pressure   1.00000 Atm.
 Atom     1 has atomic number  6 and mass  12.00000

 Molecular mass:   198.11168 amu.
 Principal axes and moments of inertia in atomic units:
                           1         2         3
     Eigenvalues --  1828.496583106.495094780.57164
           X            0.99969  -0.02485   0.00086
           Y            0.02486   0.99965  -0.00862
           Z           -0.00064   0.00864   0.99996
 This molecule is an asymmetric top.
 Rotational symmetry number  1.
 Warning -- assumption of classical behavior for rotation
           may cause significant error
 Rotational temperatures (Kelvin)      0.04737     0.02788     0.01812
 Rotational constants (GHZ):           0.98701     0.58096     0.37752
 Zero-point vibrational energy     626619.1 (Joules/Mol)
                                  149.76556 (Kcal/Mol)
 Warning -- explicit consideration of  19 degrees of freedom as
           vibrations may cause significant error
 Vibrational temperatures:     53.26    72.49   152.89   185.26   205.24
          (Kelvin)            291.89   314.82   385.74   442.74   462.96
                              544.92   550.50   586.50   623.14   629.61
                              712.99   741.13   793.41   810.08   910.40
                              983.66  1016.98  1067.75  1090.08  1152.56
                             1192.33  1216.75  1307.36  1347.45  1417.75
                             1456.51  1478.15  1526.35  1579.94  1605.13
                             1610.07  1639.78  1665.20  1701.12  1726.32
                             1782.30  1809.78  1845.95  1867.72  1899.86
                             1930.89  1952.94  1976.72  2020.09  2033.66
                             2035.55  2059.52  2073.83  2079.40  2088.61
                             2119.39  2151.52  2187.87  2190.94  2197.11
                             2202.80  2225.74  2622.34  2648.49  4175.12
                             4194.45  4239.35  4248.13  4265.49  4407.82
                             4447.64  4463.07  4492.49  4507.57  4520.54
                             5082.16  5189.80  5242.09

 Zero-point correction=                           0.238667 (Hartree/Particle)
 Thermal correction to Energy=                    0.251260
 Thermal correction to Enthalpy=                  0.252204
 Thermal correction to Gibbs Free Energy=         0.199189
 Sum of electronic and zero-point Energies=           -682.569970
 Sum of electronic and thermal Energies=              -682.557376
 Sum of electronic and thermal Enthalpies=            -682.556432
 Sum of electronic and thermal Free Energies=         -682.609448

                     E (Thermal)             CV                S
                      KCal/Mol        Cal/Mol-Kelvin    Cal/Mol-Kelvin
 Total                  157.668             48.758            111.580
 Electronic               0.000              0.000              0.000
 Translational            0.889              2.981             41.756
 Rotational               0.889              2.981             31.674
 Vibrational            155.890             42.797             38.150
 Vibration     1          0.594              1.982              5.413
 Vibration     2          0.595              1.977              4.802
 Vibration     3          0.605              1.944              3.336
 Vibration     4          0.611              1.924              2.964
 Vibration     5          0.616              1.911              2.768
 Vibration     6          0.639              1.836              2.107
 Vibration     7          0.647              1.812              1.969
 Vibration     8          0.673              1.732              1.608
 Vibration     9          0.698              1.659              1.375
 Vibration    10          0.707              1.632              1.301
 Vibration    11          0.749              1.515              1.044
 Vibration    12          0.752              1.507              1.029
 Vibration    13          0.772              1.454              0.935
 Vibration    14          0.794              1.398              0.849
 Vibration    15          0.798              1.388              0.834
 Vibration    16          0.851              1.260              0.669
 Vibration    17          0.870              1.217              0.621
 Vibration    18          0.907              1.137              0.541
 Vibration    19          0.919              1.111              0.518

 Optimization completed.
    -- Stationary point found.
 Normal termination of Gaussian 16 at Thu Dec 10 09:37:05 2020.

 ----------------------------------------------------------------------
 # B3LYP/6-311++G(d,p) empiricaldispersion=gd3bj scf=xqc pop=npa geom=c
 heck
 ----------------------------------------------------------------------

 --------------------------------------
 CID_78199377_JID_4345_Energie_neutraal
 --------------------------------------
 Structure from the checkpoint file:  "JID_4345.chk"
 Charge =  0 Multiplicity = 1

 SCF Done:  E(RB3LYP) =  -683.014038972     A.U. after   14 cycles
 Normal termination of Gaussian 16 at Thu Dec 10 09:40:51 2020.

 ----------------------------------------------------------------------
 # B3LYP/6-311++G(d,p) empiricaldispersion=gd3bj scf=xqc pop=npa geom=c
 heck
 ----------------------------------------------------------------------

 ------------------------------------
 CID_78199377_JID_4345_Energie_kation
 ------------------------------------
 Structure from the checkpoint file:  "JID_4345.chk"
 Charge =  1 Multiplicity = 2

 SCF Done:  E(UB3LYP) =  -682.692356782     A.U. after   29 cycles
 Normal termination of Gaussian 16 at Thu Dec 10 09:51:57 2020.
 Gaussian 16:  ES64L-G16RevA.03 25-Dec-2016

 ----------------------------------------------------------------------
 # B3LYP/6-311++G(d,p) empiricaldispersion=gd3bj scf=xqc pop=npa geom=c
 heck
 ----------------------------------------------------------------------

 -----------------------------------
 CID_78199377_JID_4345_Energie_anion
 -----------------------------------
 Structure from the checkpoint file:  "JID_4345.chk"
 Charge = -1 Multiplicity = 2

                         Standard orientation:
 ---------------------------------------------------------------------
 Center     Atomic      Atomic             Coordinates (Angstroms)
 Number     Number       Type             X           Y           Z
 ---------------------------------------------------------------------
      1          6           0        3.753710   -1.372160   -0.218439
      2          6           0        2.385120   -1.234601    0.446653
      3          7           0        1.569036   -0.160853   -0.140352
      4          6           0        2.141399    1.153909    0.203958
      5          6           0        1.314953    2.311336   -0.348672
      6          7           0       -0.043482    2.186319    0.162260
      7          6           0       -0.605393    0.944906   -0.309189
      8          6           0        0.173265   -0.229753    0.288450
      9          7           0       -0.476646   -1.442391   -0.203008
     10          6           0       -1.828590   -1.627937   -0.080950
     11          8           0       -2.389562   -2.706307   -0.161930
     12          7           0       -2.557255   -0.440800    0.131535
     13          6           0       -2.081976    0.853169    0.034287
     14          8           0       -2.797408    1.829039    0.163773
     15          1           0        3.638323   -1.458343   -1.303482
     16          1           0        4.257439   -2.271264    0.151503
     17          1           0        4.408672   -0.521679   -0.008248
     18          1           0        1.860113   -2.186008    0.319464
     19          1           0        2.502218   -1.089073    1.537599
     20          1           0        3.150316    1.203332   -0.211536
     21          1           0        2.219396    1.270810    1.300806
     22          1           0        1.747612    3.255280   -0.002560
     23          1           0        1.361639    2.294241   -1.453213
     24          1           0       -0.649177    2.959597   -0.100105
     25          1           0       -0.532311    0.819861   -1.409913
     26          1           0        0.095557   -0.172247    1.393440
     27          1           0        0.036155   -2.311732   -0.223483
     28          1           0       -3.556701   -0.563763    0.245346
 ---------------------------------------------------------------------

 SCF Done:  E(UB3LYP) =  -683.002269618     A.U. after   33 cycles
 SCF Done:  E(UB3LYP) =  -683.002269618     a.u. after    1 cycles

 The electronic state is 2-A.
 Alpha  occ. eigenvalues --  -19.01205 -19.00425 -14.26959 -14.25076 -14.22313
 Alpha  occ. eigenvalues --  -14.21366 -10.21727 -10.18739 -10.15662 -10.12340
 Alpha  occ. eigenvalues --  -10.10284 -10.10218 -10.09744 -10.05677  -0.97993
 Alpha  occ. eigenvalues --   -0.95800  -0.88343  -0.84898  -0.82389  -0.80418
 Alpha  occ. eigenvalues --   -0.68375  -0.66148  -0.60666  -0.57622  -0.56275
 Alpha  occ. eigenvalues --   -0.52290  -0.49525  -0.48479  -0.46171  -0.42782
 Alpha  occ. eigenvalues --   -0.41056  -0.39331  -0.37304  -0.37129  -0.36503
 Alpha  occ. eigenvalues --   -0.35407  -0.35058  -0.34909  -0.33898  -0.31942
 Alpha  occ. eigenvalues --   -0.30118  -0.28758  -0.28235  -0.26901  -0.26469
 Alpha  occ. eigenvalues --   -0.25000  -0.24281  -0.20499  -0.19817  -0.18246
 Alpha  occ. eigenvalues --   -0.17533  -0.14840  -0.14095   0.04620
 Alpha virt. eigenvalues --    0.06220   0.06873   0.07903   0.08194   0.09118
 Alpha virt. eigenvalues --    0.09797   0.10105   0.10988   0.11280   0.12226
 Alpha virt. eigenvalues --    0.12383   0.13101   0.13454   0.13977   0.14885

  Beta  occ. eigenvalues --  -19.01080 -19.00363 -14.26989 -14.25066 -14.22305
  Beta  occ. eigenvalues --  -14.21359 -10.21652 -10.18559 -10.15655 -10.12354
  Beta  occ. eigenvalues --  -10.10268 -10.10197 -10.09713 -10.05620  -0.97847
  Beta  occ. eigenvalues --   -0.95585  -0.88294  -0.84850  -0.82349  -0.80395
  Beta  occ. eigenvalues --   -0.68303  -0.66097  -0.60569  -0.57556  -0.56088
  Beta  occ. eigenvalues --   -0.52212  -0.49452  -0.48408  -0.46105  -0.42688
  Beta  occ. eigenvalues --   -0.41005  -0.39201  -0.37259  -0.37052  -0.36362
  Beta  occ. eigenvalues --   -0.35280  -0.34847  -0.34785  -0.33769  -0.31842
  Beta  occ. eigenvalues --   -0.29816  -0.28657  -0.28170  -0.26741  -0.26354
  Beta  occ. eigenvalues --   -0.24942  -0.24233  -0.20376  -0.19599  -0.18116
  Beta  occ. eigenvalues --   -0.17442  -0.14801  -0.14044
  Beta virt. eigenvalues --    0.07145   0.07568   0.07833   0.08312   0.08553
  Beta virt. eigenvalues --    0.09716   0.10427   0.10513   0.11270   0.11501
  Beta virt. eigenvalues --    0.12733   0.12946   0.13554   0.13842   0.14308

 Mulliken charges and spin densities:
               1          2
     1  C    2.292356  -2.846055
     2  C   -1.181083   1.087207
     3  N    0.092057   0.120736
     4  C   -0.035502  -0.168075
     5  C    1.134936  -1.448023
     6  N   -0.163019   0.100051
     7  C   -0.687332   0.264401
     8  C   -0.117594  -0.209568
     9  N   -0.283037   0.008552
    10  C    0.227319  -0.003835
    11  O   -0.375115   0.023766
    12  N   -0.369649  -0.009048
    13  C    0.237867  -0.022562
    14  O   -0.376235   0.042647
    15  H   -0.053015   0.203225
    16  H   -0.731208   0.879575
    17  H   -0.744949   0.899153
    18  H   -0.420328   0.503690
    19  H    0.014977   0.101826
    20  H   -0.261188   0.433059
    21  H    0.011457   0.141919
    22  H   -0.621270   0.815581
    23  H    0.158985  -0.051324
    24  H    0.218048   0.027232
    25  H    0.208214   0.023503
    26  H    0.140252   0.079144
    27  H    0.330793   0.007155
    28  H    0.353267  -0.003932
 Sum of Mulliken charges =  -1.00000   1.00000

 Dipole moment (field-independent basis, Debye):
    X=             -8.1866    Y=              1.0496    Z=             -0.9816  Tot=              8.3118
 Quadrupole moment (field-independent basis, Debye-Ang):
   XX=           -173.6406   YY=           -140.7615   ZZ=           -105.5046
   XY=              2.5485   XZ=             -2.0439   YZ=             -4.3393

 Summary of Natural Population Analysis:

                                       Natural Population
                Natural  -----------------------------------------------
    Atom  No    Charge         Core      Valence    Rydberg      Total
 -----------------------------------------------------------------------
      C    1   -0.28897      0.99966     2.28371    0.00560     3.28897
      C    2   -0.08321      0.99962     2.07205    0.01153     3.08321
      N    3   -0.27915      0.99969     2.76823    0.01123     3.77915
      C    4   -0.09233      0.99960     2.07943    0.01330     3.09233
      C    5   -0.09119      0.99962     2.07948    0.01209     3.09119
      N    6   -0.33626      0.99971     2.82591    0.01063     3.83626
      C    7   -0.05622      0.99952     2.04491    0.01179     3.05622
      C    8    0.09546      0.99955     1.89094    0.01405     2.90454
      N    9   -0.32933      0.99965     2.82079    0.00889     3.82933
      C   10    0.41736      0.99972     1.55981    0.02311     2.58264
      O   11   -0.32143      0.99987     3.31612    0.00543     4.32143
      N   12   -0.33423      0.99964     2.82799    0.00660     3.83423
      C   13    0.37252      0.99966     1.60473    0.02310     2.62748
      O   14   -0.29854      0.99988     3.29286    0.00580     4.29854
      H   15    0.10047      0.00000     0.39784    0.00169     0.39953
      H   16    0.10484      0.00000     0.39246    0.00269     0.39516
      H   17    0.10170      0.00000     0.39555    0.00276     0.39830
      H   18    0.08658      0.00000     0.41138    0.00204     0.41342
      H   19    0.08417      0.00000     0.41422    0.00162     0.41583
      H   20    0.10678      0.00000     0.39097    0.00224     0.39322
      H   21    0.08577      0.00000     0.41243    0.00180     0.41423
      H   22    0.10170      0.00000     0.39701    0.00130     0.39830
      H   23    0.08089      0.00000     0.41762    0.00148     0.41911
      H   24    0.18576      0.00000     0.31147    0.00278     0.31424
      H   25    0.10089      0.00000     0.39719    0.00192     0.39911
      H   26    0.08053      0.00000     0.41725    0.00222     0.41947
      H   27    0.20208      0.00000     0.29524    0.00269     0.29792
      H   28    0.20337      0.00000     0.29444    0.00219     0.29663
 =======================================================================
   * Total *   -0.00000     13.99539    38.81202    0.19259    53.00000

 Normal termination of Gaussian 16 at Thu Dec 10 10:04:42 2020.
