 Gaussian 16, Revision A.03,

 -----------------------------------------------------------
 # opt freq B3LYP/6-31G(d) empiricaldispersion=gd3bj scf=xqc
 -----------------------------------------------------------

 ------------------------------
 CID_79757810_JID_7561_neutraal
 ------------------------------
 Symbolic Z-matrix:
 Charge =  0 Multiplicity = 1

 SCF Done:  E(RB3LYP) =  -786.081861290     A.U. after   15 cycles
 SCF Done:  E(RB3LYP) =  -786.088236214     A.U. after   13 cycles
 SCF Done:  E(RB3LYP) =  -786.089082312     A.U. after   12 cycles
 SCF Done:  E(RB3LYP) =  -786.089804649     A.U. after   12 cycles
 SCF Done:  E(RB3LYP) =  -786.090102942     A.U. after   12 cycles
 SCF Done:  E(RB3LYP) =  -786.090841820     A.U. after   12 cycles
 SCF Done:  E(RB3LYP) =  -786.091344120     A.U. after   12 cycles
 SCF Done:  E(RB3LYP) =  -786.091611593     A.U. after   12 cycles
 SCF Done:  E(RB3LYP) =  -786.091726699     A.U. after   11 cycles
 SCF Done:  E(RB3LYP) =  -786.091791013     A.U. after   11 cycles
 SCF Done:  E(RB3LYP) =  -786.091881552     A.U. after    7 cycles
 SCF Done:  E(RB3LYP) =  -786.091881572     A.U. after    8 cycles
 SCF Done:  E(RB3LYP) =  -786.091881531     A.U. after    7 cycles
 SCF Done:  E(RB3LYP) =  -786.091881510     A.U. after    7 cycles
 SCF Done:  E(RB3LYP) =  -786.091881500     A.U. after    7 cycles
 Optimization completed.
    -- Stationary point found.
 Normal termination of Gaussian 16 at Sun Dec 13 16:20:49 2020.

 --------------------------------------------------------------------
 #N Geom=AllCheck Guess=TCheck SCRF=Check GenChk RB3LYP/6-31G(d) Freq
 --------------------------------------------------------------------

 Structure from the checkpoint file:  "JID_7561.chk"
 ------------------------------
 CID_79757810_JID_7561_neutraal
 ------------------------------
 Charge =  0 Multiplicity = 1

 SCF Done:  E(RB3LYP) =  -786.091881500     A.U. after    1 cycles

  Exact polarizability: 152.069  -6.076 157.737 -22.027   3.927 120.634
 Approx polarizability: 214.587 -12.497 241.618 -49.540   9.524 193.202

                      1                      2                      3
                      A                      A                      A
 Frequencies --     16.9428                26.9543                39.1655
 Red. masses --      5.1640                 6.1448                 5.0928
 Frc consts  --      0.0009                 0.0026                 0.0046
 IR Inten    --      0.5007                 2.1055                 2.2502

                      4                      5                      6
                      A                      A                      A
 Frequencies --     62.4563                70.0192                87.1647
 Red. masses --      3.9737                 3.6947                 3.2266
 Frc consts  --      0.0091                 0.0107                 0.0144
 IR Inten    --      2.7314                 0.6084                 5.0483

                      7                      8                      9
                      A                      A                      A
 Frequencies --    121.2957               136.0301               186.7971
 Red. masses --      2.5895                 3.0450                 2.4910
 Frc consts  --      0.0224                 0.0332                 0.0512
 IR Inten    --      0.1074                 4.8243                13.7318

                     10                     11                     12
                      A                      A                      A
 Frequencies --    214.1791               230.4432               236.6557
 Red. masses --      4.8146                 1.8201                 1.0995
 Frc consts  --      0.1301                 0.0569                 0.0363
 IR Inten    --      4.5196                64.7233                 0.0396

                     13                     14                     15
                      A                      A                      A
 Frequencies --    258.0605               297.2019               316.1399
 Red. masses --      1.5737                 2.7419                 4.4427
 Frc consts  --      0.0617                 0.1427                 0.2616
 IR Inten    --     56.4908                 3.1820                 0.7368

                     16                     17                     18
                      A                      A                      A
 Frequencies --    337.7137               388.1808               449.5032
 Red. masses --      6.3095                 4.2915                 5.4094
 Frc consts  --      0.4240                 0.3810                 0.6440
 IR Inten    --      1.9327                 3.7443                 3.1085

                     19                     20                     21
                      A                      A                      A
 Frequencies --    455.8552               476.3157               516.1246
 Red. masses --      3.4605                 3.3171                 2.9852
 Frc consts  --      0.4237                 0.4434                 0.4685
 IR Inten    --      4.0461                 2.6034                 2.5012

                     22                     23                     24
                      A                      A                      A
 Frequencies --    526.1638               535.5165               590.2304
 Red. masses --      2.5971                 1.7180                 3.9112
 Frc consts  --      0.4236                 0.2903                 0.8028
 IR Inten    --     25.7140                40.0964                30.9486

                     25                     26                     27
                      A                      A                      A
 Frequencies --    599.5491               664.8624               676.4318
 Red. masses --      4.6455                 3.2467                 5.7695
 Frc consts  --      0.9839                 0.8456                 1.5554
 IR Inten    --      9.7890                 2.3318                10.5751

                     28                     29                     30
                      A                      A                      A
 Frequencies --    723.2823               734.1032               772.1897
 Red. masses --      5.9125                 3.7386                 1.3103
 Frc consts  --      1.8224                 1.1871                 0.4603
 IR Inten    --     17.8018                19.1792                27.5477

                     31                     32                     33
                      A                      A                      A
 Frequencies --    802.9441               839.8925               864.2957
 Red. masses --      3.9572                 2.4240                 2.3378
 Frc consts  --      1.5032                 1.0075                 1.0289
 IR Inten    --      3.6335                 1.7014                10.6245

                     34                     35                     36
                      A                      A                      A
 Frequencies --    885.0212               895.2030               909.8036
 Red. masses --      1.9381                 1.3682                 2.7951
 Frc consts  --      0.8944                 0.6460                 1.3632
 IR Inten    --     12.8876                 3.3456                 5.5774

                     37                     38                     39
                      A                      A                      A
 Frequencies --    959.4300               966.5213               989.0626
 Red. masses --      2.4750                 1.4232                 2.1581
 Frc consts  --      1.3423                 0.7833                 1.2439
 IR Inten    --     11.8704                 4.4536                 4.6445

                     40                     41                     42
                      A                      A                      A
 Frequencies --    995.9219              1011.7198              1049.2414
 Red. masses --      1.2654                 1.5352                 1.8161
 Frc consts  --      0.7395                 0.9258                 1.1780
 IR Inten    --      0.0508                12.6434                 1.4798

                     43                     44                     45
                      A                      A                      A
 Frequencies --   1051.5023              1073.6890              1085.4958
 Red. masses --      2.5651                 2.0743                 5.3659
 Frc consts  --      1.6710                 1.4089                 3.7252
 IR Inten    --     19.9434                 5.6070                65.9983

                     46                     47                     48
                      A                      A                      A
 Frequencies --   1092.1928              1126.3836              1139.3819
 Red. masses --      2.9970                 3.5648                 2.1667
 Frc consts  --      2.1064                 2.6648                 1.6573
 IR Inten    --     16.0507                69.5552                 9.4684

                     49                     50                     51
                      A                      A                      A
 Frequencies --   1156.5558              1171.3403              1192.9043
 Red. masses --      2.1551                 2.3342                 1.1456
 Frc consts  --      1.6985                 1.8869                 0.9605
 IR Inten    --      9.2864                31.3262                 6.5538

                     52                     53                     54
                      A                      A                      A
 Frequencies --   1210.8557              1224.4631              1226.4324
 Red. masses --      1.7561                 1.2369                 1.3598
 Frc consts  --      1.5170                 1.0926                 1.2051
 IR Inten    --     54.2953                 6.0284                29.8143

                     55                     56                     57
                      A                      A                      A
 Frequencies --   1246.8707              1270.6568              1275.9889
 Red. masses --      1.4134                 1.0760                 2.3747
 Frc consts  --      1.2946                 1.0236                 2.2780
 IR Inten    --     14.0924                 1.4417                16.7057

                     58                     59                     60
                      A                      A                      A
 Frequencies --   1313.4097              1317.4003              1324.9062
 Red. masses --      1.3784                 1.5449                 1.3197
 Frc consts  --      1.4010                 1.5797                 1.3649
 IR Inten    --      3.6408                 2.6794                25.2302

                     61                     62                     63
                      A                      A                      A
 Frequencies --   1355.6679              1369.9890              1380.2847
 Red. masses --      4.5446                 2.5337                 1.3546
 Frc consts  --      4.9210                 2.8018                 1.5206
 IR Inten    --     23.0374               190.6418                52.7620

                     64                     65                     66
                      A                      A                      A
 Frequencies --   1391.0893              1410.9558              1418.3545
 Red. masses --      1.2830                 1.3015                 1.3561
 Frc consts  --      1.4628                 1.5265                 1.6074
 IR Inten    --      3.9633                 5.6709                12.6543

                     67                     68                     69
                      A                      A                      A
 Frequencies --   1439.7541              1458.8436              1472.6438
 Red. masses --      1.3584                 1.7487                 1.5331
 Frc consts  --      1.6590                 2.1927                 1.9589
 IR Inten    --     17.1593                26.3209                28.1777

                     70                     71                     72
                      A                      A                      A
 Frequencies --   1502.1646              1511.1894              1525.1006
 Red. masses --      2.3551                 1.0499                 1.0781
 Frc consts  --      3.1311                 1.4126                 1.4775
 IR Inten    --     18.7068                 2.4298                 2.2341

                     73                     74                     75
                      A                      A                      A
 Frequencies --   1526.3579              1530.2876              1544.7578
 Red. masses --      1.0791                 1.2285                 2.1337
 Frc consts  --      1.4812                 1.6951                 3.0000
 IR Inten    --      3.2051                 8.2785                33.8040

                     76                     77                     78
                      A                      A                      A
 Frequencies --   1560.3073              1639.6960              1664.3034
 Red. masses --      1.0958                 6.1550                 6.0967
 Frc consts  --      1.5718                 9.7501                 9.9497
 IR Inten    --      0.8252                 5.7777                 3.0982

                     79                     80                     81
                      A                      A                      A
 Frequencies --   1771.8562              2978.7989              3019.4439
 Red. masses --      7.7679                 1.0708                 1.0680
 Frc consts  --     14.3685                 5.5979                 5.7368
 IR Inten    --    359.6874                49.3400                93.5841

                     82                     83                     84
                      A                      A                      A
 Frequencies --   3031.4171              3048.8775              3054.1032
 Red. masses --      1.0883                 1.0815                 1.0376
 Frc consts  --      5.8926                 5.9233                 5.7020
 IR Inten    --     43.6830                16.1756                14.8964

                     85                     86                     87
                      A                      A                      A
 Frequencies --   3077.8066              3080.9588              3099.4185
 Red. masses --      1.0974                 1.0851                 1.0650
 Frc consts  --      6.1250                 6.0684                 6.0278
 IR Inten    --     35.3632                20.7568                23.5297

                     88                     89                     90
                      A                      A                      A
 Frequencies --   3122.4595              3136.1909              3162.5802
 Red. masses --      1.1009                 1.1034                 1.1004
 Frc consts  --      6.3242                 6.3941                 6.4846
 IR Inten    --     35.5490                21.2155                19.2327

                     91                     92                     93
                      A                      A                      A
 Frequencies --   3191.7546              3204.3204              3216.1077
 Red. masses --      1.0862                 1.0910                 1.0962
 Frc consts  --      6.5193                 6.6002                 6.6806
 IR Inten    --      1.8387                18.9650                13.5812

                     94                     95                     96
                      A                      A                      A
 Frequencies --   3240.7426              3550.9171              3773.4439
 Red. masses --      1.0920                 1.0743                 1.0666
 Frc consts  --      6.7572                 7.9808                 8.9479
 IR Inten    --      2.9201                21.5642                27.6819

 - Thermochemistry -
 -------------------
 Temperature   298.150 Kelvin.  Pressure   1.00000 Atm.
 Atom     1 has atomic number  6 and mass  12.00000

 Molecular mass:   235.12084 amu.
 Principal axes and moments of inertia in atomic units:
                           1         2         3
     Eigenvalues --  3037.830594831.755835304.09144
           X            0.99993   0.00790   0.00839
           Y           -0.00746   0.99863  -0.05176
           Z           -0.00878   0.05169   0.99862
 This molecule is an asymmetric top.
 Rotational symmetry number  1.
 Warning -- assumption of classical behavior for rotation
           may cause significant error
 Rotational temperatures (Kelvin)      0.02851     0.01793     0.01633
 Rotational constants (GHZ):           0.59409     0.37352     0.34025
 Zero-point vibrational energy     752917.4 (Joules/Mol)
                                  179.95158 (Kcal/Mol)
 Warning -- explicit consideration of  25 degrees of freedom as
           vibrations may cause significant error
 Vibrational temperatures:     24.38    38.78    56.35    89.86   100.74
          (Kelvin)            125.41   174.52   195.72   268.76   308.16
                              331.56   340.49   371.29   427.61   454.85
                              485.89   558.51   646.73   655.87   685.31
                              742.59   757.03   770.49   849.21   862.62
                              956.59   973.23  1040.64  1056.21  1111.01
                             1155.26  1208.42  1243.53  1273.35  1288.00
                             1309.00  1380.41  1390.61  1423.04  1432.91
                             1455.64  1509.62  1512.88  1544.80  1561.79
                             1571.42  1620.61  1639.32  1664.03  1685.30
                             1716.32  1742.15  1761.73  1764.56  1793.97
                             1828.19  1835.86  1889.70  1895.45  1906.24
                             1950.50  1971.11  1985.92  2001.47  2030.05
                             2040.70  2071.48  2098.95  2118.81  2161.28
                             2174.26  2194.28  2196.09  2201.74  2222.56
                             2244.93  2359.16  2394.56  2549.31  4285.83
                             4344.31  4361.53  4386.65  4394.17  4428.28
                             4432.81  4459.37  4492.52  4512.28  4550.25
                             4592.22  4610.30  4627.26  4662.71  5108.98
                             5429.14

 Zero-point correction=                           0.286771 (Hartree/Particle)
 Thermal correction to Energy=                    0.303386
 Thermal correction to Enthalpy=                  0.304331
 Thermal correction to Gibbs Free Energy=         0.240098
 Sum of electronic and zero-point Energies=           -785.805110
 Sum of electronic and thermal Energies=              -785.788495
 Sum of electronic and thermal Enthalpies=            -785.787551
 Sum of electronic and thermal Free Energies=         -785.851783

                     E (Thermal)             CV                S
                      KCal/Mol        Cal/Mol-Kelvin    Cal/Mol-Kelvin
 Total                  190.378             61.772            135.189
 Electronic               0.000              0.000              0.000
 Translational            0.889              2.981             42.266
 Rotational               0.889              2.981             32.721
 Vibrational            188.600             55.810             60.202
 Vibration     1          0.593              1.986              6.964
 Vibration     2          0.593              1.984              6.042
 Vibration     3          0.594              1.981              5.301
 Vibration     4          0.597              1.972              4.378
 Vibration     5          0.598              1.968              4.153
 Vibration     6          0.601              1.958              3.723
 Vibration     7          0.609              1.931              3.080
 Vibration     8          0.614              1.917              2.859
 Vibration     9          0.632              1.858              2.259
 Vibration    10          0.644              1.819              2.008
 Vibration    11          0.652              1.794              1.875
 Vibration    12          0.656              1.785              1.828
 Vibration    13          0.667              1.749              1.675
 Vibration    14          0.691              1.679              1.433
 Vibration    15          0.703              1.643              1.330
 Vibration    16          0.718              1.600              1.223
 Vibration    17          0.756              1.495              1.007
 Vibration    18          0.808              1.362              0.797
 Vibration    19          0.814              1.348              0.778
 Vibration    20          0.833              1.303              0.720
 Vibration    21          0.871              1.214              0.619
 Vibration    22          0.881              1.192              0.596
 Vibration    23          0.891              1.171              0.575
 Vibration    24          0.948              1.053              0.467
 Vibration    25          0.958              1.033              0.450

                           ! Non-Optimized Parameters !
 Normal termination of Gaussian 16 at Sun Dec 13 16:35:01 2020.

 ----------------------------------------------------------------------
 # B3LYP/6-311++G(d,p) empiricaldispersion=gd3bj scf=xqc pop=npa geom=c
 heck
 ----------------------------------------------------------------------

 --------------------------------------
 CID_79757810_JID_7561_Energie_neutraal
 --------------------------------------
 Structure from the checkpoint file:  "JID_7561.chk"
 Charge =  0 Multiplicity = 1

 SCF Done:  E(RB3LYP) =  -786.325452603     A.U. after   15 cycles
 Normal termination of Gaussian 16 at Sun Dec 13 16:41:42 2020.

 ----------------------------------------------------------------------
 # B3LYP/6-311++G(d,p) empiricaldispersion=gd3bj scf=xqc pop=npa geom=c
 heck
 ----------------------------------------------------------------------

 ------------------------------------
 CID_79757810_JID_7561_Energie_kation
 ------------------------------------
 Structure from the checkpoint file:  "JID_7561.chk"
 Charge =  1 Multiplicity = 2

 SCF Done:  E(UB3LYP) =  -786.011165794     A.U. after   30 cycles
 Normal termination of Gaussian 16 at Sun Dec 13 17:01:00 2020.
 Gaussian 16:  ES64L-G16RevA.03 25-Dec-2016

 ----------------------------------------------------------------------
 # B3LYP/6-311++G(d,p) empiricaldispersion=gd3bj scf=xqc pop=npa geom=c
 heck
 ----------------------------------------------------------------------

 -----------------------------------
 CID_79757810_JID_7561_Energie_anion
 -----------------------------------
 Structure from the checkpoint file:  "JID_7561.chk"
 Charge = -1 Multiplicity = 2

                         Standard orientation:
 ---------------------------------------------------------------------
 Center     Atomic      Atomic             Coordinates (Angstroms)
 Number     Number       Type             X           Y           Z
 ---------------------------------------------------------------------
      1          6           0       -1.911498    1.931880   -1.329537
      2          6           0       -1.549562    0.494868   -0.991456
      3          6           0       -2.010115    0.039275    0.408059
      4          6           0       -2.158193   -1.478302    0.204828
      5          6           0       -2.742882   -1.524096   -1.211201
      6          8           0       -2.220381   -0.387369   -1.903724
      7          6           0       -1.218617    0.545337    1.608488
      8          8           0       -1.778286    1.203655    2.477085
      9          7           0        0.135235    0.294719    1.731139
     10          6           0        1.056881   -0.401836    0.887205
     11          6           0        1.157901   -1.792796    0.956165
     12          6           0        2.068086   -2.473993    0.149070
     13          6           0        2.897043   -1.754644   -0.710714
     14          6           0        2.826568   -0.361931   -0.753012
     15          6           0        1.913354    0.328874    0.046177
     16          6           0        1.841407    1.837201    0.028176
     17          8           0        2.750463    2.341686   -0.936647
     18          1           0       -2.994753    2.074465   -1.258047
     19          1           0       -1.596098    2.177798   -2.348142
     20          1           0       -1.426174    2.628669   -0.636171
     21          1           0       -0.468016    0.345243   -1.102650
     22          1           0       -3.008426    0.455904    0.577623
     23          1           0       -2.806760   -1.944768    0.952012
     24          1           0       -1.187218   -1.974294    0.226379
     25          1           0       -3.840705   -1.462968   -1.190231
     26          1           0       -2.462150   -2.433165   -1.755277
     27          1           0        0.510823    0.739943    2.562541
     28          1           0        0.521496   -2.327659    1.653916
     29          1           0        2.134151   -3.556652    0.200734
     30          1           0        3.609194   -2.276342   -1.343537
     31          1           0        3.477008    0.206555   -1.406654
     32          1           0        0.810576    2.151971   -0.190517
     33          1           0        2.076077    2.223443    1.034643
     34          1           0        2.667717    3.306021   -0.941798
 ---------------------------------------------------------------------

 SCF Done:  E(UB3LYP) =  -786.316594553     A.U. after   33 cycles
 SCF Done:  E(UB3LYP) =  -786.316594553     a.u. after    1 cycles

 The electronic state is 2-A.
 Alpha  occ. eigenvalues --  -19.03310 -19.02553 -19.00038 -14.25018 -10.19034
 Alpha  occ. eigenvalues --  -10.13579 -10.13267 -10.12687 -10.12345 -10.10032
 Alpha  occ. eigenvalues --  -10.09428 -10.09128 -10.08577 -10.08491 -10.08427
 Alpha  occ. eigenvalues --  -10.07796 -10.07298  -0.95443  -0.94952  -0.92910
 Alpha  occ. eigenvalues --   -0.84163  -0.76040  -0.71654  -0.68597  -0.67834
 Alpha  occ. eigenvalues --   -0.65487  -0.60075  -0.58774  -0.54620  -0.53178
 Alpha  occ. eigenvalues --   -0.50192  -0.49554  -0.48513  -0.44941  -0.42339
 Alpha  occ. eigenvalues --   -0.41496  -0.40979  -0.39266  -0.37060  -0.36674
 Alpha  occ. eigenvalues --   -0.35784  -0.35692  -0.34785  -0.33965  -0.33371
 Alpha  occ. eigenvalues --   -0.32593  -0.31703  -0.30404  -0.29544  -0.28806
 Alpha  occ. eigenvalues --   -0.28212  -0.27760  -0.26164  -0.25776  -0.25046
 Alpha  occ. eigenvalues --   -0.24511  -0.23122  -0.19189  -0.18013  -0.17306
 Alpha  occ. eigenvalues --   -0.16729  -0.16109  -0.15406   0.04069
 Alpha virt. eigenvalues --    0.05647   0.06452   0.06730   0.07396   0.07822
 Alpha virt. eigenvalues --    0.08427   0.08648   0.08935   0.09275   0.09742
 Alpha virt. eigenvalues --    0.10499   0.11505   0.11594   0.11907   0.12681

  Beta  occ. eigenvalues --  -19.03309 -19.02498 -19.00035 -14.25011 -10.19033
  Beta  occ. eigenvalues --  -10.13574 -10.13259 -10.12652 -10.12310 -10.10029
  Beta  occ. eigenvalues --  -10.09437 -10.09122 -10.08542 -10.08477 -10.08402
  Beta  occ. eigenvalues --  -10.07759 -10.07285  -0.95436  -0.94947  -0.92790
  Beta  occ. eigenvalues --   -0.84122  -0.75989  -0.71644  -0.68580  -0.67773
  Beta  occ. eigenvalues --   -0.65408  -0.60052  -0.58680  -0.54585  -0.53114
  Beta  occ. eigenvalues --   -0.50141  -0.49521  -0.48474  -0.44880  -0.42230
  Beta  occ. eigenvalues --   -0.41475  -0.40936  -0.39213  -0.37032  -0.36623
  Beta  occ. eigenvalues --   -0.35764  -0.35663  -0.34747  -0.33937  -0.33328
  Beta  occ. eigenvalues --   -0.32578  -0.31690  -0.30384  -0.29522  -0.28784
  Beta  occ. eigenvalues --   -0.28144  -0.27690  -0.26127  -0.25760  -0.25010
  Beta  occ. eigenvalues --   -0.24447  -0.23113  -0.19127  -0.17950  -0.17295
  Beta  occ. eigenvalues --   -0.16695  -0.15971  -0.15315
  Beta virt. eigenvalues --    0.06160   0.06819   0.07005   0.07231   0.07557
  Beta virt. eigenvalues --    0.08224   0.08800   0.08948   0.09255   0.09468
  Beta virt. eigenvalues --    0.10070   0.10757   0.11552   0.11681   0.12220

 Mulliken charges and spin densities:
               1          2
     1  C   -0.012524  -0.464648
     2  C   -0.577777   0.086293
     3  C    0.472812  -0.061913
     4  C   -0.390359   0.033329
     5  C    0.173789  -0.448087
     6  O   -0.079436   0.015803
     7  C   -0.582861   0.256526
     8  O   -0.283113   0.004161
     9  N   -0.401617   0.172479
    10  C   -0.897940   0.874009
    11  C    0.784818  -0.754437
    12  C    0.878338  -1.240449
    13  C   -0.451177   0.038706
    14  C    0.356078  -0.658032
    15  C   -2.334892   2.686143
    16  C    3.045844  -3.351650
    17  O   -0.283974   0.044021
    18  H    0.063562   0.075471
    19  H    0.068984   0.093035
    20  H    0.009054   0.168322
    21  H    0.359226  -0.021857
    22  H    0.233894   0.016488
    23  H   -0.053137   0.235919
    24  H    0.333875  -0.253589
    25  H    0.065373   0.072479
    26  H   -0.052519   0.217375
    27  H    0.094600   0.248908
    28  H   -0.395867   0.597647
    29  H   -0.565569   0.739255
    30  H   -0.120698   0.280815
    31  H    0.146633   0.077368
    32  H    0.194098  -0.042283
    33  H   -0.423136   0.620393
    34  H   -0.374383   0.641999
 Sum of Mulliken charges =  -1.00000   1.00000

 Dipole moment (field-independent basis, Debye):
    X=             -4.1286    Y=             -3.1394    Z=             -1.2158  Tot=              5.3272
 Quadrupole moment (field-independent basis, Debye-Ang):
   XX=           -151.6333   YY=           -166.8338   ZZ=           -144.4256
   XY=             -6.7938   XZ=              3.7294   YZ=              1.3425

 Summary of Natural Population Analysis:

                                       Natural Population
                Natural  -----------------------------------------------
    Atom  No    Charge         Core      Valence    Rydberg      Total
 -----------------------------------------------------------------------
      C    1   -0.29164      0.99964     2.28504    0.00696     3.29164
      C    2    0.06639      0.99954     1.92034    0.01373     2.93361
      C    3   -0.15838      0.99953     2.14854    0.01031     3.15838
      C    4   -0.20316      0.99961     2.19529    0.00825     3.20316
      C    5   -0.00542      0.99960     1.99524    0.01058     3.00542
      O    6   -0.30534      0.99989     3.29741    0.00804     4.30534
      C    7    0.34897      0.99962     1.62767    0.02373     2.65103
      O    8   -0.31911      0.99988     3.31379    0.00544     4.31911
      N    9   -0.32466      0.99965     2.81396    0.01105     3.82466
      C   10    0.06409      0.99940     1.92394    0.01256     2.93591
      C   11   -0.09812      0.99951     2.08824    0.01038     3.09812
      C   12   -0.10482      0.99956     2.09485    0.01041     3.10482
      C   13   -0.09042      0.99956     2.08190    0.00896     3.09042
      C   14   -0.09243      0.99951     2.08382    0.00911     3.09243
      C   15   -0.02428      0.99945     2.01268    0.01215     3.02428
      C   16   -0.01427      0.99954     2.00224    0.01249     3.01427
      O   17   -0.36857      0.99989     3.36211    0.00657     4.36857
      H   18    0.09845      0.00000     0.40049    0.00106     0.40155
      H   19    0.10469      0.00000     0.39439    0.00092     0.39531
      H   20    0.10359      0.00000     0.39526    0.00114     0.39641
      H   21    0.09069      0.00000     0.40663    0.00268     0.40931
      H   22    0.11019      0.00000     0.38812    0.00169     0.38981
      H   23    0.10439      0.00000     0.39467    0.00094     0.39561
      H   24    0.10747      0.00000     0.39060    0.00193     0.39253
      H   25    0.07781      0.00000     0.42073    0.00146     0.42219
      H   26    0.08786      0.00000     0.41082    0.00132     0.41214
      H   27    0.20045      0.00000     0.29694    0.00260     0.29955
      H   28    0.10666      0.00000     0.39188    0.00146     0.39334
      H   29    0.10311      0.00000     0.39539    0.00150     0.39689
      H   30    0.09958      0.00000     0.39963    0.00079     0.40042
      H   31    0.11439      0.00000     0.38430    0.00131     0.38561
      H   32    0.08608      0.00000     0.41157    0.00235     0.41392
      H   33    0.08648      0.00000     0.41111    0.00242     0.41352
      H   34    0.23924      0.00000     0.24470    0.01605     0.26076
 =======================================================================
   * Total *   -0.00000     16.99338    45.78430    0.22232    63.00000

 Normal termination of Gaussian 16 at Sun Dec 13 17:21:43 2020.
