 Gaussian 16, Revision A.03,

 -----------------------------------------------------------
 # opt freq B3LYP/6-31G(d) empiricaldispersion=gd3bj scf=xqc
 -----------------------------------------------------------

 -------------------------------
 CID_135423461_JID_2706_neutraal
 -------------------------------
 Symbolic Z-matrix:
 Charge =  0 Multiplicity = 1

 SCF Done:  E(RB3LYP) =  -1257.66277786     A.U. after   18 cycles
 SCF Done:  E(RB3LYP) =  -1257.67727178     A.U. after   15 cycles
 SCF Done:  E(RB3LYP) =  -1257.67763161     A.U. after   15 cycles
 SCF Done:  E(RB3LYP) =  -1257.68581815     A.U. after   14 cycles
 SCF Done:  E(RB3LYP) =  -1257.68897803     A.U. after   15 cycles
 SCF Done:  E(RB3LYP) =  -1257.69483064     A.U. after   15 cycles
 SCF Done:  E(RB3LYP) =  -1257.69620062     A.U. after   14 cycles
 SCF Done:  E(RB3LYP) =  -1257.69677004     A.U. after   14 cycles
 SCF Done:  E(RB3LYP) =  -1257.69714037     A.U. after   13 cycles
 SCF Done:  E(RB3LYP) =  -1257.69756299     A.U. after   13 cycles
 SCF Done:  E(RB3LYP) =  -1257.70058121     A.U. after   11 cycles
 SCF Done:  E(RB3LYP) =  -1257.70058249     A.U. after    9 cycles
 SCF Done:  E(RB3LYP) =  -1257.70058378     A.U. after   10 cycles
 SCF Done:  E(RB3LYP) =  -1257.70058408     A.U. after    9 cycles
 SCF Done:  E(RB3LYP) =  -1257.70058418     A.U. after    8 cycles
 Optimization completed.
    -- Stationary point found.
 Normal termination of Gaussian 16 at Wed Dec  9 18:40:02 2020.

 --------------------------------------------------------------------
 #N Geom=AllCheck Guess=TCheck SCRF=Check GenChk RB3LYP/6-31G(d) Freq
 --------------------------------------------------------------------

 Structure from the checkpoint file:  "JID_2706.chk"
 -------------------------------
 CID_135423461_JID_2706_neutraal
 -------------------------------
 Charge =  0 Multiplicity = 1

 SCF Done:  E(RB3LYP) =  -1257.70058418     A.U. after    1 cycles

  Exact polarizability: 202.454  -6.229 139.138  -5.950  -1.965  71.695
 Approx polarizability: 303.266 -12.780 252.138 -16.178 -16.868 118.523

                      1                      2                      3
                      A                      A                      A
 Frequencies --     30.4919                35.7214                48.6592
 Red. masses --      3.9072                 3.5292                 4.7675
 Frc consts  --      0.0021                 0.0027                 0.0067
 IR Inten    --      0.2395                 6.4986                 1.2005

                      4                      5                      6
                      A                      A                      A
 Frequencies --     63.5235               116.0906               121.2849
 Red. masses --      2.8566                 1.1318                 2.3455
 Frc consts  --      0.0068                 0.0090                 0.0203
 IR Inten    --      0.6047                 0.8629                 0.4474

                      7                      8                      9
                      A                      A                      A
 Frequencies --    127.0785               162.3291               198.8428
 Red. masses --      2.2518                 2.6876                 3.3296
 Frc consts  --      0.0214                 0.0417                 0.0776
 IR Inten    --      0.3060                 1.1799                 4.0200

                     10                     11                     12
                      A                      A                      A
 Frequencies --    224.5018               269.8878               292.8523
 Red. masses --      3.3516                 4.5098                 8.5669
 Frc consts  --      0.0995                 0.1935                 0.4329
 IR Inten    --      5.9535                 1.6875                 2.2547

                     13                     14                     15
                      A                      A                      A
 Frequencies --    330.6550               360.7259               402.1508
 Red. masses --      9.4471                 4.4114                 4.1306
 Frc consts  --      0.6086                 0.3382                 0.3936
 IR Inten    --      3.0232                 3.9375                 0.6554

                     16                     17                     18
                      A                      A                      A
 Frequencies --    431.2072               478.1119               528.0445
 Red. masses --      4.4649                 6.3154                 4.7760
 Frc consts  --      0.4891                 0.8506                 0.7846
 IR Inten    --      1.2799                 2.4895                 9.8215

                     19                     20                     21
                      A                      A                      A
 Frequencies --    553.0373               586.3013               608.8729
 Red. masses --      3.9212                 3.2944                 1.6345
 Frc consts  --      0.7066                 0.6672                 0.3570
 IR Inten    --      6.1157                15.3843                11.3212

                     22                     23                     24
                      A                      A                      A
 Frequencies --    638.0541               685.9407               732.7674
 Red. masses --      3.1992                 4.2804                 4.2974
 Frc consts  --      0.7674                 1.1866                 1.3595
 IR Inten    --      8.1340                 1.9573                 0.1487

                     25                     26                     27
                      A                      A                      A
 Frequencies --    813.7168               851.9355               940.2941
 Red. masses --      6.3603                 1.1560                 1.5514
 Frc consts  --      2.4813                 0.4943                 0.8082
 IR Inten    --     76.9268                80.9074                21.2025

                     28                     29                     30
                      A                      A                      A
 Frequencies --    947.1730               979.9430               985.8098
 Red. masses --      4.4342                 3.0986                 1.0747
 Frc consts  --      2.3438                 1.7531                 0.6153
 IR Inten    --    101.5707                17.6825                43.6858

                     31                     32                     33
                      A                      A                      A
 Frequencies --   1032.6292              1043.8334              1058.2315
 Red. masses --      1.6443                 1.7318                 1.3805
 Frc consts  --      1.0331                 1.1117                 0.9108
 IR Inten    --     11.9398                 2.8756                 1.9526

                     34                     35                     36
                      A                      A                      A
 Frequencies --   1063.9397              1088.0614              1200.1923
 Red. masses --      1.6020                 1.9436                 3.9059
 Frc consts  --      1.0684                 1.3557                 3.3149
 IR Inten    --      2.5306                32.6462               103.3399

                     37                     38                     39
                      A                      A                      A
 Frequencies --   1274.0193              1304.2350              1378.7829
 Red. masses --      7.5840                 1.2424                 2.6212
 Frc consts  --      7.2528                 1.2451                 2.9359
 IR Inten    --    223.5453                18.0845                94.5103

                     40                     41                     42
                      A                      A                      A
 Frequencies --   1414.5741              1431.7939              1439.9370
 Red. masses --      1.2316                 1.2069                 1.2223
 Frc consts  --      1.4520                 1.4577                 1.4931
 IR Inten    --     20.3838                 5.1655                 3.4652

                     43                     44                     45
                      A                      A                      A
 Frequencies --   1456.6211              1500.5074              1502.8968
 Red. masses --      1.8908                 1.0664                 1.0670
 Frc consts  --      2.3637                 1.4147                 1.4200
 IR Inten    --    126.9891                29.1345                13.9699

                     46                     47                     48
                      A                      A                      A
 Frequencies --   1504.2309              1519.0134              1578.6646
 Red. masses --      1.0648                 1.5289                 2.3349
 Frc consts  --      1.4195                 2.0786                 3.4284
 IR Inten    --      5.1150                27.3842               567.8113

                     49                     50                     51
                      A                      A                      A
 Frequencies --   1679.0134              1778.5115              2900.3080
 Red. masses --      3.9290                11.4264                 1.0720
 Frc consts  --      6.5258                21.2948                 5.3127
 IR Inten    --     10.6213               221.6808               435.2338

                     52                     53                     54
                      A                      A                      A
 Frequencies --   3060.8507              3083.2793              3130.4467
 Red. masses --      1.0417                 1.0360                 1.0941
 Frc consts  --      5.7504                 5.8031                 6.3174
 IR Inten    --      3.1502                 1.9363                 5.5788

                     55                     56                     57
                      A                      A                      A
 Frequencies --   3149.7249              3172.7866              3175.5059
 Red. masses --      1.0988                 1.0579                 1.1058
 Frc consts  --      6.4225                 6.2742                 6.5696
 IR Inten    --      4.9965                 2.6922                 9.7649

                     58                     59                     60
                      A                      A                      A
 Frequencies --   3177.9906              3219.6470              3257.8288
 Red. masses --      1.1033                 1.0946                 1.1167
 Frc consts  --      6.5652                 6.6855                 6.9828
 IR Inten    --      9.7506                 2.3771                 4.1111

 - Thermochemistry -
 -------------------
 Temperature   298.150 Kelvin.  Pressure   1.00000 Atm.
 Atom     1 has atomic number  6 and mass  12.00000

 Molecular mass:   202.01222 amu.
 Principal axes and moments of inertia in atomic units:
                           1         2         3
     Eigenvalues --  1708.121723403.752014797.06499
           X            0.99999  -0.00534   0.00089
           Y            0.00531   0.99954   0.02984
           Z           -0.00105  -0.02983   0.99955
 This molecule is an asymmetric top.
 Rotational symmetry number  1.
 Warning -- assumption of classical behavior for rotation
           may cause significant error
 Rotational temperatures (Kelvin)      0.05071     0.02545     0.01806
 Rotational constants (GHZ):           1.05656     0.53022     0.37622
 Zero-point vibrational energy     431397.7 (Joules/Mol)
                                  103.10652 (Kcal/Mol)
 Warning -- explicit consideration of  21 degrees of freedom as
           vibrations may cause significant error
 Vibrational temperatures:     43.87    51.40    70.01    91.40   167.03
          (Kelvin)            174.50   182.84   233.56   286.09   323.01
                              388.31   421.35   475.74   519.00   578.61
                              620.41   687.90   759.74   795.70   843.56
                              876.03   918.02   986.92  1054.29  1170.76
                             1225.75  1352.87  1362.77  1409.92  1418.36
                             1485.72  1501.84  1522.56  1530.77  1565.48
                             1726.81  1833.03  1876.50  1983.76  2035.26
                             2060.03  2071.75  2095.75  2158.90  2162.33
                             2164.25  2185.52  2271.35  2415.73  2558.88
                             4172.90  4403.88  4436.15  4504.01  4531.75
                             4564.93  4568.84  4572.42  4632.35  4687.29

 Zero-point correction=                           0.164311 (Hartree/Particle)
 Thermal correction to Energy=                    0.178401
 Thermal correction to Enthalpy=                  0.179345
 Thermal correction to Gibbs Free Energy=         0.121273
 Sum of electronic and zero-point Energies=          -1257.536273
 Sum of electronic and thermal Energies=             -1257.522183
 Sum of electronic and thermal Enthalpies=           -1257.521239
 Sum of electronic and thermal Free Energies=        -1257.579311

                     E (Thermal)             CV                S
                      KCal/Mol        Cal/Mol-Kelvin    Cal/Mol-Kelvin
 Total                  111.948             48.815            122.224
 Electronic               0.000              0.000              0.000
 Translational            0.889              2.981             41.814
 Rotational               0.889              2.981             31.701
 Vibrational            110.171             42.853             48.709
 Vibration     1          0.594              1.984              5.797
 Vibration     2          0.594              1.982              5.483
 Vibration     3          0.595              1.978              4.871
 Vibration     4          0.597              1.972              4.345
 Vibration     5          0.608              1.936              3.164
 Vibration     6          0.609              1.931              3.080
 Vibration     7          0.611              1.926              2.990
 Vibration     8          0.622              1.889              2.522
 Vibration     9          0.637              1.842              2.144
 Vibration    10          0.649              1.804              1.922
 Vibration    11          0.674              1.729              1.597
 Vibration    12          0.688              1.687              1.457
 Vibration    13          0.713              1.614              1.257
 Vibration    14          0.735              1.553              1.119
 Vibration    15          0.768              1.465              0.955
 Vibration    16          0.792              1.402              0.855
 Vibration    17          0.835              1.299              0.715
 Vibration    18          0.883              1.188              0.592
 Vibration    19          0.908              1.133              0.538
 Vibration    20          0.943              1.061              0.474
 Vibration    21          0.968              1.013              0.435

                           ! Non-Optimized Parameters !
 Normal termination of Gaussian 16 at Wed Dec  9 18:44:18 2020.

 ----------------------------------------------------------------------
 # B3LYP/6-311++G(d,p) empiricaldispersion=gd3bj scf=xqc pop=npa geom=c
 heck
 ----------------------------------------------------------------------

 ---------------------------------------
 CID_135423461_JID_2706_Energie_neutraal
 ---------------------------------------
 Structure from the checkpoint file:  "JID_2706.chk"
 Charge =  0 Multiplicity = 1

 SCF Done:  E(RB3LYP) =  -1257.89434974     A.U. after   16 cycles
 Normal termination of Gaussian 16 at Wed Dec  9 18:46:03 2020.

 ----------------------------------------------------------------------
 # B3LYP/6-311++G(d,p) empiricaldispersion=gd3bj scf=xqc pop=npa geom=c
 heck
 ----------------------------------------------------------------------

 -------------------------------------
 CID_135423461_JID_2706_Energie_kation
 -------------------------------------
 Structure from the checkpoint file:  "JID_2706.chk"
 Charge =  1 Multiplicity = 2

 SCF Done:  E(UB3LYP) =  -1257.57695024     A.U. after   33 cycles
 SCF Done:  E(UB3LYP) =  -1257.57695024     a.u. after    2 cycles
 Normal termination of Gaussian 16 at Wed Dec  9 18:54:41 2020.
 Gaussian 16:  ES64L-G16RevA.03 25-Dec-2016

 ----------------------------------------------------------------------
 # B3LYP/6-311++G(d,p) empiricaldispersion=gd3bj scf=xqc pop=npa geom=c
 heck
 ----------------------------------------------------------------------

 ------------------------------------
 CID_135423461_JID_2706_Energie_anion
 ------------------------------------
 Structure from the checkpoint file:  "JID_2706.chk"
 Charge = -1 Multiplicity = 2

                         Standard orientation:
 ---------------------------------------------------------------------
 Center     Atomic      Atomic             Coordinates (Angstroms)
 Number     Number       Type             X           Y           Z
 ---------------------------------------------------------------------
      1          6           0       -3.511359    0.277668    0.168064
      2          6           0       -2.105139    0.785118    0.022401
      3          6           0       -0.974540   -0.036745   -0.013543
      4          6           0       -1.235516   -1.524380    0.004791
      5          8           0       -1.984248   -2.028485    0.824281
      6          6           0       -0.660229   -2.372957   -1.122446
      7          6           0        0.371263    0.474103   -0.026189
      8         16           0        0.826305    2.078433   -0.283107
      9         16           0        1.590743   -0.762309    0.371914
     10          6           0        3.124996    0.117390    0.370151
     11          6           0        4.244163   -0.449337   -0.081607
     12          8           0       -2.066016    2.096580   -0.064555
     13          1           0       -3.695957   -0.606922   -0.444535
     14          1           0       -4.200756    1.077183   -0.109073
     15          1           0       -3.693831   -0.018159    1.205495
     16          1           0       -0.175927   -3.263491   -0.712399
     17          1           0       -1.510687   -2.712205   -1.726832
     18          1           0        0.037023   -1.835805   -1.766070
     19          1           0        3.101382    1.100942    0.827672
     20          1           0        5.196520    0.062489    0.021389
     21          1           0        4.253967   -1.427072   -0.554322
     22          1           0       -1.104238    2.395148   -0.169774
 ---------------------------------------------------------------------

 SCF Done:  E(UB3LYP) =  -1257.93435339     A.U. after   25 cycles

 The electronic state is 2-A.
 Alpha  occ. eigenvalues --  -88.72178 -88.64608 -19.00374 -18.98554 -10.13860
 Alpha  occ. eigenvalues --  -10.09997 -10.07981 -10.06950 -10.05545 -10.05154
 Alpha  occ. eigenvalues --  -10.04373 -10.03800  -7.80841  -7.73413  -5.77193
 Alpha  occ. eigenvalues --   -5.76791  -5.76339  -5.69747  -5.69283  -5.69057
 Alpha  occ. eigenvalues --   -0.93102  -0.91948  -0.70708  -0.66729  -0.63380
 Alpha  occ. eigenvalues --   -0.62179  -0.57641  -0.55113  -0.47468  -0.46003
 Alpha  occ. eigenvalues --   -0.42445  -0.41564  -0.35717  -0.35013  -0.33011
 Alpha  occ. eigenvalues --   -0.31889  -0.31065  -0.30729  -0.29880  -0.28632
 Alpha  occ. eigenvalues --   -0.27775  -0.25782  -0.25212  -0.24516  -0.23335
 Alpha  occ. eigenvalues --   -0.22313  -0.21318  -0.18940  -0.16522  -0.12952
 Alpha  occ. eigenvalues --   -0.09947  -0.08733  -0.07492   0.01880
 Alpha virt. eigenvalues --    0.07900   0.08575   0.09142   0.09999   0.10263
 Alpha virt. eigenvalues --    0.11324   0.12151   0.12466   0.13115   0.13638
 Alpha virt. eigenvalues --    0.14392   0.14870   0.15328   0.15927   0.17151

  Beta  occ. eigenvalues --  -88.72169 -88.64513 -19.00135 -18.98592 -10.13841
  Beta  occ. eigenvalues --  -10.09473 -10.07996 -10.06138 -10.05547 -10.05060
  Beta  occ. eigenvalues --  -10.04410 -10.04013  -7.80832  -7.73328  -5.77198
  Beta  occ. eigenvalues --   -5.76803  -5.76280  -5.69721  -5.69017  -5.68950
  Beta  occ. eigenvalues --   -0.92602  -0.91978  -0.70197  -0.66457  -0.62847
  Beta  occ. eigenvalues --   -0.62022  -0.57564  -0.54776  -0.46941  -0.45658
  Beta  occ. eigenvalues --   -0.42314  -0.41067  -0.35608  -0.34936  -0.32848
  Beta  occ. eigenvalues --   -0.31643  -0.30687  -0.30255  -0.29709  -0.28446
  Beta  occ. eigenvalues --   -0.27640  -0.25521  -0.24884  -0.23428  -0.23223
  Beta  occ. eigenvalues --   -0.22075  -0.20419  -0.18001  -0.15398  -0.12902
  Beta  occ. eigenvalues --   -0.09327  -0.07578  -0.07114
  Beta virt. eigenvalues --    0.08216   0.08560   0.09125   0.09208   0.09996
  Beta virt. eigenvalues --    0.11135   0.11337   0.12206   0.12492   0.13101
  Beta virt. eigenvalues --    0.13758   0.14381   0.14874   0.15373   0.16100

 Mulliken charges and spin densities:
               1          2
     1  C   -0.514469  -0.023771
     2  C   -0.197578   0.337303
     3  C   -0.247226  -0.173567
     4  C   -0.901499  -0.004697
     5  O   -0.234200  -0.008695
     6  C   -0.690045  -0.003500
     7  C    2.008609   0.453155
     8  S   -1.073171   0.228896
     9  S   -0.363488   0.053044
    10  C    0.323363  -0.032481
    11  C   -0.480006   0.083028
    12  O   -0.095440   0.064880
    13  H    0.144611   0.010247
    14  H    0.126274   0.004724
    15  H    0.173569   0.021371
    16  H    0.151852  -0.000324
    17  H    0.153000  -0.000337
    18  H    0.150998   0.003803
    19  H    0.190465  -0.000903
    20  H    0.097893   0.000564
    21  H    0.113852  -0.001682
    22  H    0.162636  -0.011059
 Sum of Mulliken charges =  -1.00000   1.00000

 Dipole moment (field-independent basis, Debye):
    X=             -0.0115    Y=             -2.8886    Z=             -1.3269  Tot=              3.1788
 Quadrupole moment (field-independent basis, Debye-Ang):
   XX=           -112.4124   YY=           -112.2179   ZZ=            -96.9298
   XY=             -2.7859   XZ=              3.7399   YZ=              7.1028

 Summary of Natural Population Analysis:

                                       Natural Population
                Natural  -----------------------------------------------
    Atom  No    Charge         Core      Valence    Rydberg      Total
 -----------------------------------------------------------------------
      C    1   -0.31617      0.99964     2.31173    0.00480     3.31617
      C    2    0.33467      0.99948     1.65278    0.01306     2.66533
      C    3   -0.21866      0.99935     2.20589    0.01342     3.21866
      C    4    0.29135      0.99965     1.68788    0.02112     2.70865
      O    5   -0.30977      0.99987     3.30114    0.00876     4.30977
      C    6   -0.33415      0.99962     2.32901    0.00553     3.33415
      C    7    0.01113      0.99954     1.97647    0.01286     2.98887
      S    8   -0.07185      4.99948     3.05793    0.01444     8.07185
      S    9    0.13786      4.99938     2.83933    0.02343     7.86214
      C   10   -0.16452      0.99950     2.15325    0.01176     3.16452
      C   11   -0.19408      0.99955     2.18574    0.00879     3.19408
      O   12   -0.32677      0.99986     3.31793    0.00897     4.32677
      H   13    0.10528      0.00000     0.39389    0.00083     0.39472
      H   14    0.10066      0.00000     0.39820    0.00114     0.39934
      H   15    0.11595      0.00000     0.38315    0.00089     0.38405
      H   16    0.10624      0.00000     0.39259    0.00117     0.39376
      H   17    0.10444      0.00000     0.39452    0.00105     0.39556
      H   18    0.11023      0.00000     0.38896    0.00081     0.38977
      H   19    0.11047      0.00000     0.38781    0.00173     0.38953
      H   20    0.08841      0.00000     0.41045    0.00114     0.41159
      H   21    0.08925      0.00000     0.40948    0.00127     0.41075
      H   22    0.23001      0.00000     0.26522    0.00476     0.26999
 =======================================================================
   * Total *   -0.00000     19.99492    32.84335    0.16173    53.00000

 Normal termination of Gaussian 16 at Wed Dec  9 18:58:18 2020.
