 Gaussian 16, Revision A.03,

 -----------------------------------------------------------
 # opt freq B3LYP/6-31G(d) empiricaldispersion=gd3bj scf=xqc
 -----------------------------------------------------------

 ------------------------------
 CID_79099817_JID_6950_neutraal
 ------------------------------
 Symbolic Z-matrix:
 Charge =  0 Multiplicity = 1

 SCF Done:  E(RB3LYP) =  -728.134364048     A.U. after   15 cycles
 SCF Done:  E(RB3LYP) =  -728.137248488     A.U. after   14 cycles
 SCF Done:  E(RB3LYP) =  -728.137781356     A.U. after   14 cycles
 SCF Done:  E(RB3LYP) =  -728.139090726     A.U. after   14 cycles
 SCF Done:  E(RB3LYP) =  -728.140045174     A.U. after   13 cycles
 SCF Done:  E(RB3LYP) =  -728.140094932     A.U. after   13 cycles
 SCF Done:  E(RB3LYP) =  -728.140191883     A.U. after   13 cycles
 SCF Done:  E(RB3LYP) =  -728.140226548     A.U. after   11 cycles
 SCF Done:  E(RB3LYP) =  -728.140235064     A.U. after    9 cycles
 SCF Done:  E(RB3LYP) =  -728.140237752     A.U. after    9 cycles
 SCF Done:  E(RB3LYP) =  -728.140240865     A.U. after    8 cycles
 SCF Done:  E(RB3LYP) =  -728.140241533     A.U. after    8 cycles
 SCF Done:  E(RB3LYP) =  -728.140241892     A.U. after    8 cycles
 SCF Done:  E(RB3LYP) =  -728.140242012     A.U. after    7 cycles
 SCF Done:  E(RB3LYP) =  -728.140242034     A.U. after    6 cycles
 Optimization completed.
    -- Stationary point found.
 Normal termination of Gaussian 16 at Fri Dec 11 01:16:37 2020.

 --------------------------------------------------------------------
 #N Geom=AllCheck Guess=TCheck SCRF=Check GenChk RB3LYP/6-31G(d) Freq
 --------------------------------------------------------------------

 Structure from the checkpoint file:  "JID_6950.chk"
 ------------------------------
 CID_79099817_JID_6950_neutraal
 ------------------------------
 Charge =  0 Multiplicity = 1

 SCF Done:  E(RB3LYP) =  -728.140242034     A.U. after    1 cycles

  Exact polarizability: 172.126 -14.124 135.547  -7.493  -9.227 113.367
 Approx polarizability: 247.684 -26.773 195.381 -23.270 -23.754 187.723

                      1                      2                      3
                      A                      A                      A
 Frequencies --     37.9583                41.1180                58.0213
 Red. masses --      4.1876                 4.1233                 4.5412
 Frc consts  --      0.0036                 0.0041                 0.0090
 IR Inten    --      2.7912                 0.3760                 2.0397

                      4                      5                      6
                      A                      A                      A
 Frequencies --     62.9579                75.8183                91.9051
 Red. masses --      3.4352                 3.8405                 2.9364
 Frc consts  --      0.0080                 0.0130                 0.0146
 IR Inten    --      1.8968                 0.3960                 0.0800

                      7                      8                      9
                      A                      A                      A
 Frequencies --    107.7855               136.1938               162.5791
 Red. masses --      4.4799                 3.4138                 3.4963
 Frc consts  --      0.0307                 0.0373                 0.0544
 IR Inten    --      0.3325                 1.9754                 1.6086

                     10                     11                     12
                      A                      A                      A
 Frequencies --    189.4508               223.6193               234.9192
 Red. masses --      3.4393                 1.1814                 1.0345
 Frc consts  --      0.0727                 0.0348                 0.0336
 IR Inten    --      0.8413                 0.8512                 0.1108

                     13                     14                     15
                      A                      A                      A
 Frequencies --    250.0413               266.9282               296.7936
 Red. masses --      2.0628                 1.8767                 3.4315
 Frc consts  --      0.0760                 0.0788                 0.1781
 IR Inten    --      3.9265                 0.8437                 1.3064

                     16                     17                     18
                      A                      A                      A
 Frequencies --    316.7642               342.0262               383.1975
 Red. masses --      2.8918                 2.8171                 3.1770
 Frc consts  --      0.1710                 0.1942                 0.2749
 IR Inten    --      3.0776                 2.1494                 0.8397

                     19                     20                     21
                      A                      A                      A
 Frequencies --    414.7579               440.0767               498.9617
 Red. masses --      2.3869                 2.5010                 3.4647
 Frc consts  --      0.2419                 0.2854                 0.5082
 IR Inten    --      1.4490                 3.1379                 2.7911

                     22                     23                     24
                      A                      A                      A
 Frequencies --    514.7876               533.4115               593.0470
 Red. masses --      2.7234                 3.7443                 3.2946
 Frc consts  --      0.4252                 0.6277                 0.6827
 IR Inten    --      7.5941                26.6667                14.8481

                     25                     26                     27
                      A                      A                      A
 Frequencies --    610.2110               628.5580               634.7691
 Red. masses --      2.9580                 3.4617                 3.0453
 Frc consts  --      0.6489                 0.8058                 0.7230
 IR Inten    --     11.7646                 2.8435                19.5512

                     28                     29                     30
                      A                      A                      A
 Frequencies --    676.2061               713.1863               750.8155
 Red. masses --      2.1317                 1.3193                 2.3078
 Frc consts  --      0.5743                 0.3954                 0.7665
 IR Inten    --     88.4830                 0.6108                34.2220

                     31                     32                     33
                      A                      A                      A
 Frequencies --    784.7134               803.1933               820.5090
 Red. masses --      3.7755                 1.4995                 1.3106
 Frc consts  --      1.3698                 0.5699                 0.5199
 IR Inten    --      1.8074                29.6064                 3.1360

                     34                     35                     36
                      A                      A                      A
 Frequencies --    850.0545               878.3650               891.2237
 Red. masses --      3.5091                 1.3651                 2.6335
 Frc consts  --      1.4940                 0.6205                 1.2324
 IR Inten    --      6.6173                 3.8638                 0.9257

                     37                     38                     39
                      A                      A                      A
 Frequencies --    922.8463               946.1388               960.7877
 Red. masses --      2.7680                 1.1936                 1.4559
 Frc consts  --      1.3889                 0.6295                 0.7919
 IR Inten    --     53.3533                 3.6477                 0.0991

                     40                     41                     42
                      A                      A                      A
 Frequencies --    978.1361               997.2430              1016.1791
 Red. masses --      1.9915                 2.9102                 2.0550
 Frc consts  --      1.1226                 1.7052                 1.2503
 IR Inten    --      8.4287                 2.0238                 7.2042

                     43                     44                     45
                      A                      A                      A
 Frequencies --   1027.1560              1043.9352              1087.7332
 Red. masses --      2.1639                 2.7283                 1.7832
 Frc consts  --      1.3451                 1.7518                 1.2431
 IR Inten    --      1.4172                26.0994                 7.1853

                     46                     47                     48
                      A                      A                      A
 Frequencies --   1100.6888              1142.7208              1157.8396
 Red. masses --      1.3809                 1.5697                 2.0994
 Frc consts  --      0.9857                 1.2076                 1.6582
 IR Inten    --     15.9136                27.5848                17.1316

                     49                     50                     51
                      A                      A                      A
 Frequencies --   1197.3704              1207.0447              1211.6558
 Red. masses --      1.5289                 1.8779                 1.9117
 Frc consts  --      1.2914                 1.6120                 1.6536
 IR Inten    --     15.0386                50.7654                 0.1261

                     52                     53                     54
                      A                      A                      A
 Frequencies --   1229.0240              1274.7871              1296.6149
 Red. masses --      2.2003                 1.3883                 1.3529
 Frc consts  --      1.9582                 1.3293                 1.3401
 IR Inten    --     97.7618                22.4614                20.5206

                     55                     56                     57
                      A                      A                      A
 Frequencies --   1347.5759              1354.3374              1357.3168
 Red. masses --      1.5402                 1.3876                 1.3364
 Frc consts  --      1.6479                 1.4996                 1.4506
 IR Inten    --      1.8632                 5.4845                 2.4490

                     58                     59                     60
                      A                      A                      A
 Frequencies --   1373.7481              1390.5649              1417.3841
 Red. masses --      1.4259                 3.0322                 3.0182
 Frc consts  --      1.5854                 3.4546                 3.5725
 IR Inten    --     15.6817                91.9094                61.2832

                     61                     62                     63
                      A                      A                      A
 Frequencies --   1424.3552              1432.1121              1434.4500
 Red. masses --      4.1255                 1.2747                 1.4530
 Frc consts  --      4.9313                 1.5403                 1.7615
 IR Inten    --      8.8983                 4.7828                26.5266

                     64                     65                     66
                      A                      A                      A
 Frequencies --   1449.6320              1452.2973              1497.2041
 Red. masses --      3.3210                 1.3072                 1.5578
 Frc consts  --      4.1118                 1.6244                 2.0574
 IR Inten    --      5.3281                19.3272                61.6112

                     67                     68                     69
                      A                      A                      A
 Frequencies --   1511.1618              1513.0497              1514.9019
 Red. masses --      1.1219                 1.0756                 1.0794
 Frc consts  --      1.5095                 1.4508                 1.4595
 IR Inten    --      8.5708                 6.8764                12.8387

                     70                     71                     72
                      A                      A                      A
 Frequencies --   1517.7046              1527.4102              1532.8140
 Red. masses --      1.0569                 1.0444                 1.0795
 Frc consts  --      1.4343                 1.4357                 1.4943
 IR Inten    --      0.8403                 7.1167                10.5450

                     73                     74                     75
                      A                      A                      A
 Frequencies --   1539.4076              1539.9463              1558.4067
 Red. masses --      1.0786                 1.0975                 3.1507
 Frc consts  --      1.5060                 1.5335                 4.5083
 IR Inten    --      2.2525                 9.9268                50.1004

                     76                     77                     78
                      A                      A                      A
 Frequencies --   1586.5384              1764.7934              1789.6236
 Red. masses --      4.4135                11.2617                 8.0220
 Frc consts  --      6.5454                20.6652                15.1376
 IR Inten    --     86.5995               250.9057               385.6098

                     79                     80                     81
                      A                      A                      A
 Frequencies --   3048.5607              3053.4476              3054.6664
 Red. masses --      1.0378                 1.0389                 1.0346
 Frc consts  --      5.6826                 5.7070                 5.6879
 IR Inten    --     12.7448                16.4779                33.1194

                     82                     83                     84
                      A                      A                      A
 Frequencies --   3057.0372              3092.2578              3102.0587
 Red. masses --      1.0645                 1.0603                 1.0853
 Frc consts  --      5.8615                 5.9734                 6.1530
 IR Inten    --     19.3071                15.7365                 6.5392

                     85                     86                     87
                      A                      A                      A
 Frequencies --   3111.7999              3113.1617              3126.2775
 Red. masses --      1.1001                 1.1007                 1.1017
 Frc consts  --      6.2763                 6.2850                 6.3443
 IR Inten    --      3.3837                 3.0115                49.6628

                     88                     89                     90
                      A                      A                      A
 Frequencies --   3128.2514              3133.9670              3136.7592
 Red. masses --      1.0959                 1.1032                 1.1037
 Frc consts  --      6.3188                 6.3840                 6.3982
 IR Inten    --     48.3763                42.4365                22.1551

                     91                     92                     93
                      A                      A                      A
 Frequencies --   3145.7305              3157.4980              3271.9830
 Red. masses --      1.1079                 1.1004                 1.0947
 Frc consts  --      6.4592                 6.4640                 6.9052
 IR Inten    --      9.4666                 5.2019                 0.2455

                     94                     95                     96
                      A                      A                      A
 Frequencies --   3274.8486              3292.5545              3565.7656
 Red. masses --      1.0917                 1.1041                 1.0751
 Frc consts  --      6.8979                 7.0522                 8.0536
 IR Inten    --      1.0327                 0.3872                16.3324

 - Thermochemistry -
 -------------------
 Temperature   298.150 Kelvin.  Pressure   1.00000 Atm.
 Atom     1 has atomic number  6 and mass  12.00000

 Molecular mass:   222.13683 amu.
 Principal axes and moments of inertia in atomic units:
                           1         2         3
     Eigenvalues --  2238.868925336.368136635.38752
           X            0.99995   0.00219   0.00933
           Y           -0.00219   1.00000   0.00001
           Z           -0.00933  -0.00003   0.99996
 This molecule is an asymmetric top.
 Rotational symmetry number  1.
 Warning -- assumption of classical behavior for rotation
           may cause significant error
 Rotational temperatures (Kelvin)      0.03869     0.01623     0.01305
 Rotational constants (GHZ):           0.80610     0.33820     0.27199
 Zero-point vibrational energy     764450.8 (Joules/Mol)
                                  182.70812 (Kcal/Mol)
 Warning -- explicit consideration of  25 degrees of freedom as
           vibrations may cause significant error
 Vibrational temperatures:     54.61    59.16    83.48    90.58   109.09
          (Kelvin)            132.23   155.08   195.95   233.92   272.58
                              321.74   338.00   359.75   384.05   427.02
                              455.75   492.10   551.34   596.74   633.17
                              717.89   740.66   767.46   853.26   877.96
                              904.35   913.29   972.91  1026.12  1080.26
                             1129.03  1155.62  1180.53  1223.04  1263.77
                             1282.27  1327.77  1361.28  1382.36  1407.32
                             1434.81  1462.06  1477.85  1501.99  1565.01
                             1583.65  1644.12  1665.87  1722.75  1736.67
                             1743.30  1768.29  1834.13  1865.54  1938.86
                             1948.59  1952.88  1976.52  2000.71  2039.30
                             2049.33  2060.49  2063.85  2085.70  2089.53
                             2154.14  2174.22  2176.94  2179.61  2183.64
                             2197.60  2205.38  2214.86  2215.64  2242.20
                             2282.67  2539.14  2574.87  4386.20  4393.23
                             4394.98  4398.39  4449.07  4463.17  4477.19
                             4479.15  4498.02  4500.86  4509.08  4513.10
                             4526.00  4542.94  4707.65  4711.78  4737.25
                             5130.34

 Zero-point correction=                           0.291164 (Hartree/Particle)
 Thermal correction to Energy=                    0.308132
 Thermal correction to Enthalpy=                  0.309076
 Thermal correction to Gibbs Free Energy=         0.245530
 Sum of electronic and zero-point Energies=           -727.849078
 Sum of electronic and thermal Energies=              -727.832110
 Sum of electronic and thermal Enthalpies=            -727.831166
 Sum of electronic and thermal Free Energies=         -727.894712

                     E (Thermal)             CV                S
                      KCal/Mol        Cal/Mol-Kelvin    Cal/Mol-Kelvin
 Total                  193.356             62.588            133.744
 Electronic               0.000              0.000              0.000
 Translational            0.889              2.981             42.097
 Rotational               0.889              2.981             32.739
 Vibrational            191.578             56.627             58.908
 Vibration     1          0.594              1.982              5.363
 Vibration     2          0.594              1.981              5.204
 Vibration     3          0.596              1.974              4.523
 Vibration     4          0.597              1.972              4.362
 Vibration     5          0.599              1.965              3.996
 Vibration     6          0.602              1.955              3.619
 Vibration     7          0.606              1.943              3.308
 Vibration     8          0.614              1.917              2.857
 Vibration     9          0.623              1.888              2.520
 Vibration    10          0.633              1.854              2.233
 Vibration    11          0.649              1.805              1.930
 Vibration    12          0.655              1.787              1.841
 Vibration    13          0.663              1.763              1.730
 Vibration    14          0.672              1.734              1.616
 Vibration    15          0.690              1.680              1.435
 Vibration    16          0.704              1.642              1.327
 Vibration    17          0.721              1.591              1.203
 Vibration    18          0.752              1.506              1.027
 Vibration    19          0.778              1.438              0.910
 Vibration    20          0.800              1.383              0.826
 Vibration    21          0.854              1.252              0.661
 Vibration    22          0.870              1.217              0.622
 Vibration    23          0.888              1.176              0.580
 Vibration    24          0.951              1.047              0.462
 Vibration    25          0.969              1.010              0.432

 Optimization completed.
    -- Stationary point found.
 Normal termination of Gaussian 16 at Fri Dec 11 01:27:51 2020.

 ----------------------------------------------------------------------
 # B3LYP/6-311++G(d,p) empiricaldispersion=gd3bj scf=xqc pop=npa geom=c
 heck
 ----------------------------------------------------------------------

 --------------------------------------
 CID_79099817_JID_6950_Energie_neutraal
 --------------------------------------
 Structure from the checkpoint file:  "JID_6950.chk"
 Charge =  0 Multiplicity = 1

 SCF Done:  E(RB3LYP) =  -728.350291467     A.U. after   16 cycles
 Normal termination of Gaussian 16 at Fri Dec 11 01:32:48 2020.

 ----------------------------------------------------------------------
 # B3LYP/6-311++G(d,p) empiricaldispersion=gd3bj scf=xqc pop=npa geom=c
 heck
 ----------------------------------------------------------------------

 ------------------------------------
 CID_79099817_JID_6950_Energie_kation
 ------------------------------------
 Structure from the checkpoint file:  "JID_6950.chk"
 Charge =  1 Multiplicity = 2

 SCF Done:  E(UB3LYP) =  -728.039321171     A.U. after   33 cycles
 SCF Done:  E(UB3LYP) =  -728.039321171     a.u. after    1 cycles
 Normal termination of Gaussian 16 at Fri Dec 11 01:46:33 2020.
 Gaussian 16:  ES64L-G16RevA.03 25-Dec-2016

 ----------------------------------------------------------------------
 # B3LYP/6-311++G(d,p) empiricaldispersion=gd3bj scf=xqc pop=npa geom=c
 heck
 ----------------------------------------------------------------------

 -----------------------------------
 CID_79099817_JID_6950_Energie_anion
 -----------------------------------
 Structure from the checkpoint file:  "JID_6950.chk"
 Charge = -1 Multiplicity = 2

                         Standard orientation:
 ---------------------------------------------------------------------
 Center     Atomic      Atomic             Coordinates (Angstroms)
 Number     Number       Type             X           Y           Z
 ---------------------------------------------------------------------
      1          6           0       -3.013719    2.124244   -0.431156
      2          6           0       -3.518563    0.745977   -0.893029
      3          6           0       -3.114142   -0.342629    0.095711
      4          8           0       -3.893538   -0.723074    0.960667
      5          6           0       -1.744699   -0.869014    0.019414
      6          6           0       -0.757969   -0.555051   -0.908081
      7          7           0        0.372568   -1.250122   -0.583703
      8          6           0        0.131803   -2.016339    0.547275
      9          6           0       -1.165293   -1.801441    0.938868
     10          6           0        1.660486   -1.161705   -1.255531
     11          6           0        2.788200   -0.817338   -0.268939
     12          8           0        3.619491   -1.666676    0.028233
     13          7           0        2.819123    0.443747    0.245669
     14          6           0        1.828816    1.520326    0.150599
     15          6           0        0.897963    1.533363    1.368854
     16          6           0        2.555860    2.855341   -0.032239
     17          1           0       -3.407831    2.360633    0.562640
     18          1           0       -3.336443    2.909748   -1.122587
     19          1           0       -1.920062    2.147055   -0.372758
     20          1           0       -4.610933    0.745814   -0.945121
     21          1           0       -3.130475    0.520259   -1.893944
     22          1           0       -0.773464    0.101578   -1.765709
     23          1           0        0.918200   -2.634081    0.956028
     24          1           0       -1.677487   -2.242266    1.781269
     25          1           0        1.926885   -2.124964   -1.696245
     26          1           0        1.577375   -0.420840   -2.055009
     27          1           0        3.547408    0.561377    0.942734
     28          1           0        1.230729    1.329517   -0.743638
     29          1           0        1.470716    1.732178    2.282898
     30          1           0        0.143467    2.321077    1.266146
     31          1           0        0.383920    0.576239    1.484101
     32          1           0        3.191830    2.837883   -0.922654
     33          1           0        1.835174    3.673592   -0.130473
     34          1           0        3.189061    3.073421    0.836889
 ---------------------------------------------------------------------

 SCF Done:  E(UB3LYP) =  -728.349990810     A.U. after   32 cycles

 The electronic state is 2-A.
 Alpha  occ. eigenvalues --  -19.00179 -18.96959 -14.27125 -14.24963 -10.18680
 Alpha  occ. eigenvalues --  -10.13129 -10.13078 -10.11970 -10.09562 -10.09436
 Alpha  occ. eigenvalues --  -10.07796 -10.07172 -10.06128 -10.06101 -10.05946
 Alpha  occ. eigenvalues --  -10.05677  -0.95400  -0.90579  -0.89503  -0.84051
 Alpha  occ. eigenvalues --   -0.72024  -0.69262  -0.67047  -0.63227  -0.62092
 Alpha  occ. eigenvalues --   -0.60525  -0.54542  -0.53091  -0.51073  -0.49561
 Alpha  occ. eigenvalues --   -0.46526  -0.45172  -0.40820  -0.39945  -0.38578
 Alpha  occ. eigenvalues --   -0.36382  -0.36047  -0.35737  -0.34404  -0.34263
 Alpha  occ. eigenvalues --   -0.33242  -0.32292  -0.32002  -0.30676  -0.30264
 Alpha  occ. eigenvalues --   -0.29889  -0.29315  -0.29241  -0.28362  -0.27609
 Alpha  occ. eigenvalues --   -0.26457  -0.26171  -0.25571  -0.24074  -0.23591
 Alpha  occ. eigenvalues --   -0.17776  -0.16990  -0.14394  -0.12753  -0.12545
 Alpha  occ. eigenvalues --    0.03738
 Alpha virt. eigenvalues --    0.05890   0.07054   0.07444   0.08176   0.09145
 Alpha virt. eigenvalues --    0.09336   0.09691   0.09829   0.09905   0.10487
 Alpha virt. eigenvalues --    0.11660   0.11836   0.12077   0.12433   0.12644

  Beta  occ. eigenvalues --  -19.00157 -18.96725 -14.27092 -14.24955 -10.18648
  Beta  occ. eigenvalues --  -10.13125 -10.13060 -10.11799 -10.09585 -10.09301
  Beta  occ. eigenvalues --  -10.07754 -10.07165 -10.06119 -10.06083 -10.05914
  Beta  occ. eigenvalues --  -10.05689  -0.95352  -0.90181  -0.89385  -0.84026
  Beta  occ. eigenvalues --   -0.71951  -0.69232  -0.66923  -0.63110  -0.61998
  Beta  occ. eigenvalues --   -0.60478  -0.54335  -0.53042  -0.51008  -0.49442
  Beta  occ. eigenvalues --   -0.46432  -0.45078  -0.40752  -0.39761  -0.38495
  Beta  occ. eigenvalues --   -0.36269  -0.36008  -0.35650  -0.34370  -0.34193
  Beta  occ. eigenvalues --   -0.33181  -0.32192  -0.31815  -0.30623  -0.30008
  Beta  occ. eigenvalues --   -0.29819  -0.29204  -0.29133  -0.28281  -0.27450
  Beta  occ. eigenvalues --   -0.26411  -0.26123  -0.25445  -0.24016  -0.22823
  Beta  occ. eigenvalues --   -0.17713  -0.16925  -0.14097  -0.12351  -0.12317
  Beta virt. eigenvalues --    0.06204   0.07207   0.07915   0.08169   0.08423
  Beta virt. eigenvalues --    0.09331   0.09739   0.09889   0.10053   0.10200
  Beta virt. eigenvalues --    0.10737   0.11872   0.11989   0.12203   0.12622

 Mulliken charges and spin densities:
               1          2
     1  C   -0.060926  -0.449868
     2  C   -0.332212   0.221300
     3  C   -0.076767  -0.349307
     4  O   -0.342672   0.082627
     5  C    0.542519  -0.415848
     6  C   -0.483174   0.142282
     7  N    0.194048   0.021797
     8  C   -0.116777  -0.159827
     9  C   -0.072214   0.298648
    10  C    0.535474  -0.740149
    11  C   -0.166125   0.140115
    12  O   -0.320110   0.013418
    13  N   -0.139091   0.081425
    14  C   -0.823587   0.686042
    15  C    0.023557  -0.480725
    16  C    0.694022  -1.197667
    17  H    0.110645   0.033991
    18  H   -0.304483   0.439325
    19  H    0.268113  -0.156313
    20  H    0.142848   0.036811
    21  H   -0.052097   0.182478
    22  H   -0.540920   0.785815
    23  H    0.180398  -0.003480
    24  H    0.157824   0.018516
    25  H    0.093424   0.139215
    26  H   -0.437264   0.602220
    27  H    0.233881   0.046631
    28  H    0.345837  -0.192324
    29  H    0.162760  -0.030305
    30  H    0.027489   0.105578
    31  H    0.228705  -0.036353
    32  H   -0.301012   0.471253
    33  H   -0.250265   0.412165
    34  H   -0.121846   0.250515
 Sum of Mulliken charges =  -1.00000   1.00000

 Dipole moment (field-independent basis, Debye):
    X=              2.2242    Y=             -0.9707    Z=              3.2345  Tot=              4.0437
 Quadrupole moment (field-independent basis, Debye-Ang):
   XX=           -172.2723   YY=           -140.2253   ZZ=           -129.3350
   XY=             -0.7242   XZ=              8.4347   YZ=              8.0863

 Summary of Natural Population Analysis:

                                       Natural Population
                Natural  -----------------------------------------------
    Atom  No    Charge         Core      Valence    Rydberg      Total
 -----------------------------------------------------------------------
      C    1   -0.28026      0.99966     2.27561    0.00499     3.28026
      C    2   -0.23018      0.99962     2.22208    0.00848     3.23018
      C    3    0.29300      0.99959     1.68595    0.02146     2.70700
      O    4   -0.28137      0.99988     3.27574    0.00575     4.28137
      C    5   -0.11170      0.99948     2.10073    0.01149     3.11170
      C    6    0.02708      0.99952     1.96112    0.01228     2.97292
      N    7   -0.20198      0.99965     2.69141    0.01092     3.70198
      C    8   -0.03403      0.99956     2.02305    0.01143     3.03403
      C    9   -0.11396      0.99953     2.10623    0.00819     3.11396
      C   10   -0.11992      0.99957     2.10934    0.01101     3.11992
      C   11    0.34105      0.99968     1.63623    0.02305     2.65895
      O   12   -0.32277      0.99988     3.31722    0.00567     4.32277
      N   13   -0.31455      0.99965     2.80465    0.01025     3.81455
      C   14   -0.01844      0.99960     2.00805    0.01078     3.01844
      C   15   -0.28923      0.99964     2.28398    0.00561     3.28923
      C   16   -0.28494      0.99965     2.27943    0.00586     3.28494
      H   17    0.09711      0.00000     0.40200    0.00089     0.40289
      H   18    0.09788      0.00000     0.40098    0.00114     0.40212
      H   19    0.09712      0.00000     0.40161    0.00127     0.40288
      H   20    0.10273      0.00000     0.39620    0.00107     0.39727
      H   21    0.10011      0.00000     0.39835    0.00154     0.39989
      H   22    0.10509      0.00000     0.39270    0.00221     0.39491
      H   23    0.10463      0.00000     0.39448    0.00088     0.39537
      H   24    0.11096      0.00000     0.38826    0.00078     0.38904
      H   25    0.10986      0.00000     0.38913    0.00101     0.39014
      H   26    0.11243      0.00000     0.38541    0.00216     0.38757
      H   27    0.19100      0.00000     0.30705    0.00194     0.30900
      H   28    0.09985      0.00000     0.39677    0.00338     0.40015
      H   29    0.09303      0.00000     0.40617    0.00081     0.40697
      H   30    0.10274      0.00000     0.39653    0.00074     0.39726
      H   31    0.11273      0.00000     0.38608    0.00119     0.38727
      H   32    0.10533      0.00000     0.39340    0.00126     0.39467
      H   33    0.10514      0.00000     0.39379    0.00107     0.39486
      H   34    0.09445      0.00000     0.40453    0.00102     0.40555
 =======================================================================
   * Total *   -0.00000     15.99415    43.81426    0.19159    60.00000

 Normal termination of Gaussian 16 at Fri Dec 11 01:59:51 2020.
