 Gaussian 16, Revision A.03,

 -----------------------------------------------------------
 # opt freq B3LYP/6-31G(d) empiricaldispersion=gd3bj scf=xqc
 -----------------------------------------------------------

 -------------------------------
 CID_63639118_JID_10895_neutraal
 -------------------------------
 Symbolic Z-matrix:
 Charge =  0 Multiplicity = 1

 SCF Done:  E(RB3LYP) =  -1205.93195504     A.U. after   15 cycles
 SCF Done:  E(RB3LYP) =  -1205.93681628     A.U. after   12 cycles
 SCF Done:  E(RB3LYP) =  -1205.93749956     A.U. after   12 cycles
 SCF Done:  E(RB3LYP) =  -1205.93816215     A.U. after   12 cycles
 SCF Done:  E(RB3LYP) =  -1205.93897756     A.U. after   12 cycles
 SCF Done:  E(RB3LYP) =  -1205.93978856     A.U. after   12 cycles
 SCF Done:  E(RB3LYP) =  -1205.94018541     A.U. after   12 cycles
 SCF Done:  E(RB3LYP) =  -1205.94032823     A.U. after   11 cycles
 SCF Done:  E(RB3LYP) =  -1205.94039084     A.U. after   12 cycles
 SCF Done:  E(RB3LYP) =  -1205.94041314     A.U. after   11 cycles
 SCF Done:  E(RB3LYP) =  -1205.94078933     A.U. after    9 cycles
 SCF Done:  E(RB3LYP) =  -1205.94078969     A.U. after    8 cycles
 SCF Done:  E(RB3LYP) =  -1205.94078976     A.U. after    7 cycles
 SCF Done:  E(RB3LYP) =  -1205.94078978     A.U. after    6 cycles
 SCF Done:  E(RB3LYP) =  -1205.94078978     A.U. after    6 cycles
 Optimization completed.
    -- Stationary point found.
 Normal termination of Gaussian 16 at Sun Dec 13 21:30:37 2020.

 --------------------------------------------------------------------
 #N Geom=AllCheck Guess=TCheck SCRF=Check GenChk RB3LYP/6-31G(d) Freq
 --------------------------------------------------------------------

 Structure from the checkpoint file:  "JID_10895.chk"
 -------------------------------
 CID_63639118_JID_10895_neutraal
 -------------------------------
 Charge =  0 Multiplicity = 1

 SCF Done:  E(RB3LYP) =  -1205.94078978     A.U. after    1 cycles

  Exact polarizability: 260.678  14.609 203.990 -15.978  16.494 137.661
 Approx polarizability: 359.662   7.105 309.359 -35.958  37.861 224.995

                      1                      2                      3
                      A                      A                      A
 Frequencies --     17.4701                26.7188                30.5312
 Red. masses --      4.0101                 1.0650                 2.5492
 Frc consts  --      0.0007                 0.0004                 0.0014
 IR Inten    --      0.0571                 0.1392                 0.1692

                      4                      5                      6
                      A                      A                      A
 Frequencies --     32.6324                37.4981                65.3790
 Red. masses --      4.4584                 5.2838                 3.3992
 Frc consts  --      0.0028                 0.0044                 0.0086
 IR Inten    --      0.1489                 0.2945                 0.8118

                      7                      8                      9
                      A                      A                      A
 Frequencies --     82.4465                92.9021               103.0077
 Red. masses --      3.2203                 3.0581                 2.4331
 Frc consts  --      0.0129                 0.0156                 0.0152
 IR Inten    --      2.2727                 2.0636                 0.8288

                     10                     11                     12
                      A                      A                      A
 Frequencies --    115.5940               159.0648               175.7417
 Red. masses --      4.2827                 4.0933                 3.0460
 Frc consts  --      0.0337                 0.0610                 0.0554
 IR Inten    --      0.7865                 0.2535                 0.3414

                     13                     14                     15
                      A                      A                      A
 Frequencies --    208.7122               212.1024               228.5997
 Red. masses --      2.8503                 1.3279                 3.3798
 Frc consts  --      0.0732                 0.0352                 0.1041
 IR Inten    --      0.4604                 0.7894                 0.4836

                     16                     17                     18
                      A                      A                      A
 Frequencies --    240.6147               254.4263               278.8412
 Red. masses --      1.3088                 2.8311                 1.3624
 Frc consts  --      0.0446                 0.1080                 0.0624
 IR Inten    --      0.5743                 0.3897                 0.3187

                     19                     20                     21
                      A                      A                      A
 Frequencies --    284.6155               310.9716               329.5488
 Red. masses --      1.8416                 3.5608                 3.4169
 Frc consts  --      0.0879                 0.2029                 0.2186
 IR Inten    --      2.5399                 0.5918                 1.0524

                     22                     23                     24
                      A                      A                      A
 Frequencies --    336.0013               343.8566               379.6152
 Red. masses --      3.4763                 4.3959                 2.9762
 Frc consts  --      0.2312                 0.3062                 0.2527
 IR Inten    --      3.5872                 0.5953                 0.7232

                     25                     26                     27
                      A                      A                      A
 Frequencies --    401.9132               459.4116               489.9430
 Red. masses --      3.4611                 3.0017                 3.3198
 Frc consts  --      0.3294                 0.3733                 0.4695
 IR Inten    --      1.1807                 1.1581                 1.3090

                     28                     29                     30
                      A                      A                      A
 Frequencies --    530.9297               554.5852               558.2402
 Red. masses --      3.9265                 5.1891                 5.9860
 Frc consts  --      0.6521                 0.9403                 1.0991
 IR Inten    --      2.1694                 2.5228                 0.4908

                     31                     32                     33
                      A                      A                      A
 Frequencies --    584.8046               604.9469               619.1964
 Red. masses --      4.6709                 3.7114                 6.0842
 Frc consts  --      0.9412                 0.8002                 1.3744
 IR Inten    --      1.2809                 2.3757                 2.6863

                     34                     35                     36
                      A                      A                      A
 Frequencies --    629.0957               680.1836               720.2249
 Red. masses --      3.7483                 4.6234                 5.1218
 Frc consts  --      0.8740                 1.2603                 1.5653
 IR Inten    --      9.7284                 5.9737                 1.1710

                     37                     38                     39
                      A                      A                      A
 Frequencies --    732.9090               749.7464               764.0726
 Red. masses --      2.6393                 1.9583                 2.0424
 Frc consts  --      0.8353                 0.6486                 0.7025
 IR Inten    --     16.2228                13.5341                26.8333

                     40                     41                     42
                      A                      A                      A
 Frequencies --    794.9250               810.6205               825.0650
 Red. masses --      2.5220                 1.4063                 2.1315
 Frc consts  --      0.9390                 0.5445                 0.8549
 IR Inten    --     23.8390                 6.4560                75.0539

                     43                     44                     45
                      A                      A                      A
 Frequencies --    830.2734               862.0126               866.6326
 Red. masses --      1.3547                 1.5312                 3.4648
 Frc consts  --      0.5502                 0.6704                 1.5332
 IR Inten    --      8.6317                 7.8941                 2.6610

                     46                     47                     48
                      A                      A                      A
 Frequencies --    904.0111               945.0838               960.9394
 Red. masses --      1.5444                 1.3178                 2.4798
 Frc consts  --      0.7436                 0.6935                 1.3491
 IR Inten    --     13.8005                 0.5639                 4.2838

                     49                     50                     51
                      A                      A                      A
 Frequencies --    964.2939               990.8791              1010.0941
 Red. masses --      2.8553                 3.5541                 2.0324
 Frc consts  --      1.5643                 2.0560                 1.2217
 IR Inten    --     15.7819                29.3907                 8.6466

                     52                     53                     54
                      A                      A                      A
 Frequencies --   1031.5680              1041.2544              1063.1517
 Red. masses --      1.6775                 1.7043                 4.2202
 Frc consts  --      1.0518                 1.0887                 2.8104
 IR Inten    --      1.1387                 4.5392                67.9997

                     55                     56                     57
                      A                      A                      A
 Frequencies --   1074.3639              1076.7642              1078.2723
 Red. masses --      1.5360                 2.1174                 1.9252
 Frc consts  --      1.0446                 1.4464                 1.3188
 IR Inten    --      9.1495                22.1253                16.9037

                     58                     59                     60
                      A                      A                      A
 Frequencies --   1081.3794              1104.6246              1139.3401
 Red. masses --      1.7634                 1.8080                 2.8136
 Frc consts  --      1.2149                 1.2998                 2.1519
 IR Inten    --      9.3814                25.0056                28.6640

                     61                     62                     63
                      A                      A                      A
 Frequencies --   1166.3723              1172.9785              1180.2884
 Red. masses --      1.5280                 1.4614                 1.7233
 Frc consts  --      1.2248                 1.1847                 1.4145
 IR Inten    --     22.2534                25.2406                32.5951

                     64                     65                     66
                      A                      A                      A
 Frequencies --   1193.7874              1198.9599              1226.9654
 Red. masses --      2.2116                 2.3024                 1.7636
 Frc consts  --      1.8570                 1.9500                 1.5643
 IR Inten    --     95.4914                51.6947                 6.7219

                     67                     68                     69
                      A                      A                      A
 Frequencies --   1247.1583              1258.1063              1295.0387
 Red. masses --      2.0804                 1.2015                 2.9249
 Frc consts  --      1.9065                 1.1204                 2.8902
 IR Inten    --      7.5260                 5.1664               152.6496

                     70                     71                     72
                      A                      A                      A
 Frequencies --   1307.8773              1313.7213              1347.9710
 Red. masses --      1.2038                 1.8251                 3.2541
 Frc consts  --      1.2133                 1.8558                 3.4837
 IR Inten    --      6.7902                55.9219                 7.5403

                     73                     74                     75
                      A                      A                      A
 Frequencies --   1369.2984              1372.1695              1377.9504
 Red. masses --      1.3162                 1.6709                 2.5753
 Frc consts  --      1.4541                 1.8536                 2.8810
 IR Inten    --      2.1258                 3.1490                 6.2881

                     76                     77                     78
                      A                      A                      A
 Frequencies --   1397.1870              1416.2900              1427.5499
 Red. masses --      1.7491                 1.4150                 1.2281
 Frc consts  --      2.0118                 1.6723                 1.4745
 IR Inten    --      7.3486                45.3708                 5.9290

                     79                     80                     81
                      A                      A                      A
 Frequencies --   1433.6862              1441.8200              1466.8604
 Red. masses --      1.2173                 1.2498                 2.7757
 Frc consts  --      1.4742                 1.5308                 3.5189
 IR Inten    --      4.3453                 0.0669                64.0510

                     82                     83                     84
                      A                      A                      A
 Frequencies --   1480.3303              1508.3046              1511.5707
 Red. masses --      1.1803                 1.0814                 1.0872
 Frc consts  --      1.5239                 1.4495                 1.4636
 IR Inten    --      1.3890                 5.8258                24.4467

                     85                     86                     87
                      A                      A                      A
 Frequencies --   1515.5179              1522.6971              1524.5761
 Red. masses --      1.0445                 1.0901                 1.0487
 Frc consts  --      1.4135                 1.4891                 1.4361
 IR Inten    --      5.6884                 3.0582                 2.1773

                     88                     89                     90
                      A                      A                      A
 Frequencies --   1525.6867              1530.8046              1535.3071
 Red. masses --      1.1121                 1.1433                 1.0993
 Frc consts  --      1.5252                 1.5785                 1.5266
 IR Inten    --     43.9568                 3.3454                 5.2828

                     91                     92                     93
                      A                      A                      A
 Frequencies --   1538.3746              1542.7338              1552.7373
 Red. masses --      1.1217                 1.1295                 1.0714
 Frc consts  --      1.5641                 1.5838                 1.5219
 IR Inten    --     24.5428                 8.6491                18.1959

                     94                     95                     96
                      A                      A                      A
 Frequencies --   1558.5078              1565.6489              1593.1346
 Red. masses --      2.4305                 5.1357                 7.6974
 Frc consts  --      3.4783                 7.4172                11.5107
 IR Inten    --     47.5685                10.1059                23.9496

                     97                     98                     99
                      A                      A                      A
 Frequencies --   1639.5959              1673.4582              2957.2812
 Red. masses --      5.7671                 6.2964                 1.0598
 Frc consts  --      9.1344                10.3890                 5.4607
 IR Inten    --     23.1517                53.8134                93.3061

                    100                    101                    102
                      A                      A                      A
 Frequencies --   3026.6270              3032.8745              3041.7239
 Red. masses --      1.0840                 1.0553                 1.0377
 Frc consts  --      5.8504                 5.7193                 5.6567
 IR Inten    --     35.7852                28.9602                43.6151

                    103                    104                    105
                      A                      A                      A
 Frequencies --   3049.6923              3058.1908              3060.3529
 Red. masses --      1.0361                 1.0353                 1.0732
 Frc consts  --      5.6774                 5.7047                 5.9219
 IR Inten    --     32.7916                28.4464                60.8728

                    106                    107                    108
                      A                      A                      A
 Frequencies --   3065.3780              3076.9669              3092.1916
 Red. masses --      1.0594                 1.1089                 1.1009
 Frc consts  --      5.8652                 6.1858                 6.2020
 IR Inten    --     17.1713                22.4204                22.5288

                    109                    110                    111
                      A                      A                      A
 Frequencies --   3104.9251              3105.8465              3109.3919
 Red. masses --      1.1043                 1.1019                 1.1015
 Frc consts  --      6.2725                 6.2624                 6.2744
 IR Inten    --      5.2524                41.3430                39.7265

                    112                    113                    114
                      A                      A                      A
 Frequencies --   3126.6489              3128.3507              3142.2151
 Red. masses --      1.1004                 1.1033                 1.1020
 Frc consts  --      6.3380                 6.3616                 6.4108
 IR Inten    --     19.0638                31.8635                 6.5532

                    115                    116                    117
                      A                      A                      A
 Frequencies --   3144.4541              3176.6049              3194.5281
 Red. masses --      1.1034                 1.0869                 1.0934
 Frc consts  --      6.4278                 6.4622                 6.5740
 IR Inten    --     20.3854                12.4932                39.0556

                    118                    119                    120
                      A                      A                      A
 Frequencies --   3198.7012              3277.0158              3532.1924
 Red. masses --      1.0900                 1.0949                 1.0734
 Frc consts  --      6.5711                 6.9276                 7.8902
 IR Inten    --      4.9281                 1.3176                12.0288

 - Thermochemistry -
 -------------------
 Temperature   298.150 Kelvin.  Pressure   1.00000 Atm.
 Atom     1 has atomic number  6 and mass  12.00000

 Molecular mass:   290.14529 amu.
 Principal axes and moments of inertia in atomic units:
                           1         2         3
     Eigenvalues --  3645.417279993.20484**********
           X            0.99951   0.03112   0.00277
           Y           -0.03112   0.99952   0.00091
           Z           -0.00274  -0.00100   1.00000
 This molecule is an asymmetric top.
 Rotational symmetry number  1.
 Warning -- assumption of classical behavior for rotation
           may cause significant error
 Rotational temperatures (Kelvin)      0.02376     0.00867     0.00707
 Rotational constants (GHZ):           0.49507     0.18060     0.14725
 Zero-point vibrational energy     936172.5 (Joules/Mol)
                                  223.75060 (Kcal/Mol)
 Warning -- explicit consideration of  33 degrees of freedom as
           vibrations may cause significant error
 Vibrational temperatures:     25.14    38.44    43.93    46.95    53.95
          (Kelvin)             94.07   118.62   133.67   148.21   166.31
                              228.86   252.85   300.29   305.17   328.90
                              346.19   366.06   401.19   409.50   447.42
                              474.15   483.43   494.73   546.18   578.26
                              660.99   704.92   763.89   797.92   803.18
                              841.40   870.38   890.89   905.13   978.63
                             1036.24  1054.49  1078.72  1099.33  1143.72
                             1166.30  1187.08  1194.58  1240.24  1246.89
                             1300.67  1359.76  1382.58  1387.40  1425.65
                             1453.30  1484.20  1498.13  1529.64  1545.77
                             1549.22  1551.39  1555.86  1589.31  1639.26
                             1678.15  1687.65  1698.17  1717.59  1725.04
                             1765.33  1794.38  1810.13  1863.27  1881.74
                             1890.15  1939.43  1970.11  1974.25  1982.56
                             2010.24  2037.73  2053.93  2062.75  2074.46
                             2110.48  2129.87  2170.11  2174.81  2180.49
                             2190.82  2193.53  2195.12  2202.49  2208.96
                             2213.38  2219.65  2234.04  2242.35  2252.62
                             2292.17  2359.01  2407.73  4254.87  4354.64
                             4363.63  4376.36  4387.83  4400.05  4403.17
                             4410.40  4427.07  4448.97  4467.29  4468.62
                             4473.72  4498.55  4501.00  4520.95  4524.17
                             4570.43  4596.21  4602.22  4714.89  5082.04

 Zero-point correction=                           0.356569 (Hartree/Particle)
 Thermal correction to Energy=                    0.377854
 Thermal correction to Enthalpy=                  0.378798
 Thermal correction to Gibbs Free Energy=         0.303120
 Sum of electronic and zero-point Energies=          -1205.584221
 Sum of electronic and thermal Energies=             -1205.562936
 Sum of electronic and thermal Enthalpies=           -1205.561992
 Sum of electronic and thermal Free Energies=        -1205.637670

                     E (Thermal)             CV                S
                      KCal/Mol        Cal/Mol-Kelvin    Cal/Mol-Kelvin
 Total                  237.107             78.260            159.277
 Electronic               0.000              0.000              0.000
 Translational            0.889              2.981             42.893
 Rotational               0.889              2.981             34.456
 Vibrational            235.329             72.298             81.927
 Vibration     1          0.593              1.986              6.903
 Vibration     2          0.593              1.984              6.059
 Vibration     3          0.594              1.984              5.795
 Vibration     4          0.594              1.983              5.663
 Vibration     5          0.594              1.982              5.387
 Vibration     6          0.597              1.971              4.288
 Vibration     7          0.600              1.961              3.832
 Vibration     8          0.602              1.954              3.598
 Vibration     9          0.605              1.947              3.397
 Vibration    10          0.608              1.936              3.173
 Vibration    11          0.621              1.892              2.561
 Vibration    12          0.628              1.872              2.373
 Vibration    13          0.642              1.827              2.055
 Vibration    14          0.643              1.822              2.026
 Vibration    15          0.651              1.797              1.890
 Vibration    16          0.658              1.778              1.798
 Vibration    17          0.665              1.755              1.700
 Vibration    18          0.679              1.713              1.541
 Vibration    19          0.683              1.702              1.506
 Vibration    20          0.700              1.653              1.357
 Vibration    21          0.712              1.616              1.262
 Vibration    22          0.717              1.604              1.231
 Vibration    23          0.723              1.588              1.194
 Vibration    24          0.750              1.514              1.041
 Vibration    25          0.768              1.466              0.956
 Vibration    26          0.817              1.340              0.768
 Vibration    27          0.846              1.272              0.684
 Vibration    28          0.886              1.182              0.585
 Vibration    29          0.910              1.130              0.535
 Vibration    30          0.914              1.122              0.527
 Vibration    31          0.942              1.064              0.477
 Vibration    32          0.963              1.021              0.441
 Vibration    33          0.979              0.991              0.418

 Optimization completed.
    -- Stationary point found.
 Normal termination of Gaussian 16 at Sun Dec 13 21:51:51 2020.

 ----------------------------------------------------------------------
 # B3LYP/6-311++G(d,p) empiricaldispersion=gd3bj scf=xqc pop=npa geom=c
 heck
 ----------------------------------------------------------------------

 ---------------------------------------
 CID_63639118_JID_10895_Energie_neutraal
 ---------------------------------------
 Structure from the checkpoint file:  "JID_10895.chk"
 Charge =  0 Multiplicity = 1

 SCF Done:  E(RB3LYP) =  -1206.18450145     A.U. after   16 cycles
 Normal termination of Gaussian 16 at Sun Dec 13 22:02:58 2020.

 ----------------------------------------------------------------------
 # B3LYP/6-311++G(d,p) empiricaldispersion=gd3bj scf=xqc pop=npa geom=c
 heck
 ----------------------------------------------------------------------

 -------------------------------------
 CID_63639118_JID_10895_Energie_kation
 -------------------------------------
 Structure from the checkpoint file:  "JID_10895.chk"
 Charge =  1 Multiplicity = 2

 SCF Done:  E(UB3LYP) =  -1205.90975788     A.U. after   30 cycles
 Normal termination of Gaussian 16 at Sun Dec 13 22:32:18 2020.
 Gaussian 16:  ES64L-G16RevA.03 25-Dec-2016

 ----------------------------------------------------------------------
 # B3LYP/6-311++G(d,p) empiricaldispersion=gd3bj scf=xqc pop=npa geom=c
 heck
 ----------------------------------------------------------------------

 ------------------------------------
 CID_63639118_JID_10895_Energie_anion
 ------------------------------------
 Structure from the checkpoint file:  "JID_10895.chk"
 Charge = -1 Multiplicity = 2

                         Standard orientation:
 ---------------------------------------------------------------------
 Center     Atomic      Atomic             Coordinates (Angstroms)
 Number     Number       Type             X           Y           Z
 ---------------------------------------------------------------------
      1          6           0        3.947659    1.841043    0.930544
      2          6           0        4.166229    0.395049    1.408266
      3          6           0        3.324608   -0.571165    0.628501
      4          7           0        2.040609   -0.705353    0.780247
      5          6           0        1.503810   -1.593363   -0.130288
      6          6           0        2.399139   -2.157241   -0.993724
      7         16           0        3.995508   -1.561972   -0.669458
      8          6           0        0.023783   -1.812378   -0.125186
      9          8           0       -0.572768   -0.562357   -0.461767
     10          6           0       -1.896699   -0.349638   -0.162423
     11          6           0       -2.286431    0.996500   -0.018239
     12          6           0       -3.630087    1.241054    0.252619
     13          6           0       -4.559327    0.206180    0.391845
     14          6           0       -4.161227   -1.122630    0.256691
     15          6           0       -2.813602   -1.389420   -0.026699
     16          6           0       -5.144018   -2.259426    0.398503
     17          6           0       -1.281295    2.136545   -0.078554
     18          6           0       -0.372004    2.121867    1.171574
     19          7           0       -0.574472    2.137574   -1.366138
     20          6           0        0.286008    3.290708   -1.581264
     21          1           0        4.237763    1.953733   -0.119539
     22          1           0        4.544080    2.537881    1.528827
     23          1           0        2.892456    2.114202    1.023523
     24          1           0        5.224060    0.122614    1.326343
     25          1           0        3.886157    0.308272    2.463897
     26          1           0        2.208669   -2.866826   -1.786624
     27          1           0       -0.253500   -2.588441   -0.850183
     28          1           0       -0.318819   -2.124154    0.869763
     29          1           0       -3.957375    2.271318    0.369531
     30          1           0       -5.598654    0.438296    0.608187
     31          1           0       -2.491407   -2.418553   -0.152549
     32          1           0       -5.214626   -2.845433   -0.526382
     33          1           0       -4.844193   -2.951125    1.195561
     34          1           0       -6.146120   -1.889801    0.635923
     35          1           0       -1.861960    3.069091   -0.055136
     36          1           0        0.252681    1.223915    1.190119
     37          1           0        0.282621    3.000751    1.186886
     38          1           0       -0.977545    2.143457    2.084897
     39          1           0       -0.033445    1.279622   -1.433974
     40          1           0        1.119352    3.406500   -0.864341
     41          1           0        0.717999    3.230661   -2.586370
     42          1           0       -0.316410    4.206786   -1.534655
 ---------------------------------------------------------------------

 SCF Done:  E(UB3LYP) =  -1206.17605969     A.U. after   33 cycles
 SCF Done:  E(UB3LYP) =  -1206.17605969     a.u. after    1 cycles

 The electronic state is 2-A.
 Alpha  occ. eigenvalues --  -88.76621 -19.05592 -14.19611 -14.19299 -10.13988
 Alpha  occ. eigenvalues --  -10.13715 -10.11570 -10.10776 -10.09996 -10.09302
 Alpha  occ. eigenvalues --  -10.09230 -10.08779 -10.08255 -10.08138 -10.08075
 Alpha  occ. eigenvalues --  -10.07935 -10.07761 -10.07573 -10.06217 -10.05329
 Alpha  occ. eigenvalues --   -7.85282  -5.81554  -5.81209  -5.80904  -0.97368
 Alpha  occ. eigenvalues --   -0.85338  -0.80796  -0.76598  -0.70292  -0.69209
 Alpha  occ. eigenvalues --   -0.68666  -0.66517  -0.64435  -0.63608  -0.59713
 Alpha  occ. eigenvalues --   -0.58060  -0.57129  -0.53443  -0.51196  -0.51032
 Alpha  occ. eigenvalues --   -0.48628  -0.47556  -0.43561  -0.42879  -0.40400
 Alpha  occ. eigenvalues --   -0.40059  -0.38236  -0.37423  -0.36181  -0.35504
 Alpha  occ. eigenvalues --   -0.35356  -0.34282  -0.33416  -0.33288  -0.33163
 Alpha  occ. eigenvalues --   -0.31835  -0.31322  -0.30229  -0.29982  -0.29591
 Alpha  occ. eigenvalues --   -0.29117  -0.28398  -0.27632  -0.27035  -0.26393
 Alpha  occ. eigenvalues --   -0.26301  -0.25829  -0.25055  -0.24951  -0.24497
 Alpha  occ. eigenvalues --   -0.23197  -0.21519  -0.17668  -0.16642  -0.15559
 Alpha  occ. eigenvalues --   -0.14012  -0.13182  -0.12566   0.04166
 Alpha virt. eigenvalues --    0.05373   0.06660   0.06920   0.07082   0.07418
 Alpha virt. eigenvalues --    0.07936   0.08461   0.08740   0.08951   0.09338
 Alpha virt. eigenvalues --    0.09755   0.10027   0.10307   0.10650   0.11154

  Beta  occ. eigenvalues --  -88.76588 -19.05588 -14.19572 -14.19298 -10.13984
  Beta  occ. eigenvalues --  -10.13706 -10.11309 -10.10774 -10.09998 -10.09293
  Beta  occ. eigenvalues --  -10.09223 -10.08604 -10.08253 -10.08119 -10.08048
  Beta  occ. eigenvalues --  -10.07945 -10.07743 -10.07569 -10.06164 -10.05326
  Beta  occ. eigenvalues --   -7.85251  -5.81542  -5.81197  -5.80788  -0.97356
  Beta  occ. eigenvalues --   -0.85133  -0.80791  -0.76574  -0.70192  -0.69097
  Beta  occ. eigenvalues --   -0.68458  -0.66472  -0.64415  -0.63551  -0.59637
  Beta  occ. eigenvalues --   -0.57931  -0.57112  -0.53323  -0.51110  -0.51005
  Beta  occ. eigenvalues --   -0.48602  -0.47381  -0.43488  -0.42747  -0.40371
  Beta  occ. eigenvalues --   -0.40017  -0.38136  -0.37358  -0.36163  -0.35442
  Beta  occ. eigenvalues --   -0.35339  -0.34238  -0.33380  -0.33171  -0.33016
  Beta  occ. eigenvalues --   -0.31792  -0.31210  -0.30078  -0.29818  -0.29512
  Beta  occ. eigenvalues --   -0.29103  -0.28367  -0.27575  -0.26871  -0.26350
  Beta  occ. eigenvalues --   -0.26189  -0.25725  -0.24974  -0.24883  -0.24473
  Beta  occ. eigenvalues --   -0.23154  -0.21494  -0.17089  -0.16527  -0.15463
  Beta  occ. eigenvalues --   -0.13304  -0.12964  -0.12557
  Beta virt. eigenvalues --    0.05918   0.06568   0.06938   0.07309   0.07443
  Beta virt. eigenvalues --    0.07911   0.08438   0.08568   0.09011   0.09218
  Beta virt. eigenvalues --    0.09529   0.09822   0.10189   0.10306   0.10801

 Mulliken charges and spin densities:
               1          2
     1  C    0.067443  -0.458723
     2  C    0.140943  -0.165285
     3  C    0.312084   0.096009
     4  N    0.152566   0.027058
     5  C   -0.969968  -0.517533
     6  C    0.397608   0.517931
     7  S   -0.324510  -0.195191
     8  C   -0.168211  -0.207037
     9  O    0.001073   0.009656
    10  C   -0.843367   0.513914
    11  C    0.669724   0.079905
    12  C   -0.184848  -0.303391
    13  C   -0.505936  -0.615929
    14  C   -0.479752   0.931925
    15  C   -0.310974   0.425649
    16  C    1.252840  -1.764314
    17  C    0.218498   0.059382
    18  C   -0.683692  -0.149394
    19  N   -0.141000   0.011330
    20  C   -0.161289  -0.187056
    21  H    0.057873   0.055809
    22  H   -0.514455   0.661176
    23  H    0.340484  -0.192186
    24  H   -0.148565   0.289043
    25  H   -0.076814   0.251683
    26  H    0.053002   0.195825
    27  H   -0.011353   0.152579
    28  H    0.132788   0.045528
    29  H    0.087479   0.041470
    30  H   -0.060470   0.177547
    31  H    0.090328   0.055863
    32  H   -0.195266   0.359652
    33  H    0.010299   0.144780
    34  H   -0.260266   0.409718
    35  H    0.139101   0.012419
    36  H    0.318676  -0.088705
    37  H    0.019457   0.100469
    38  H    0.095986   0.031289
    39  H    0.263170   0.007742
    40  H    0.038186   0.104917
    41  H    0.094878   0.038796
    42  H    0.086249   0.035680
 Sum of Mulliken charges =  -1.00000   1.00000

 Dipole moment (field-independent basis, Debye):
    X=             -1.5086    Y=              0.1751    Z=             -1.4227  Tot=              2.0810
 Quadrupole moment (field-independent basis, Debye-Ang):
   XX=           -232.7104   YY=           -166.8564   ZZ=           -160.4486
   XY=            -19.7811   XZ=            -14.3684   YZ=             -3.5554

 Summary of Natural Population Analysis:

                                       Natural Population
                Natural  -----------------------------------------------
    Atom  No    Charge         Core      Valence    Rydberg      Total
 -----------------------------------------------------------------------
      C    1   -0.27813      0.99966     2.27259    0.00588     3.27813
      C    2   -0.21611      0.99958     2.20596    0.01057     3.21611
      C    3    0.09016      0.99960     1.89180    0.01843     2.90984
      N    4   -0.25055      0.99962     2.73964    0.01129     3.75055
      C    5    0.04449      0.99947     1.94280    0.01324     2.95551
      C    6   -0.17581      0.99946     2.16690    0.00945     3.17581
      S    7    0.18181      4.99943     2.79921    0.01955     7.81819
      C    8   -0.01981      0.99951     2.00786    0.01245     3.01981
      O    9   -0.28440      0.99985     3.27453    0.01001     4.28440
      C   10    0.17231      0.99933     1.81668    0.01168     2.82769
      C   11   -0.03202      0.99945     2.02056    0.01201     3.03202
      C   12   -0.08569      0.99953     2.07794    0.00823     3.08569
      C   13   -0.11795      0.99951     2.10873    0.00970     3.11795
      C   14   -0.00979      0.99953     2.00158    0.00868     3.00979
      C   15   -0.13589      0.99947     2.12834    0.00808     3.13589
      C   16   -0.29299      0.99964     2.28777    0.00558     3.29299
      C   17   -0.01082      0.99958     1.99843    0.01282     3.01082
      C   18   -0.30065      0.99964     2.29600    0.00501     3.30065
      N   19   -0.34265      0.99974     2.83205    0.01087     3.84265
      C   20   -0.17921      0.99967     2.17253    0.00701     3.17921
      H   21    0.09524      0.00000     0.40373    0.00103     0.40476
      H   22    0.09875      0.00000     0.39900    0.00225     0.40125
      H   23    0.10221      0.00000     0.39635    0.00145     0.39779
      H   24    0.10083      0.00000     0.39795    0.00123     0.39917
      H   25    0.10979      0.00000     0.38860    0.00160     0.39021
      H   26    0.10709      0.00000     0.39177    0.00114     0.39291
      H   27    0.08788      0.00000     0.41091    0.00121     0.41212
      H   28    0.09321      0.00000     0.40540    0.00139     0.40679
      H   29    0.09718      0.00000     0.40189    0.00093     0.40282
      H   30    0.09797      0.00000     0.40118    0.00084     0.40203
      H   31    0.10285      0.00000     0.39572    0.00143     0.39715
      H   32    0.10541      0.00000     0.39331    0.00128     0.39459
      H   33    0.10275      0.00000     0.39637    0.00088     0.39725
      H   34    0.10155      0.00000     0.39749    0.00095     0.39845
      H   35    0.08749      0.00000     0.41040    0.00211     0.41251
      H   36    0.11668      0.00000     0.38163    0.00169     0.38332
      H   37    0.09536      0.00000     0.40371    0.00093     0.40464
      H   38    0.09726      0.00000     0.40194    0.00080     0.40274
      H   39    0.18459      0.00000     0.31210    0.00331     0.31541
      H   40    0.08051      0.00000     0.41799    0.00149     0.41949
      H   41    0.09297      0.00000     0.40614    0.00089     0.40703
      H   42    0.08612      0.00000     0.41289    0.00100     0.41388
 =======================================================================
   * Total *   -0.00000     23.99125    53.76834    0.24040    78.00000

 Normal termination of Gaussian 16 at Sun Dec 13 23:05:56 2020.
