 Gaussian 16, Revision A.03,

 -----------------------------------------------------------
 # opt freq B3LYP/6-31G(d) empiricaldispersion=gd3bj scf=xqc
 -----------------------------------------------------------

 ------------------------------
 CID_79501143_JID_3773_neutraal
 ------------------------------
 Symbolic Z-matrix:
 Charge =  0 Multiplicity = 1

 SCF Done:  E(RB3LYP) =  -910.835909922     A.U. after   16 cycles
 SCF Done:  E(RB3LYP) =  -910.839507134     A.U. after   13 cycles
 SCF Done:  E(RB3LYP) =  -910.839947047     A.U. after   12 cycles
 SCF Done:  E(RB3LYP) =  -910.840073021     A.U. after   12 cycles
 SCF Done:  E(RB3LYP) =  -910.840160609     A.U. after   11 cycles
 SCF Done:  E(RB3LYP) =  -910.840177504     A.U. after   11 cycles
 SCF Done:  E(RB3LYP) =  -910.840184524     A.U. after   10 cycles
 SCF Done:  E(RB3LYP) =  -910.840188367     A.U. after   10 cycles
 SCF Done:  E(RB3LYP) =  -910.840189459     A.U. after    9 cycles
 SCF Done:  E(RB3LYP) =  -910.840190618     A.U. after   10 cycles
 SCF Done:  E(RB3LYP) =  -910.840193930     A.U. after   11 cycles
 SCF Done:  E(RB3LYP) =  -910.840195376     A.U. after   11 cycles
 SCF Done:  E(RB3LYP) =  -910.840196352     A.U. after   11 cycles
 SCF Done:  E(RB3LYP) =  -910.840196729     A.U. after    9 cycles
 SCF Done:  E(RB3LYP) =  -910.840196787     A.U. after    8 cycles
 Optimization completed.
    -- Stationary point found.
 Normal termination of Gaussian 16 at Sun Dec 13 16:02:40 2020.

 --------------------------------------------------------------------
 #N Geom=AllCheck Guess=TCheck SCRF=Check GenChk RB3LYP/6-31G(d) Freq
 --------------------------------------------------------------------

 Structure from the checkpoint file:  "JID_3773.chk"
 ------------------------------
 CID_79501143_JID_3773_neutraal
 ------------------------------
 Charge =  0 Multiplicity = 1

 SCF Done:  E(RB3LYP) =  -910.840196787     A.U. after    1 cycles

  Exact polarizability: 153.614  -8.639 110.886  21.344   9.178  95.999
 Approx polarizability: 227.182 -10.111 197.121  48.293  13.441 177.849

                      1                      2                      3
                      A                      A                      A
 Frequencies --     15.6623                40.1569                58.4907
 Red. masses --      6.8987                 5.1910                 4.8007
 Frc consts  --      0.0010                 0.0049                 0.0097
 IR Inten    --      0.8576                 0.4220                 0.2947

                      4                      5                      6
                      A                      A                      A
 Frequencies --    168.5926               187.7720               249.0768
 Red. masses --      5.2846                 5.6914                 5.0073
 Frc consts  --      0.0885                 0.1182                 0.1830
 IR Inten    --      1.7072                 0.5511                 0.0764

                      7                      8                      9
                      A                      A                      A
 Frequencies --    282.3325               336.6874               418.7842
 Red. masses --      2.5438                 2.8158                 3.1454
 Frc consts  --      0.1195                 0.1881                 0.3250
 IR Inten    --      3.0961                 9.0051                 0.2721

                     10                     11                     12
                      A                      A                      A
 Frequencies --    435.0134               504.3967               519.5234
 Red. masses --      1.9225                 4.3596                 8.6329
 Frc consts  --      0.2144                 0.6535                 1.3728
 IR Inten    --    114.1617                 8.2010                17.8743

                     13                     14                     15
                      A                      A                      A
 Frequencies --    528.7022               586.4728               635.1463
 Red. masses --      3.2294                 2.5941                 6.3844
 Frc consts  --      0.5319                 0.5257                 1.5175
 IR Inten    --      6.7006                35.8749                 0.5231

                     16                     17                     18
                      A                      A                      A
 Frequencies --    654.0775               674.1105               706.0392
 Red. masses --      3.5558                 5.7033                 2.2451
 Frc consts  --      0.8963                 1.5270                 0.6594
 IR Inten    --      4.8800                 8.3319                14.1950

                     19                     20                     21
                      A                      A                      A
 Frequencies --    717.2289               763.3839               765.5352
 Red. masses --      5.0936                 2.4858                 3.8922
 Frc consts  --      1.5438                 0.8535                 1.3439
 IR Inten    --      5.1531                86.9809                 0.3065

                     22                     23                     24
                      A                      A                      A
 Frequencies --    805.7293               815.3436               824.1826
 Red. masses --      7.2510                 4.7460                 1.2716
 Frc consts  --      2.7735                 1.8589                 0.5089
 IR Inten    --     12.4716                20.3927                 0.5142

                     25                     26                     27
                      A                      A                      A
 Frequencies --    877.9171               888.8644               949.9642
 Red. masses --      1.4744                 1.3563                 1.3218
 Frc consts  --      0.6695                 0.6313                 0.7028
 IR Inten    --      9.9720                 9.8222                 0.0854

                     28                     29                     30
                      A                      A                      A
 Frequencies --    978.9622               986.3511              1012.8099
 Red. masses --      1.2284                 5.2428                 4.4850
 Frc consts  --      0.6936                 3.0052                 2.7106
 IR Inten    --      0.5233                 6.2825                 2.2434

                     31                     32                     33
                      A                      A                      A
 Frequencies --   1013.7933              1061.4091              1114.7820
 Red. masses --      2.3732                 2.2186                 1.9122
 Frc consts  --      1.4371                 1.4726                 1.4001
 IR Inten    --      3.0744                 0.8975                 6.5148

                     34                     35                     36
                      A                      A                      A
 Frequencies --   1147.3077              1193.3509              1219.4592
 Red. masses --      2.2982                 1.0849                 1.1356
 Frc consts  --      1.7824                 0.9103                 0.9950
 IR Inten    --     16.4470                 2.0915                 7.5670

                     37                     38                     39
                      A                      A                      A
 Frequencies --   1228.3974              1274.1781              1309.5481
 Red. masses --      1.6433                 1.2386                 2.5111
 Frc consts  --      1.4610                 1.1848                 2.5372
 IR Inten    --      4.5873                 3.0679                86.5875

                     40                     41                     42
                      A                      A                      A
 Frequencies --   1351.9510              1374.1798              1376.9258
 Red. masses --      2.0692                 2.2288                 2.3675
 Frc consts  --      2.2283                 2.4797                 2.6446
 IR Inten    --     19.8497                23.2402                13.1748

                     43                     44                     45
                      A                      A                      A
 Frequencies --   1380.5081              1421.1378              1482.9631
 Red. masses --      4.3753                 2.0314                 1.7152
 Frc consts  --      4.9129                 2.4172                 2.2224
 IR Inten    --      5.4249                38.6405                 9.3984

                     46                     47                     48
                      A                      A                      A
 Frequencies --   1508.9756              1546.5593              1556.7152
 Red. masses --      1.1267                 1.8447                 6.3390
 Frc consts  --      1.5115                 2.5996                 9.0508
 IR Inten    --     13.0914                 4.3678                 3.0507

                     49                     50                     51
                      A                      A                      A
 Frequencies --   1561.7332              1649.4072              1671.9400
 Red. masses --      2.2447                 4.8281                 5.6218
 Frc consts  --      3.2256                 7.7390                 9.2591
 IR Inten    --    120.8668                 6.1408               107.7228

                     52                     53                     54
                      A                      A                      A
 Frequencies --   3067.2561              3103.8144              3168.2727
 Red. masses --      1.0609                 1.1041                 1.0875
 Frc consts  --      5.8804                 6.2670                 6.4318
 IR Inten    --     25.0389                 8.3844                14.5593

                     55                     56                     57
                      A                      A                      A
 Frequencies --   3187.2601              3194.9907              3212.3608
 Red. masses --      1.0864                 1.0917                 1.0939
 Frc consts  --      6.5025                 6.5659                 6.6509
 IR Inten    --      1.2231                26.0789                33.7173

                     58                     59                     60
                      A                      A                      A
 Frequencies --   3220.1985              3242.9865              3599.9069
 Red. masses --      1.0944                 1.0938                 1.0761
 Frc consts  --      6.6861                 6.7776                 8.2164
 IR Inten    --      6.4877                 1.8636                12.0850

 - Thermochemistry -
 -------------------
 Temperature   298.150 Kelvin.  Pressure   1.00000 Atm.
 Atom     1 has atomic number  6 and mass  12.00000

 Molecular mass:   191.05172 amu.
 Principal axes and moments of inertia in atomic units:
                           1         2         3
     Eigenvalues --  1152.583074519.269274897.54852
           X            0.99988  -0.01454   0.00480
           Y            0.01433   0.99904   0.04146
           Z           -0.00540  -0.04139   0.99913
 This molecule is an asymmetric top.
 Rotational symmetry number  1.
 Warning -- assumption of classical behavior for rotation
           may cause significant error
 Rotational temperatures (Kelvin)      0.07515     0.01917     0.01769
 Rotational constants (GHZ):           1.56582     0.39934     0.36850
 Zero-point vibrational energy     447580.3 (Joules/Mol)
                                  106.97425 (Kcal/Mol)
 Warning -- explicit consideration of  14 degrees of freedom as
           vibrations may cause significant error
 Vibrational temperatures:     22.53    57.78    84.16   242.57   270.16
          (Kelvin)            358.37   406.21   484.42   602.54   625.89
                              725.71   747.48   760.68   843.80   913.83
                              941.07   969.89  1015.83  1031.93  1098.34
                             1101.43  1159.26  1173.10  1185.81  1263.13
                             1278.88  1366.79  1408.51  1419.14  1457.21
                             1458.62  1527.13  1603.92  1650.72  1716.97
                             1754.53  1767.39  1833.26  1884.15  1945.16
                             1977.14  1981.09  1986.24  2044.70  2133.65
                             2171.08  2225.15  2239.77  2246.99  2373.13
                             2405.55  4413.10  4465.70  4558.44  4585.76
                             4596.88  4621.87  4633.15  4665.93  5179.46

 Zero-point correction=                           0.170474 (Hartree/Particle)
 Thermal correction to Energy=                    0.181292
 Thermal correction to Enthalpy=                  0.182237
 Thermal correction to Gibbs Free Energy=         0.131189
 Sum of electronic and zero-point Energies=           -910.669722
 Sum of electronic and thermal Energies=              -910.658904
 Sum of electronic and thermal Enthalpies=            -910.657960
 Sum of electronic and thermal Free Energies=         -910.709008

                     E (Thermal)             CV                S
                      KCal/Mol        Cal/Mol-Kelvin    Cal/Mol-Kelvin
 Total                  113.763             41.611            107.438
 Electronic               0.000              0.000              0.000
 Translational            0.889              2.981             41.648
 Rotational               0.889              2.981             31.612
 Vibrational            111.985             35.649             34.179
 Vibration     1          0.593              1.986              7.120
 Vibration     2          0.594              1.981              5.251
 Vibration     3          0.596              1.974              4.507
 Vibration     4          0.625              1.881              2.451
 Vibration     5          0.632              1.857              2.250
 Vibration     6          0.662              1.764              1.737
 Vibration     7          0.681              1.706              1.519
 Vibration     8          0.717              1.602              1.228
 Vibration     9          0.782              1.429              0.896
 Vibration    10          0.796              1.394              0.842
 Vibration    11          0.860              1.240              0.647
 Vibration    12          0.875              1.207              0.611
 Vibration    13          0.884              1.186              0.590
 Vibration    14          0.944              1.061              0.474

                           ! Non-Optimized Parameters !
 Normal termination of Gaussian 16 at Sun Dec 13 16:08:01 2020.

 ----------------------------------------------------------------------
 # B3LYP/6-311++G(d,p) empiricaldispersion=gd3bj scf=xqc pop=npa geom=c
 heck
 ----------------------------------------------------------------------

 --------------------------------------
 CID_79501143_JID_3773_Energie_neutraal
 --------------------------------------
 Structure from the checkpoint file:  "JID_3773.chk"
 Charge =  0 Multiplicity = 1

 SCF Done:  E(RB3LYP) =  -911.004053588     A.U. after   16 cycles
 Normal termination of Gaussian 16 at Sun Dec 13 16:10:23 2020.

 ----------------------------------------------------------------------
 # B3LYP/6-311++G(d,p) empiricaldispersion=gd3bj scf=xqc pop=npa geom=c
 heck
 ----------------------------------------------------------------------

 ------------------------------------
 CID_79501143_JID_3773_Energie_kation
 ------------------------------------
 Structure from the checkpoint file:  "JID_3773.chk"
 Charge =  1 Multiplicity = 2

 SCF Done:  E(UB3LYP) =  -910.719402269     A.U. after   24 cycles
 Normal termination of Gaussian 16 at Sun Dec 13 16:15:24 2020.
 Gaussian 16:  ES64L-G16RevA.03 25-Dec-2016

 ----------------------------------------------------------------------
 # B3LYP/6-311++G(d,p) empiricaldispersion=gd3bj scf=xqc pop=npa geom=c
 heck
 ----------------------------------------------------------------------

 -----------------------------------
 CID_79501143_JID_3773_Energie_anion
 -----------------------------------
 Structure from the checkpoint file:  "JID_3773.chk"
 Charge = -1 Multiplicity = 2

                         Standard orientation:
 ---------------------------------------------------------------------
 Center     Atomic      Atomic             Coordinates (Angstroms)
 Number     Number       Type             X           Y           Z
 ---------------------------------------------------------------------
      1          6           0        3.465625   -1.362234   -0.209510
      2          6           0        2.400844   -1.280832   -1.105323
      3          6           0        1.467877   -0.247599   -1.022891
      4          6           0        1.594804    0.739158   -0.030554
      5          6           0        2.668645    0.652046    0.873872
      6          6           0        3.589642   -0.385353    0.781676
      7          7           0        0.704626    1.810090    0.068238
      8          6           0       -0.589498    1.788105   -0.577488
      9          6           0       -1.511964    0.667834   -0.134244
     10          7           0       -2.611707    0.403755   -0.813668
     11         16           0       -3.386357   -0.849259   -0.034885
     12          7           0       -2.286653   -1.063788    1.197934
     13          6           0       -1.329753   -0.177791    1.013360
     14          1           0        4.184020   -2.173026   -0.277698
     15          1           0        2.283050   -2.033908   -1.879699
     16          1           0        0.644032   -0.215946   -1.727119
     17          1           0        2.777284    1.411549    1.645416
     18          1           0        4.410305   -0.430721    1.492469
     19          1           0        0.727065    2.287888    0.958828
     20          1           0       -1.075024    2.749940   -0.381189
     21          1           0       -0.465732    1.730388   -1.664462
     22          1           0       -0.484480   -0.148431    1.690696
 ---------------------------------------------------------------------

 SCF Done:  E(UB3LYP) =  -911.009203656     A.U. after   33 cycles
 SCF Done:  E(UB3LYP) =  -911.009203656     a.u. after    1 cycles

 The electronic state is 2-A.
 Alpha  occ. eigenvalues --  -88.74280 -14.20966 -14.15934 -14.15813 -10.10157
 Alpha  occ. eigenvalues --  -10.08936 -10.06343 -10.05963 -10.05786 -10.05493
 Alpha  occ. eigenvalues --  -10.05463 -10.05378 -10.04805  -7.82636  -5.79101
 Alpha  occ. eigenvalues --   -5.78546  -5.78157  -0.84166  -0.82219  -0.73287
 Alpha  occ. eigenvalues --   -0.71653  -0.64174  -0.63294  -0.60556  -0.55438
 Alpha  occ. eigenvalues --   -0.50168  -0.48010  -0.44745  -0.42504  -0.41532
 Alpha  occ. eigenvalues --   -0.38550  -0.36274  -0.33854  -0.33357  -0.31265
 Alpha  occ. eigenvalues --   -0.30857  -0.29547  -0.28623  -0.26587  -0.25845
 Alpha  occ. eigenvalues --   -0.24971  -0.23224  -0.22046  -0.19279  -0.15979
 Alpha  occ. eigenvalues --   -0.15433  -0.14504  -0.13027  -0.10948  -0.09153
 Alpha  occ. eigenvalues --    0.05029
 Alpha virt. eigenvalues --    0.07231   0.08136   0.09213   0.09613   0.10287
 Alpha virt. eigenvalues --    0.10587   0.11152   0.12331   0.12842   0.13650
 Alpha virt. eigenvalues --    0.13866   0.14058   0.15248   0.15660   0.16322

  Beta  occ. eigenvalues --  -88.74207 -14.20949 -14.15408 -14.15220 -10.10164
  Beta  occ. eigenvalues --  -10.08939 -10.06310 -10.05885 -10.05758 -10.05501
  Beta  occ. eigenvalues --  -10.05397 -10.05387 -10.04792  -7.82571  -5.79072
  Beta  occ. eigenvalues --   -5.78520  -5.77904  -0.83608  -0.82086  -0.73188
  Beta  occ. eigenvalues --   -0.70732  -0.64017  -0.63208  -0.60327  -0.55273
  Beta  occ. eigenvalues --   -0.50028  -0.47957  -0.44047  -0.42402  -0.41305
  Beta  occ. eigenvalues --   -0.38486  -0.36191  -0.33698  -0.33270  -0.31180
  Beta  occ. eigenvalues --   -0.30784  -0.29211  -0.28320  -0.26404  -0.25129
  Beta  occ. eigenvalues --   -0.24445  -0.23173  -0.21532  -0.18996  -0.15522
  Beta  occ. eigenvalues --   -0.14152  -0.12648  -0.12330  -0.09873  -0.08971
  Beta virt. eigenvalues --    0.07364   0.08384   0.09195   0.09592   0.10376
  Beta virt. eigenvalues --    0.10595   0.11096   0.12002   0.12457   0.12921
  Beta virt. eigenvalues --    0.13695   0.13987   0.14205   0.15248   0.15608

 Mulliken charges and spin densities:
               1          2
     1  C   -0.342929  -0.079476
     2  C   -0.247378   0.165137
     3  C    0.379787  -0.104690
     4  C   -0.072881  -0.202785
     5  C   -0.258105   0.152853
     6  C   -0.014867  -0.185833
     7  N   -0.030625  -0.007872
     8  C   -0.505042  -0.357165
     9  C    0.022095   0.045745
    10  N   -0.137448   0.224097
    11  S    0.226036   0.203027
    12  N   -0.179190   0.223668
    13  C   -0.448154   0.084935
    14  H    0.098655   0.006848
    15  H    0.130656   0.012325
    16  H    0.187896  -0.023388
    17  H   -0.232933   0.350093
    18  H    0.046752   0.089971
    19  H    0.078937   0.178168
    20  H    0.177902  -0.018341
    21  H    0.085378   0.100503
    22  H    0.035460   0.142180
 Sum of Mulliken charges =  -1.00000   1.00000

 Dipole moment (field-independent basis, Debye):
    X=              4.1527    Y=              0.9419    Z=             -1.6407  Tot=              4.5633
 Quadrupole moment (field-independent basis, Debye-Ang):
   XX=           -131.9351   YY=            -97.9947   ZZ=           -101.4044
   XY=             -5.9048   XZ=              1.3887   YZ=              3.3768

 Summary of Natural Population Analysis:

                                       Natural Population
                Natural  -----------------------------------------------
    Atom  No    Charge         Core      Valence    Rydberg      Total
 -----------------------------------------------------------------------
      C    1   -0.13448      0.99957     2.12523    0.00968     3.13448
      C    2   -0.07897      0.99958     2.07108    0.00831     3.07897
      C    3   -0.13196      0.99952     2.12413    0.00831     3.13196
      C    4    0.09169      0.99949     1.89732    0.01150     2.90831
      C    5   -0.11720      0.99953     2.10786    0.00982     3.11720
      C    6   -0.09426      0.99957     2.08362    0.01106     3.09426
      N    7   -0.31102      0.99968     2.80074    0.01060     3.81102
      C    8   -0.09871      0.99958     2.08509    0.01403     3.09871
      C    9    0.05330      0.99957     1.93034    0.01680     2.94670
      N   10   -0.25447      0.99968     2.74306    0.01173     3.75447
      S   11    0.36624      4.99953     2.59925    0.03497     7.63376
      N   12   -0.23305      0.99974     2.71979    0.01352     3.73305
      C   13   -0.02704      0.99957     2.00985    0.01762     3.02704
      H   14    0.09498      0.00000     0.40422    0.00079     0.40502
      H   15    0.09461      0.00000     0.40456    0.00083     0.40539
      H   16    0.10707      0.00000     0.39158    0.00135     0.39293
      H   17    0.09561      0.00000     0.40276    0.00163     0.40439
      H   18    0.09507      0.00000     0.40416    0.00077     0.40493
      H   19    0.18547      0.00000     0.31184    0.00269     0.31453
      H   20    0.10124      0.00000     0.39751    0.00125     0.39876
      H   21    0.09897      0.00000     0.39950    0.00154     0.40103
      H   22    0.09689      0.00000     0.40099    0.00212     0.40311
 =======================================================================
   * Total *   -0.00000     16.99462    32.81447    0.19091    50.00000

 Normal termination of Gaussian 16 at Sun Dec 13 16:22:20 2020.
