 Gaussian 16, Revision A.03,

 -----------------------------------------------------------
 # opt freq B3LYP/6-31G(d) empiricaldispersion=gd3bj scf=xqc
 -----------------------------------------------------------

 -------------------------------
 CID_106371944_JID_6708_neutraal
 -------------------------------
 Symbolic Z-matrix:
 Charge =  0 Multiplicity = 1

 SCF Done:  E(RB3LYP) =  -745.359971840     A.U. after   15 cycles
 SCF Done:  E(RB3LYP) =  -745.364075291     A.U. after   13 cycles
 SCF Done:  E(RB3LYP) =  -745.363479545     A.U. after   13 cycles
 SCF Done:  E(RB3LYP) =  -745.361560305     A.U. after   13 cycles
 SCF Done:  E(RB3LYP) =  -745.360626390     A.U. after   12 cycles
 SCF Done:  E(RB3LYP) =  -745.364429249     A.U. after   10 cycles
 SCF Done:  E(RB3LYP) =  -745.365734689     A.U. after   12 cycles
 SCF Done:  E(RB3LYP) =  -745.366010551     A.U. after   11 cycles
 SCF Done:  E(RB3LYP) =  -745.366294933     A.U. after   11 cycles
 SCF Done:  E(RB3LYP) =  -745.366293834     A.U. after   11 cycles
 SCF Done:  E(RB3LYP) =  -745.366631010     A.U. after    8 cycles
 SCF Done:  E(RB3LYP) =  -745.366631675     A.U. after    8 cycles
 SCF Done:  E(RB3LYP) =  -745.366631952     A.U. after    7 cycles
 SCF Done:  E(RB3LYP) =  -745.366632033     A.U. after    7 cycles
 SCF Done:  E(RB3LYP) =  -745.366632109     A.U. after    7 cycles
 SCF Done:  E(RB3LYP) =  -745.366632165     A.U. after    7 cycles
 Optimization completed.
    -- Stationary point found.
 Normal termination of Gaussian 16 at Fri Dec 11 00:28:32 2020.

 --------------------------------------------------------------------
 #N Geom=AllCheck Guess=TCheck SCRF=Check GenChk RB3LYP/6-31G(d) Freq
 --------------------------------------------------------------------

 Structure from the checkpoint file:  "JID_6708.chk"
 -------------------------------
 CID_106371944_JID_6708_neutraal
 -------------------------------
 Charge =  0 Multiplicity = 1

 SCF Done:  E(RB3LYP) =  -745.366632165     A.U. after    1 cycles

  Exact polarizability: 144.668  -4.607 151.961  -8.307  -6.060 108.342
 Approx polarizability: 193.324  -9.703 219.319 -18.569 -18.055 173.781

                      1                      2                      3
                      A                      A                      A
 Frequencies --     25.0122                33.5308                56.2165
 Red. masses --      4.3132                 4.0700                 4.2789
 Frc consts  --      0.0016                 0.0027                 0.0080
 IR Inten    --      0.3157                 0.2224                 0.9742

                      4                      5                      6
                      A                      A                      A
 Frequencies --     58.8749                71.6938                85.6792
 Red. masses --      4.0313                 3.3883                 3.7657
 Frc consts  --      0.0082                 0.0103                 0.0163
 IR Inten    --      0.8390                 0.7540                 0.6052

                      7                      8                      9
                      A                      A                      A
 Frequencies --    106.4844               137.4059               150.9720
 Red. masses --      2.0644                 3.9126                 1.0751
 Frc consts  --      0.0138                 0.0435                 0.0144
 IR Inten    --      0.2910                 0.2718                 0.1163

                     10                     11                     12
                      A                      A                      A
 Frequencies --    188.7907               216.6015               219.7419
 Red. masses --      4.7532                 3.3890                 2.2477
 Frc consts  --      0.0998                 0.0937                 0.0639
 IR Inten    --      2.6862                 0.3328                 0.2166

                     13                     14                     15
                      A                      A                      A
 Frequencies --    251.7078               273.7030               280.5917
 Red. masses --      1.4111                 2.6250                 1.7861
 Frc consts  --      0.0527                 0.1159                 0.0829
 IR Inten    --      0.7549                 1.1651                 2.8013

                     16                     17                     18
                      A                      A                      A
 Frequencies --    294.4487               301.7436               350.9614
 Red. masses --      1.4224                 3.7635                 2.2685
 Frc consts  --      0.0727                 0.2019                 0.1646
 IR Inten    --      0.9033                 0.2504                 0.8467

                     19                     20                     21
                      A                      A                      A
 Frequencies --    382.8865               390.6947               456.1665
 Red. masses --      2.4471                 2.7068                 2.6713
 Frc consts  --      0.2114                 0.2434                 0.3275
 IR Inten    --      1.0648                 4.1497                10.0112

                     22                     23                     24
                      A                      A                      A
 Frequencies --    497.1293               545.9593               608.4511
 Red. masses --      3.9504                 3.6819                 2.1601
 Frc consts  --      0.5752                 0.6466                 0.4712
 IR Inten    --     18.8959                 1.7817                 8.1654

                     25                     26                     27
                      A                      A                      A
 Frequencies --    611.1778               636.0142               652.4823
 Red. masses --      2.1873                 3.6172                 2.0689
 Frc consts  --      0.4814                 0.8621                 0.5189
 IR Inten    --     45.6161                 4.6053                 0.8431

                     28                     29                     30
                      A                      A                      A
 Frequencies --    664.1477               692.3078               743.5047
 Red. masses --      2.1830                 4.6920                 1.7904
 Frc consts  --      0.5673                 1.3250                 0.5831
 IR Inten    --    115.1169                 3.9637                 9.1835

                     31                     32                     33
                      A                      A                      A
 Frequencies --    758.0030               786.2380               809.4114
 Red. masses --      3.7346                 3.9703                 1.6116
 Frc consts  --      1.2643                 1.4460                 0.6221
 IR Inten    --     58.0209                26.9057                24.5783

                     34                     35                     36
                      A                      A                      A
 Frequencies --    844.1667               881.2992               886.6778
 Red. masses --      1.3101                 1.9236                 2.5905
 Frc consts  --      0.5501                 0.8803                 1.1999
 IR Inten    --     13.6221                 2.1145                 2.9257

                     37                     38                     39
                      A                      A                      A
 Frequencies --    916.6351               953.3713               978.5235
 Red. masses --      1.4186                 3.0984                 2.9877
 Frc consts  --      0.7023                 1.6592                 1.6855
 IR Inten    --      8.1376                 4.4725                 4.1970

                     40                     41                     42
                      A                      A                      A
 Frequencies --    996.9605              1025.8121              1042.8234
 Red. masses --      3.0849                 1.5378                 2.1829
 Frc consts  --      1.8065                 0.9534                 1.3987
 IR Inten    --     26.2449                 6.5868                21.1831

                     43                     44                     45
                      A                      A                      A
 Frequencies --   1059.2745              1082.9563              1084.8350
 Red. masses --      1.8670                 1.4849                 2.5506
 Frc consts  --      1.2343                 1.0260                 1.7685
 IR Inten    --     25.4219                 2.7940                 3.5950

                     46                     47                     48
                      A                      A                      A
 Frequencies --   1109.3044              1125.4194              1147.1103
 Red. masses --      2.0538                 2.5940                 1.9608
 Frc consts  --      1.4890                 1.9358                 1.5201
 IR Inten    --      9.2961                31.5667                21.0115

                     49                     50                     51
                      A                      A                      A
 Frequencies --   1160.2054              1174.3556              1177.2850
 Red. masses --      2.3667                 2.5143                 2.5480
 Frc consts  --      1.8770                 2.0430                 2.0807
 IR Inten    --      0.5570                36.1351                10.2817

                     52                     53                     54
                      A                      A                      A
 Frequencies --   1230.4198              1253.1232              1277.4229
 Red. masses --      6.3449                 2.3210                 1.4782
 Frc consts  --      5.6596                 2.1474                 1.4212
 IR Inten    --      7.9150                23.1944                16.0217

                     55                     56                     57
                      A                      A                      A
 Frequencies --   1296.7003              1324.1886              1348.7009
 Red. masses --      1.2969                 1.2526                 1.4686
 Frc consts  --      1.2848                 1.2940                 1.5739
 IR Inten    --     11.5796                17.6472                 2.0855

                     58                     59                     60
                      A                      A                      A
 Frequencies --   1364.5327              1374.5631              1382.8814
 Red. masses --      2.6348                 1.4922                 1.6285
 Frc consts  --      2.8904                 1.6612                 1.8349
 IR Inten    --     11.1062                43.6044                87.8752

                     61                     62                     63
                      A                      A                      A
 Frequencies --   1399.4259              1408.5938              1423.2347
 Red. masses --      1.3981                 1.2034                 1.3255
 Frc consts  --      1.6132                 1.4068                 1.5820
 IR Inten    --      1.2005                 4.2099                10.5163

                     64                     65                     66
                      A                      A                      A
 Frequencies --   1438.3471              1447.4250              1449.0195
 Red. masses --      1.2740                 1.2785                 1.3170
 Frc consts  --      1.5529                 1.5781                 1.6293
 IR Inten    --     18.8434                 2.7148                 2.7586

                     67                     68                     69
                      A                      A                      A
 Frequencies --   1492.0620              1502.2962              1505.6219
 Red. masses --      1.0754                 1.0487                 1.3312
 Frc consts  --      1.4106                 1.3945                 1.7780
 IR Inten    --      2.8816                 6.3470                22.9269

                     70                     71                     72
                      A                      A                      A
 Frequencies --   1512.1988              1519.6319              1520.9796
 Red. masses --      1.1869                 1.0894                 1.0734
 Frc consts  --      1.5991                 1.4822                 1.4630
 IR Inten    --     10.0649                 5.4410                 4.2058

                     73                     74                     75
                      A                      A                      A
 Frequencies --   1525.0083              1531.4236              1536.2268
 Red. masses --      1.1724                 1.0590                 1.1160
 Frc consts  --      1.6064                 1.4633                 1.5517
 IR Inten    --     59.6774                 4.8235                 0.9787

                     76                     77                     78
                      A                      A                      A
 Frequencies --   1540.3182              1544.3463              1620.6742
 Red. masses --      1.0562                 1.0781                 8.3495
 Frc consts  --      1.4765                 1.5150                12.9211
 IR Inten    --      3.2288                25.7998                25.4402

                     79                     80                     81
                      A                      A                      A
 Frequencies --   1664.6842              1787.3756              3035.6085
 Red. masses --      6.5755                 7.7711                 1.0664
 Frc consts  --     10.7360                14.6273                 5.7900
 IR Inten    --     12.2922               339.7938                30.1963

                     82                     83                     84
                      A                      A                      A
 Frequencies --   3041.1016              3043.2319              3044.7584
 Red. masses --      1.0715                 1.0682                 1.0391
 Frc consts  --      5.8383                 5.8287                 5.6756
 IR Inten    --     25.1258                36.9476                23.7843

                     85                     86                     87
                      A                      A                      A
 Frequencies --   3046.2980              3065.5752              3077.6895
 Red. masses --      1.0388                 1.0397                 1.0859
 Frc consts  --      5.6799                 5.7569                 6.0600
 IR Inten    --     28.6764                10.6933                12.3612

                     88                     89                     90
                      A                      A                      A
 Frequencies --   3084.6308              3095.8197              3113.8193
 Red. masses --      1.0964                 1.1011                 1.1018
 Frc consts  --      6.1463                 6.2176                 6.2941
 IR Inten    --     17.3200                17.5415                52.0039

                     91                     92                     93
                      A                      A                      A
 Frequencies --   3117.5643              3122.7058              3133.2733
 Red. masses --      1.0957                 1.1013                 1.0981
 Frc consts  --      6.2746                 6.3274                 6.3516
 IR Inten    --      7.2996                29.1803                20.2372

                     94                     95                     96
                      A                      A                      A
 Frequencies --   3143.4041              3154.2573              3163.6444
 Red. masses --      1.0992                 1.0983                 1.0936
 Frc consts  --      6.3993                 6.4384                 6.4487
 IR Inten    --      9.9072                22.6536                 7.4928

                     97                     98                     99
                      A                      A                      A
 Frequencies --   3275.4336              3576.0801              3577.8538
 Red. masses --      1.0982                 1.0738                 1.0747
 Frc consts  --      6.9418                 8.0908                 8.1055
 IR Inten    --      7.2171                 0.7578                14.0099

 - Thermochemistry -
 -------------------
 Temperature   298.150 Kelvin.  Pressure   1.00000 Atm.
 Atom     1 has atomic number  6 and mass  12.00000

 Molecular mass:   225.14773 amu.
 Principal axes and moments of inertia in atomic units:
                           1         2         3
     Eigenvalues --  2561.135724894.358246622.62725
           X            0.99954   0.03034   0.00108
           Y           -0.03034   0.99954  -0.00088
           Z           -0.00111   0.00084   1.00000
 This molecule is an asymmetric top.
 Rotational symmetry number  1.
 Warning -- assumption of classical behavior for rotation
           may cause significant error
 Rotational temperatures (Kelvin)      0.03382     0.01770     0.01308
 Rotational constants (GHZ):           0.70466     0.36874     0.27251
 Zero-point vibrational energy     796234.0 (Joules/Mol)
                                  190.30449 (Kcal/Mol)
 Warning -- explicit consideration of  25 degrees of freedom as
           vibrations may cause significant error
 Vibrational temperatures:     35.99    48.24    80.88    84.71   103.15
          (Kelvin)            123.27   153.21   197.70   217.21   271.63
                              311.64   316.16   362.15   393.80   403.71
                              423.65   434.14   504.96   550.89   562.12
                              656.32   715.26   785.51   875.43   879.35
                              915.08   938.78   955.56   996.08  1069.74
                             1090.60  1131.22  1164.56  1214.57  1267.99
                             1275.73  1318.83  1371.69  1407.88  1434.40
                             1475.91  1500.39  1524.06  1558.13  1560.84
                             1596.04  1619.23  1650.44  1669.28  1689.64
                             1693.85  1770.30  1802.96  1837.93  1865.66
                             1905.21  1940.48  1963.26  1977.69  1989.66
                             2013.46  2026.65  2047.72  2069.46  2082.52
                             2084.82  2146.74  2161.47  2166.25  2175.72
                             2186.41  2188.35  2194.15  2203.38  2210.29
                             2216.17  2221.97  2331.79  2395.11  2571.63
                             4367.56  4375.47  4378.53  4380.73  4382.94
                             4410.68  4428.11  4438.10  4454.19  4480.09
                             4485.48  4492.88  4508.08  4522.66  4538.27
                             4551.78  4712.62  5145.18  5147.73

 Zero-point correction=                           0.303270 (Hartree/Particle)
 Thermal correction to Energy=                    0.320625
 Thermal correction to Enthalpy=                  0.321570
 Thermal correction to Gibbs Free Energy=         0.256566
 Sum of electronic and zero-point Energies=           -745.063363
 Sum of electronic and thermal Energies=              -745.046007
 Sum of electronic and thermal Enthalpies=            -745.045063
 Sum of electronic and thermal Free Energies=         -745.110066

                     E (Thermal)             CV                S
                      KCal/Mol        Cal/Mol-Kelvin    Cal/Mol-Kelvin
 Total                  201.196             63.434            136.812
 Electronic               0.000              0.000              0.000
 Translational            0.889              2.981             42.137
 Rotational               0.889              2.981             32.784
 Vibrational            199.418             57.472             61.890
 Vibration     1          0.593              1.985              6.190
 Vibration     2          0.594              1.983              5.609
 Vibration     3          0.596              1.975              4.586
 Vibration     4          0.596              1.974              4.495
 Vibration     5          0.598              1.968              4.106
 Vibration     6          0.601              1.959              3.756
 Vibration     7          0.605              1.944              3.332
 Vibration     8          0.614              1.916              2.840
 Vibration     9          0.618              1.902              2.660
 Vibration    10          0.633              1.855              2.240
 Vibration    11          0.645              1.816              1.987
 Vibration    12          0.647              1.811              1.961
 Vibration    13          0.664              1.760              1.719
 Vibration    14          0.676              1.722              1.573
 Vibration    15          0.680              1.710              1.530
 Vibration    16          0.689              1.684              1.448
 Vibration    17          0.694              1.670              1.407
 Vibration    18          0.728              1.573              1.162
 Vibration    19          0.752              1.507              1.028
 Vibration    20          0.758              1.490              0.997
 Vibration    21          0.814              1.347              0.777
 Vibration    22          0.853              1.256              0.665
 Vibration    23          0.901              1.149              0.553
 Vibration    24          0.967              1.014              0.435
 Vibration    25          0.970              1.008              0.431

                           ! Non-Optimized Parameters !
 Normal termination of Gaussian 16 at Fri Dec 11 00:40:34 2020.

 ----------------------------------------------------------------------
 # B3LYP/6-311++G(d,p) empiricaldispersion=gd3bj scf=xqc pop=npa geom=c
 heck
 ----------------------------------------------------------------------

 ---------------------------------------
 CID_106371944_JID_6708_Energie_neutraal
 ---------------------------------------
 Structure from the checkpoint file:  "JID_6708.chk"
 Charge =  0 Multiplicity = 1

 SCF Done:  E(RB3LYP) =  -745.583712773     A.U. after   14 cycles
 Normal termination of Gaussian 16 at Fri Dec 11 00:45:42 2020.

 ----------------------------------------------------------------------
 # B3LYP/6-311++G(d,p) empiricaldispersion=gd3bj scf=xqc pop=npa geom=c
 heck
 ----------------------------------------------------------------------

 -------------------------------------
 CID_106371944_JID_6708_Energie_kation
 -------------------------------------
 Structure from the checkpoint file:  "JID_6708.chk"
 Charge =  1 Multiplicity = 2

 SCF Done:  E(UB3LYP) =  -745.283058983     A.U. after   28 cycles
 Normal termination of Gaussian 16 at Fri Dec 11 00:59:03 2020.
 Gaussian 16:  ES64L-G16RevA.03 25-Dec-2016

 ----------------------------------------------------------------------
 # B3LYP/6-311++G(d,p) empiricaldispersion=gd3bj scf=xqc pop=npa geom=c
 heck
 ----------------------------------------------------------------------

 ------------------------------------
 CID_106371944_JID_6708_Energie_anion
 ------------------------------------
 Structure from the checkpoint file:  "JID_6708.chk"
 Charge = -1 Multiplicity = 2

                         Standard orientation:
 ---------------------------------------------------------------------
 Center     Atomic      Atomic             Coordinates (Angstroms)
 Number     Number       Type             X           Y           Z
 ---------------------------------------------------------------------
      1          6           0        3.366781    2.679496    0.311607
      2          6           0        1.935686    2.137978    0.332311
      3          6           0        1.665221    1.078641   -0.746572
      4          7           0        2.504376   -0.110541   -0.633747
      5          6           0        2.284568   -1.303796    0.019158
      6          8           0        3.226438   -2.031075    0.304577
      7          6           0        0.843031   -1.723872    0.343963
      8          6           0        0.269954   -0.912509    1.529208
      9          7           0        0.063879   -1.787531   -0.900388
     10          6           0       -1.362194   -2.048023   -0.784552
     11          6           0       -2.190242   -0.917261   -0.240177
     12          7           0       -3.135238   -0.932999    0.646495
     13          6           0       -3.513340    0.401604    0.786424
     14          6           0       -2.762980    1.182636   -0.031949
     15          8           0       -1.905900    0.338032   -0.711155
     16          6           0       -2.667554    2.635296   -0.320663
     17          1           0        4.095212    1.889892    0.527841
     18          1           0        3.502764    3.462219    1.064898
     19          1           0        3.614067    3.110501   -0.666670
     20          1           0        1.715603    1.709190    1.317201
     21          1           0        1.225603    2.962614    0.178243
     22          1           0        0.615559    0.786874   -0.717206
     23          1           0        1.840741    1.517944   -1.737802
     24          1           0        3.496255    0.034982   -0.784964
     25          1           0        0.957469   -2.754171    0.695501
     26          1           0        0.045206    0.125243    1.273141
     27          1           0       -0.651518   -1.369602    1.899220
     28          1           0        0.995542   -0.914962    2.350485
     29          1           0        0.230060   -0.985801   -1.496811
     30          1           0       -1.733406   -2.316258   -1.782679
     31          1           0       -1.530305   -2.916124   -0.140138
     32          1           0       -4.293030    0.701330    1.472218
     33          1           0       -1.669365    3.026234   -0.086240
     34          1           0       -2.868166    2.850622   -1.377035
     35          1           0       -3.397301    3.179988    0.284342
 ---------------------------------------------------------------------

 SCF Done:  E(UB3LYP) =  -745.576416615     A.U. after   31 cycles

 The electronic state is 2-A.
 Alpha  occ. eigenvalues --  -19.10959 -19.00269 -14.24879 -14.22524 -14.22442
 Alpha  occ. eigenvalues --  -10.18773 -10.17162 -10.14698 -10.13435 -10.12902
 Alpha  occ. eigenvalues --  -10.11974 -10.10591 -10.08432 -10.08107 -10.08095
 Alpha  occ. eigenvalues --  -10.07253  -1.04333  -0.95438  -0.84392  -0.83498
 Alpha  occ. eigenvalues --   -0.82764  -0.71492  -0.69347  -0.68039  -0.63606
 Alpha  occ. eigenvalues --   -0.60815  -0.59095  -0.55298  -0.53314  -0.52013
 Alpha  occ. eigenvalues --   -0.49411  -0.48554  -0.43233  -0.42924  -0.41078
 Alpha  occ. eigenvalues --   -0.39382  -0.37644  -0.36563  -0.36391  -0.35770
 Alpha  occ. eigenvalues --   -0.34820  -0.34502  -0.34356  -0.32626  -0.32274
 Alpha  occ. eigenvalues --   -0.31973  -0.31856  -0.31082  -0.30061  -0.29716
 Alpha  occ. eigenvalues --   -0.28805  -0.27168  -0.26722  -0.25844  -0.25386
 Alpha  occ. eigenvalues --   -0.23608  -0.20915  -0.17715  -0.16680  -0.15592
 Alpha  occ. eigenvalues --   -0.14676   0.03869
 Alpha virt. eigenvalues --    0.06121   0.06679   0.07236   0.07667   0.08116
 Alpha virt. eigenvalues --    0.08833   0.09248   0.09447   0.09786   0.09837
 Alpha virt. eigenvalues --    0.10913   0.11375   0.11829   0.12088   0.12386

  Beta  occ. eigenvalues --  -19.10946 -19.00266 -14.24872 -14.22517 -14.22440
  Beta  occ. eigenvalues --  -10.18772 -10.17157 -10.14695 -10.13430 -10.12900
  Beta  occ. eigenvalues --  -10.11952 -10.10577 -10.08362 -10.08098 -10.08069
  Beta  occ. eigenvalues --  -10.07220  -1.04316  -0.95433  -0.84378  -0.83487
  Beta  occ. eigenvalues --   -0.82748  -0.71465  -0.69304  -0.68016  -0.63560
  Beta  occ. eigenvalues --   -0.60762  -0.59050  -0.55273  -0.53282  -0.51950
  Beta  occ. eigenvalues --   -0.49374  -0.48531  -0.43204  -0.42899  -0.41038
  Beta  occ. eigenvalues --   -0.39359  -0.37616  -0.36526  -0.36374  -0.35747
  Beta  occ. eigenvalues --   -0.34792  -0.34469  -0.34321  -0.32587  -0.32251
  Beta  occ. eigenvalues --   -0.31928  -0.31815  -0.31048  -0.30016  -0.29691
  Beta  occ. eigenvalues --   -0.28788  -0.27143  -0.26677  -0.25804  -0.25352
  Beta  occ. eigenvalues --   -0.23595  -0.20906  -0.17706  -0.16665  -0.15574
  Beta  occ. eigenvalues --   -0.14654
  Beta virt. eigenvalues --    0.06215   0.06865   0.07050   0.07506   0.08028
  Beta virt. eigenvalues --    0.08684   0.09006   0.09374   0.09766   0.10074
  Beta virt. eigenvalues --    0.10401   0.11194   0.11633   0.12082   0.12240

 Mulliken charges and spin densities:
               1          2
     1  C    0.843301  -1.504485
     2  C   -0.398013   0.276762
     3  C    0.086115  -0.292592
     4  N   -0.281973   0.054670
     5  C   -0.169024  -0.007470
     6  O   -0.331920   0.011545
     7  C   -0.090846   0.060168
     8  C   -0.223444  -0.330691
     9  N   -0.019126   0.010742
    10  C    0.027868  -0.969199
    11  C   -0.247512   0.159917
    12  N    0.033325   0.075785
    13  C   -0.511355   0.300116
    14  C   -1.131659   1.571332
    15  O    0.052974   0.032509
    16  C    2.837457  -3.410497
    17  H    0.024367   0.116337
    18  H   -0.350401   0.495888
    19  H   -0.138154   0.291651
    20  H    0.040137   0.083240
    21  H   -0.200012   0.356613
    22  H    0.487640  -0.361036
    23  H   -0.615986   0.814397
    24  H    0.233313   0.092371
    25  H    0.215040   0.007356
    26  H    0.069284   0.086209
    27  H    0.182044  -0.003546
    28  H    0.121546   0.072869
    29  H    0.126323   0.143409
    30  H    0.023689   0.171412
    31  H    0.184262   0.018238
    32  H   -0.469062   0.639802
    33  H   -0.340672   0.508159
    34  H   -0.458667   0.645408
    35  H   -0.610861   0.782610
 Sum of Mulliken charges =  -1.00000   1.00000

 Dipole moment (field-independent basis, Debye):
    X=              0.5561    Y=             -7.0202    Z=              1.0194  Tot=              7.1156
 Quadrupole moment (field-independent basis, Debye-Ang):
   XX=           -175.0492   YY=           -171.0473   ZZ=           -131.5249
   XY=             13.5057   XZ=              1.8520   YZ=              3.9464

 Summary of Natural Population Analysis:

                                       Natural Population
                Natural  -----------------------------------------------
    Atom  No    Charge         Core      Valence    Rydberg      Total
 -----------------------------------------------------------------------
      C    1   -0.28848      0.99967     2.28339    0.00542     3.28848
      C    2   -0.19511      0.99963     2.18779    0.00768     3.19511
      C    3   -0.09652      0.99960     2.08501    0.01191     3.09652
      N    4   -0.32247      0.99967     2.81290    0.00990     3.82247
      C    5    0.34842      0.99964     1.62830    0.02364     2.65158
      O    6   -0.32230      0.99988     3.31668    0.00574     4.32230
      C    7   -0.04481      0.99956     2.03445    0.01080     3.04481
      C    8   -0.30222      0.99964     2.29709    0.00549     3.30222
      N    9   -0.33579      0.99974     2.82557    0.01048     3.83579
      C   10   -0.11637      0.99957     2.10494    0.01186     3.11637
      C   11    0.25733      0.99960     1.72289    0.02018     2.74267
      N   12   -0.25582      0.99968     2.74697    0.00917     3.75582
      C   13   -0.04996      0.99947     2.03717    0.01331     3.04996
      C   14    0.14220      0.99947     1.84409    0.01424     2.85780
      O   15   -0.24969      0.99985     3.24109    0.00875     4.24969
      C   16   -0.30809      0.99963     2.30217    0.00629     3.30809
      H   17    0.09358      0.00000     0.40520    0.00122     0.40642
      H   18    0.10344      0.00000     0.39555    0.00101     0.39656
      H   19    0.09882      0.00000     0.39988    0.00130     0.40118
      H   20    0.09462      0.00000     0.40406    0.00133     0.40538
      H   21    0.10329      0.00000     0.39448    0.00222     0.39671
      H   22    0.10262      0.00000     0.39454    0.00284     0.39738
      H   23    0.09804      0.00000     0.40027    0.00169     0.40196
      H   24    0.19315      0.00000     0.30442    0.00243     0.30685
      H   25    0.10144      0.00000     0.39681    0.00175     0.39856
      H   26    0.10203      0.00000     0.39654    0.00143     0.39797
      H   27    0.10687      0.00000     0.39215    0.00098     0.39313
      H   28    0.10501      0.00000     0.39415    0.00083     0.39499
      H   29    0.18113      0.00000     0.31550    0.00337     0.31887
      H   30    0.10660      0.00000     0.39249    0.00091     0.39340
      H   31    0.10648      0.00000     0.39258    0.00094     0.39352
      H   32    0.10356      0.00000     0.39533    0.00111     0.39644
      H   33    0.11194      0.00000     0.38553    0.00254     0.38806
      H   34    0.11306      0.00000     0.38429    0.00265     0.38694
      H   35    0.11400      0.00000     0.38334    0.00266     0.38600
 =======================================================================
   * Total *   -0.00000     15.99429    44.79764    0.20807    61.00000

 Normal termination of Gaussian 16 at Fri Dec 11 01:13:50 2020.
