 Gaussian 16, Revision A.03,

 -----------------------------------------------------------
 # opt freq B3LYP/6-31G(d) empiricaldispersion=gd3bj scf=xqc
 -----------------------------------------------------------

 ------------------------------
 CID_153124169_JID_333_neutraal
 ------------------------------
 Symbolic Z-matrix:
 Charge =  0 Multiplicity = 1

 SCF Done:  E(RB3LYP) =  -836.028149614     A.U. after   14 cycles
 SCF Done:  E(RB3LYP) =  -836.034442297     A.U. after   12 cycles
 SCF Done:  E(RB3LYP) =  -836.034597107     A.U. after   13 cycles
 SCF Done:  E(RB3LYP) =  -836.035927888     A.U. after   12 cycles
 SCF Done:  E(RB3LYP) =  -836.036140185     A.U. after   12 cycles
 SCF Done:  E(RB3LYP) =  -836.036363889     A.U. after   12 cycles
 SCF Done:  E(RB3LYP) =  -836.036608810     A.U. after   12 cycles
 SCF Done:  E(RB3LYP) =  -836.036984865     A.U. after   12 cycles
 SCF Done:  E(RB3LYP) =  -836.037279996     A.U. after   12 cycles
 SCF Done:  E(RB3LYP) =  -836.037454484     A.U. after   12 cycles
 SCF Done:  E(RB3LYP) =  -836.037671602     A.U. after   10 cycles
 SCF Done:  E(RB3LYP) =  -836.037690458     A.U. after    9 cycles
 SCF Done:  E(RB3LYP) =  -836.037692867     A.U. after    8 cycles
 SCF Done:  E(RB3LYP) =  -836.037693233     A.U. after    8 cycles
 SCF Done:  E(RB3LYP) =  -836.037693237     A.U. after    7 cycles
 SCF Done:  E(RB3LYP) =  -836.037693175     A.U. after    7 cycles
 Optimization completed.
    -- Stationary point found.
 Normal termination of Gaussian 16 at Tue Dec  8 10:27:18 2020.

 --------------------------------------------------------------------
 #N Geom=AllCheck Guess=TCheck SCRF=Check GenChk RB3LYP/6-31G(d) Freq
 --------------------------------------------------------------------

 Structure from the checkpoint file:  "JID_333.chk"
 ------------------------------
 CID_153124169_JID_333_neutraal
 ------------------------------
 Charge =  0 Multiplicity = 1

 SCF Done:  E(RB3LYP) =  -836.037693175     A.U. after    1 cycles

  Exact polarizability:  96.302  -1.793 101.821  -4.708  -3.127  75.612
 Approx polarizability: 127.727  -9.472 147.147 -10.702 -10.868 119.516

                      1                      2                      3
                      A                      A                      A
 Frequencies --     27.3389                74.5784               116.5237
 Red. masses --      4.8697                 5.1102                 4.5636
 Frc consts  --      0.0021                 0.0167                 0.0365
 IR Inten    --      0.4557                 2.9756                 4.0052

                      4                      5                      6
                      A                      A                      A
 Frequencies --    144.4760               150.9601               196.4344
 Red. masses --      1.9410                 2.0852                 1.0892
 Frc consts  --      0.0239                 0.0280                 0.0248
 IR Inten    --      0.7523                 0.5965                41.8463

                      7                      8                      9
                      A                      A                      A
 Frequencies --    219.3099               230.0833               246.5879
 Red. masses --      3.1316                 1.5601                 3.4607
 Frc consts  --      0.0887                 0.0487                 0.1240
 IR Inten    --      0.1235                 5.1043                 0.2385

                     10                     11                     12
                      A                      A                      A
 Frequencies --    254.9219               305.3623               320.9463
 Red. masses --      1.2204                 1.8925                 1.3062
 Frc consts  --      0.0467                 0.1040                 0.0793
 IR Inten    --      3.5151                25.3670                15.0829

                     13                     14                     15
                      A                      A                      A
 Frequencies --    354.0149               390.2491               425.1280
 Red. masses --      4.0321                 5.1042                 3.0863
 Frc consts  --      0.2977                 0.4580                 0.3286
 IR Inten    --      6.6398                 9.0573                 9.5398

                     16                     17                     18
                      A                      A                      A
 Frequencies --    472.1433               565.7939               597.1235
 Red. masses --      2.7929                 2.2669                 5.0636
 Frc consts  --      0.3668                 0.4276                 1.0638
 IR Inten    --      1.3107                22.2026                27.9490

                     19                     20                     21
                      A                      A                      A
 Frequencies --    666.7190               751.3609               777.1445
 Red. masses --      2.9326                 3.7564                 1.9965
 Frc consts  --      0.7681                 1.2494                 0.7104
 IR Inten    --     46.5540                 9.0462                53.0826

                     22                     23                     24
                      A                      A                      A
 Frequencies --    810.5879               841.5214               912.7477
 Red. masses --      1.9686                 2.3340                 2.5361
 Frc consts  --      0.7621                 0.9738                 1.2449
 IR Inten    --     29.8907                 4.6557                40.8339

                     25                     26                     27
                      A                      A                      A
 Frequencies --    931.4973               982.7499              1017.3025
 Red. masses --      1.2664                 2.2833                 2.0567
 Frc consts  --      0.6474                 1.2992                 1.2541
 IR Inten    --      4.8684                12.3413                60.0753

                     28                     29                     30
                      A                      A                      A
 Frequencies --   1049.8649              1081.5279              1144.6873
 Red. masses --      2.0601                 2.1396                 1.8579
 Frc consts  --      1.3378                 1.4746                 1.4343
 IR Inten    --     67.7802                23.8067                45.6893

                     31                     32                     33
                      A                      A                      A
 Frequencies --   1157.7129              1163.8748              1209.9516
 Red. masses --      1.7503                 1.5956                 2.3202
 Frc consts  --      1.3822                 1.2735                 2.0013
 IR Inten    --     27.9867                11.7068                81.0343

                     34                     35                     36
                      A                      A                      A
 Frequencies --   1281.2895              1287.1959              1317.6619
 Red. masses --      2.9824                 1.2753                 1.1794
 Frc consts  --      2.8847                 1.2449                 1.2065
 IR Inten    --     28.0879                 4.9844                 9.2923

                     37                     38                     39
                      A                      A                      A
 Frequencies --   1344.7755              1364.8958              1386.5853
 Red. masses --      1.7978                 1.1672                 1.4382
 Frc consts  --      1.9155                 1.2811                 1.6291
 IR Inten    --    136.0681                 7.5842                 6.1134

                     40                     41                     42
                      A                      A                      A
 Frequencies --   1428.0727              1446.5885              1476.2586
 Red. masses --      1.5708                 1.2517                 1.2928
 Frc consts  --      1.8874                 1.5433                 1.6601
 IR Inten    --    106.7077                 2.8361                17.3321

                     43                     44                     45
                      A                      A                      A
 Frequencies --   1485.0421              1514.1793              1518.8442
 Red. masses --      1.2630                 1.0475                 1.0799
 Frc consts  --      1.6411                 1.4150                 1.4678
 IR Inten    --     15.4952                11.1855                 4.6493

                     46                     47                     48
                      A                      A                      A
 Frequencies --   1532.2564              1543.1891              1547.8826
 Red. masses --      1.0457                 1.0783                 1.0512
 Frc consts  --      1.4466                 1.5129                 1.4839
 IR Inten    --      7.1919                21.9359                 5.0303

                     49                     50                     51
                      A                      A                      A
 Frequencies --   1727.0075              1768.3907              2683.1210
 Red. masses --      1.0783                 7.4804                 1.0382
 Frc consts  --      1.8949                13.7826                 4.4036
 IR Inten    --     32.4871               270.9644                 9.9658

                     52                     53                     54
                      A                      A                      A
 Frequencies --   3047.3290              3048.1295              3055.6899
 Red. masses --      1.0471                 1.0431                 1.0615
 Frc consts  --      5.7288                 5.7102                 5.8397
 IR Inten    --     63.6747                12.9233                16.8165

                     55                     56                     57
                      A                      A                      A
 Frequencies --   3089.8378              3104.7168              3115.9038
 Red. masses --      1.0858                 1.0971                 1.1007
 Frc consts  --      6.1078                 6.2308                 6.2964
 IR Inten    --      8.5984                13.3052                35.5069

                     58                     59                     60
                      A                      A                      A
 Frequencies --   3130.2147              3143.4023              3205.0020
 Red. masses --      1.0933                 1.1019                 1.1003
 Frc consts  --      6.3113                 6.4148                 6.6591
 IR Inten    --     24.4807                14.4146                 3.8259

                     61                     62                     63
                      A                      A                      A
 Frequencies --   3421.9642              3515.1358              3551.3861
 Red. masses --      1.0502                 1.0909                 1.0745
 Frc consts  --      7.2459                 7.9421                 7.9848
 IR Inten    --      6.6253                 1.3288                14.9331

 - Thermochemistry -
 -------------------
 Temperature   298.150 Kelvin.  Pressure   1.00000 Atm.
 Atom     1 has atomic number  6 and mass  12.00000

 Molecular mass:   163.07793 amu.
 Principal axes and moments of inertia in atomic units:
                           1         2         3
     Eigenvalues --  1391.086941863.407242704.31022
           X            0.98615   0.16586   0.00152
           Y           -0.16587   0.98601   0.01650
           Z            0.00124  -0.01652   0.99986
 This molecule is an asymmetric top.
 Rotational symmetry number  1.
 Warning -- assumption of classical behavior for rotation
           may cause significant error
 Rotational temperatures (Kelvin)      0.06226     0.04648     0.03203
 Rotational constants (GHZ):           1.29736     0.96852     0.66736
 Zero-point vibrational energy     512439.4 (Joules/Mol)
                                  122.47595 (Kcal/Mol)
 Warning -- explicit consideration of  18 degrees of freedom as
           vibrations may cause significant error
 Vibrational temperatures:     39.33   107.30   167.65   207.87   217.20
          (Kelvin)            282.63   315.54   331.04   354.78   366.78
                              439.35   461.77   509.35   561.48   611.66
                              679.31   814.05   859.13   959.26  1081.04
                             1118.14  1166.26  1210.76  1313.24  1340.22
                             1413.96  1463.67  1510.52  1556.08  1646.95
                             1665.69  1674.56  1740.85  1843.49  1851.99
                             1895.82  1934.83  1963.78  1994.99  2054.68
                             2081.32  2124.01  2136.64  2178.57  2185.28
                             2204.58  2220.30  2227.06  2484.78  2544.32
                             3860.41  4384.43  4385.58  4396.46  4445.59
                             4466.99  4483.09  4503.68  4522.65  4611.28
                             4923.44  5057.50  5109.65

 Zero-point correction=                           0.195178 (Hartree/Particle)
 Thermal correction to Energy=                    0.207480
 Thermal correction to Enthalpy=                  0.208424
 Thermal correction to Gibbs Free Energy=         0.156530
 Sum of electronic and zero-point Energies=           -835.842515
 Sum of electronic and thermal Energies=              -835.830214
 Sum of electronic and thermal Enthalpies=            -835.829269
 Sum of electronic and thermal Free Energies=         -835.881163

                     E (Thermal)             CV                S
                      KCal/Mol        Cal/Mol-Kelvin    Cal/Mol-Kelvin
 Total                  130.195             44.173            109.220
 Electronic               0.000              0.000              0.000
 Translational            0.889              2.981             41.176
 Rotational               0.889              2.981             30.328
 Vibrational            128.418             38.212             37.716
 Vibration     1          0.593              1.984              6.014
 Vibration     2          0.599              1.966              4.029
 Vibration     3          0.608              1.936              3.157
 Vibration     4          0.616              1.909              2.744
 Vibration     5          0.618              1.902              2.660
 Vibration     6          0.636              1.845              2.166
 Vibration     7          0.647              1.812              1.965
 Vibration     8          0.652              1.795              1.878
 Vibration     9          0.661              1.768              1.755
 Vibration    10          0.665              1.754              1.696
 Vibration    11          0.696              1.664              1.387
 Vibration    12          0.706              1.633              1.305
 Vibration    13          0.730              1.567              1.148
 Vibration    14          0.758              1.491              0.999
 Vibration    15          0.787              1.416              0.875
 Vibration    16          0.829              1.312              0.732
 Vibration    17          0.922              1.105              0.512
 Vibration    18          0.955              1.038              0.455

                           ! Non-Optimized Parameters !
 Normal termination of Gaussian 16 at Tue Dec  8 10:31:53 2020.

 ----------------------------------------------------------------------
 # B3LYP/6-311++G(d,p) empiricaldispersion=gd3bj scf=xqc pop=npa geom=c
 heck
 ----------------------------------------------------------------------

 --------------------------------------
 CID_153124169_JID_333_Energie_neutraal
 --------------------------------------
 Structure from the checkpoint file:  "JID_333.chk"
 Charge =  0 Multiplicity = 1

 SCF Done:  E(RB3LYP) =  -836.207115558     A.U. after   14 cycles
 Normal termination of Gaussian 16 at Tue Dec  8 10:35:09 2020.

 ----------------------------------------------------------------------
 # B3LYP/6-311++G(d,p) empiricaldispersion=gd3bj scf=xqc pop=npa geom=c
 heck
 ----------------------------------------------------------------------

 ------------------------------------
 CID_153124169_JID_333_Energie_kation
 ------------------------------------
 Structure from the checkpoint file:  "JID_333.chk"
 Charge =  1 Multiplicity = 2

 SCF Done:  E(UB3LYP) =  -835.880242502     A.U. after   28 cycles
 Normal termination of Gaussian 16 at Tue Dec  8 10:44:27 2020.
 Gaussian 16:  ES64L-G16RevA.03 25-Dec-2016

 ----------------------------------------------------------------------
 # B3LYP/6-311++G(d,p) empiricaldispersion=gd3bj scf=xqc pop=npa geom=c
 heck
 ----------------------------------------------------------------------

 -----------------------------------
 CID_153124169_JID_333_Energie_anion
 -----------------------------------
 Structure from the checkpoint file:  "JID_333.chk"
 Charge = -1 Multiplicity = 2

                         Standard orientation:
 ---------------------------------------------------------------------
 Center     Atomic      Atomic             Coordinates (Angstroms)
 Number     Number       Type             X           Y           Z
 ---------------------------------------------------------------------
      1          6           0       -1.853586   -2.241529   -0.397122
      2          6           0       -1.701801   -0.768944   -0.794276
      3          6           0       -1.422347    0.149248    0.406701
      4          7           0       -0.229476   -0.239391    1.182793
      5          6           0        0.940305   -0.665319    0.539273
      6          8           0        1.396955   -1.792901    0.697121
      7          7           0        1.541245    0.276664   -0.296221
      8          6           0        1.836885    1.613500    0.237355
      9          7           0        2.647812   -0.218610   -1.050842
     10         16           0       -1.511896    1.929993   -0.079352
     11          1           0       -0.927986   -2.643200    0.024921
     12          1           0       -2.113149   -2.845688   -1.272798
     13          1           0       -2.655851   -2.369444    0.340538
     14          1           0       -0.883498   -0.655358   -1.516708
     15          1           0       -2.611052   -0.412361   -1.288881
     16          1           0       -2.252404    0.066247    1.114880
     17          1           0       -0.471881   -0.951597    1.864786
     18          1           0        2.808545    1.603622    0.747659
     19          1           0        1.884063    2.329493   -0.586088
     20          1           0        1.055243    1.910283    0.933493
     21          1           0        3.088414   -0.946810   -0.482100
     22          1           0        2.254932   -0.706500   -1.855595
     23          1           0       -0.674469    1.832249   -1.133138
 ---------------------------------------------------------------------

 SCF Done:  E(UB3LYP) =  -836.192607004     A.U. after   30 cycles

 The electronic state is 2-A.
 Alpha  occ. eigenvalues --  -88.73603 -19.00050 -14.26139 -14.22927 -14.22772
 Alpha  occ. eigenvalues --  -10.19800 -10.14069 -10.09635 -10.06639 -10.04930
 Alpha  occ. eigenvalues --   -7.82342  -5.78708  -5.78370  -5.77719  -0.96546
 Alpha  occ. eigenvalues --   -0.87791  -0.82777  -0.71192  -0.68593  -0.63619
 Alpha  occ. eigenvalues --   -0.59775  -0.54946  -0.50864  -0.47055  -0.42384
 Alpha  occ. eigenvalues --   -0.40398  -0.39547  -0.38272  -0.35219  -0.33174
 Alpha  occ. eigenvalues --   -0.32751  -0.32186  -0.30252  -0.29856  -0.28923
 Alpha  occ. eigenvalues --   -0.27397  -0.24897  -0.23894  -0.22854  -0.19672
 Alpha  occ. eigenvalues --   -0.17958  -0.15623  -0.15482  -0.13968   0.04824
 Alpha virt. eigenvalues --    0.06907   0.07934   0.08718   0.09196   0.10216
 Alpha virt. eigenvalues --    0.10676   0.10819   0.11017   0.11986   0.12139
 Alpha virt. eigenvalues --    0.13061   0.13476   0.14561   0.15007   0.15586

  Beta  occ. eigenvalues --  -88.73591 -19.00041 -14.26132 -14.22910 -14.22736
  Beta  occ. eigenvalues --  -10.19801 -10.14038 -10.09613 -10.06608 -10.04888
  Beta  occ. eigenvalues --   -7.82328  -5.78678  -5.78363  -5.77710  -0.96533
  Beta  occ. eigenvalues --   -0.87766  -0.82737  -0.71134  -0.68536  -0.63557
  Beta  occ. eigenvalues --   -0.59737  -0.54858  -0.50769  -0.46990  -0.42330
  Beta  occ. eigenvalues --   -0.40332  -0.39494  -0.38227  -0.35163  -0.33137
  Beta  occ. eigenvalues --   -0.32720  -0.32138  -0.30211  -0.29790  -0.28891
  Beta  occ. eigenvalues --   -0.27325  -0.24830  -0.23830  -0.22790  -0.19652
  Beta  occ. eigenvalues --   -0.17921  -0.15597  -0.15451  -0.13937
  Beta virt. eigenvalues --    0.07196   0.08035   0.08714   0.09145   0.09757
  Beta virt. eigenvalues --    0.10615   0.10987   0.11202   0.11510   0.12286
  Beta virt. eigenvalues --    0.12571   0.13545   0.13800   0.14653   0.15343

 Mulliken charges and spin densities:
               1          2
     1  C    1.377382  -2.044725
     2  C   -0.978229   0.724534
     3  C    0.710299  -0.679518
     4  N   -0.097969  -0.015910
     5  C    0.688357  -0.925314
     6  O   -0.352845   0.045996
     7  N   -0.190982   0.122363
     8  C    0.189732  -0.526914
     9  N   -0.327275  -0.015260
    10  S    0.416781  -0.510837
    11  H    0.009377   0.165496
    12  H   -0.507279   0.649509
    13  H   -0.265273   0.403203
    14  H   -0.032732   0.177843
    15  H   -0.587934   0.775599
    16  H   -0.931369   1.238579
    17  H    0.089613   0.227341
    18  H   -0.043068   0.172658
    19  H   -0.083762   0.267804
    20  H    0.062686   0.086448
    21  H    0.157352   0.068529
    22  H   -0.053671   0.315872
    23  H   -0.249191   0.276703
 Sum of Mulliken charges =  -1.00000   1.00000

 Dipole moment (field-independent basis, Debye):
    X=              4.0789    Y=              2.6867    Z=              1.0630  Tot=              4.9986
 Quadrupole moment (field-independent basis, Debye-Ang):
   XX=           -125.2566   YY=           -108.4452   ZZ=           -104.2120
   XY=             -4.2012   XZ=              3.1029   YZ=             -1.0647

 Summary of Natural Population Analysis:

                                       Natural Population
                Natural  -----------------------------------------------
    Atom  No    Charge         Core      Valence    Rydberg      Total
 -----------------------------------------------------------------------
      C    1   -0.29245      0.99966     2.28635    0.00644     3.29245
      C    2   -0.20409      0.99960     2.19482    0.00967     3.20409
      C    3   -0.06156      0.99954     2.04467    0.01735     3.06156
      N    4   -0.34626      0.99966     2.83332    0.01328     3.84626
      C    5    0.41223      0.99966     1.56363    0.02448     2.58777
      O    6   -0.32755      0.99987     3.32186    0.00581     4.32755
      N    7   -0.19611      0.99966     2.68271    0.01375     3.69611
      C    8   -0.17416      0.99962     2.16657    0.00797     3.17416
      N    9   -0.32130      0.99977     2.80975    0.01178     3.82130
      S   10   -0.01906      4.99964     3.00490    0.01452     8.01906
      H   11    0.10510      0.00000     0.39328    0.00163     0.39490
      H   12    0.10279      0.00000     0.39589    0.00132     0.39721
      H   13    0.09757      0.00000     0.40055    0.00189     0.40243
      H   14    0.09915      0.00000     0.39851    0.00234     0.40085
      H   15    0.10764      0.00000     0.39007    0.00228     0.39236
      H   16    0.10720      0.00000     0.38969    0.00311     0.39280
      H   17    0.19561      0.00000     0.30160    0.00279     0.30439
      H   18    0.08782      0.00000     0.41073    0.00145     0.41218
      H   19    0.09642      0.00000     0.40199    0.00159     0.40358
      H   20    0.11054      0.00000     0.38777    0.00169     0.38946
      H   21    0.17841      0.00000     0.31953    0.00206     0.32159
      H   22    0.17874      0.00000     0.31871    0.00256     0.32126
      H   23    0.06335      0.00000     0.43313    0.00353     0.43665
 =======================================================================
   * Total *    0.00000     13.99669    29.85003    0.15327    44.00000

 Normal termination of Gaussian 16 at Tue Dec  8 10:53:22 2020.
