 Gaussian 16, Revision A.03,

 -----------------------------------------------------------
 # opt freq B3LYP/6-31G(d) empiricaldispersion=gd3bj scf=xqc
 -----------------------------------------------------------

 -------------------------------
 CID_144276771_JID_8015_neutraal
 -------------------------------
 Symbolic Z-matrix:
 Charge =  0 Multiplicity = 1

 SCF Done:  E(RB3LYP) =  -837.552849169     A.U. after   16 cycles
 SCF Done:  E(RB3LYP) =  -837.559327426     A.U. after   13 cycles
 SCF Done:  E(RB3LYP) =  -837.553208373     A.U. after   14 cycles
 SCF Done:  E(RB3LYP) =  -837.560828281     A.U. after   13 cycles
 SCF Done:  E(RB3LYP) =  -837.561475787     A.U. after   13 cycles
 SCF Done:  E(RB3LYP) =  -837.562031836     A.U. after   13 cycles
 SCF Done:  E(RB3LYP) =  -837.562458837     A.U. after   12 cycles
 SCF Done:  E(RB3LYP) =  -837.562777390     A.U. after   12 cycles
 SCF Done:  E(RB3LYP) =  -837.563029152     A.U. after   12 cycles
 SCF Done:  E(RB3LYP) =  -837.563246253     A.U. after   12 cycles
 SCF Done:  E(RB3LYP) =  -837.563394854     A.U. after    8 cycles
 SCF Done:  E(RB3LYP) =  -837.563395155     A.U. after    8 cycles
 SCF Done:  E(RB3LYP) =  -837.563395283     A.U. after    7 cycles
 SCF Done:  E(RB3LYP) =  -837.563395368     A.U. after    7 cycles
 SCF Done:  E(RB3LYP) =  -837.563395417     A.U. after    7 cycles
 Optimization completed.
    -- Stationary point found.
 Normal termination of Gaussian 16 at Fri Dec 11 18:45:00 2020.

 --------------------------------------------------------------------
 #N Geom=AllCheck Guess=TCheck SCRF=Check GenChk RB3LYP/6-31G(d) Freq
 --------------------------------------------------------------------

 Structure from the checkpoint file:  "JID_8015.chk"
 -------------------------------
 CID_144276771_JID_8015_neutraal
 -------------------------------
 Charge =  0 Multiplicity = 1

 SCF Done:  E(RB3LYP) =  -837.563395417     A.U. after    1 cycles

  Exact polarizability: 202.743  -4.114 186.450  -0.473   8.809 110.830
 Approx polarizability: 257.568  -7.898 322.260  -6.167  30.329 172.240

                      1                      2                      3
                      A                      A                      A
 Frequencies --     20.1623                28.3938                41.0916
 Red. masses --      3.9271                 3.9389                 4.0612
 Frc consts  --      0.0009                 0.0019                 0.0040
 IR Inten    --      0.7128                 1.4825                 1.1098

                      4                      5                      6
                      A                      A                      A
 Frequencies --     58.1719                71.6650                83.0272
 Red. masses --      4.1853                 3.2886                 3.2661
 Frc consts  --      0.0083                 0.0100                 0.0133
 IR Inten    --      0.3619                 2.9100                 0.5477

                      7                      8                      9
                      A                      A                      A
 Frequencies --     93.5533               110.4016               142.4383
 Red. masses --      3.7726                 1.1905                 3.3309
 Frc consts  --      0.0195                 0.0085                 0.0398
 IR Inten    --      5.5484                 0.3223                 3.0514

                     10                     11                     12
                      A                      A                      A
 Frequencies --    150.3737               166.8674               182.9598
 Red. masses --      1.3735                 1.9588                 2.9080
 Frc consts  --      0.0183                 0.0321                 0.0574
 IR Inten    --      0.0973                 0.5402                 0.8432

                     13                     14                     15
                      A                      A                      A
 Frequencies --    202.4104               207.3244               235.0212
 Red. masses --      1.4465                 1.6727                 2.2659
 Frc consts  --      0.0349                 0.0424                 0.0737
 IR Inten    --      0.3490                 1.2609                 5.0627

                     16                     17                     18
                      A                      A                      A
 Frequencies --    255.1895               255.5830               285.4622
 Red. masses --      3.2939                 3.0253                 2.8078
 Frc consts  --      0.1264                 0.1164                 0.1348
 IR Inten    --      0.2459                 1.1258                 7.9258

                     19                     20                     21
                      A                      A                      A
 Frequencies --    305.9540               310.2633               355.3940
 Red. masses --      2.1728                 3.8181                 3.7795
 Frc consts  --      0.1198                 0.2166                 0.2813
 IR Inten    --     27.8243                 7.7202                 2.2153

                     22                     23                     24
                      A                      A                      A
 Frequencies --    378.6494               423.6922               437.4803
 Red. masses --      3.6936                 2.6027                 2.1520
 Frc consts  --      0.3120                 0.2753                 0.2427
 IR Inten    --     32.6091                 4.9611                 8.1088

                     25                     26                     27
                      A                      A                      A
 Frequencies --    452.1615               487.2091               523.5496
 Red. masses --      2.4458                 1.4766                 2.4641
 Frc consts  --      0.2946                 0.2065                 0.3979
 IR Inten    --      6.1448               184.0212                 2.4405

                     28                     29                     30
                      A                      A                      A
 Frequencies --    533.2079               560.6410               590.9172
 Red. masses --      4.2196                 4.3740                 6.0352
 Frc consts  --      0.7068                 0.8100                 1.2416
 IR Inten    --      5.8896                18.0235                 7.2585

                     31                     32                     33
                      A                      A                      A
 Frequencies --    641.3103               647.1722               692.2919
 Red. masses --      4.2366                 5.0664                 4.8784
 Frc consts  --      1.0266                 1.2502                 1.3775
 IR Inten    --     15.9196                 5.1400                21.5327

                     34                     35                     36
                      A                      A                      A
 Frequencies --    708.8443               712.0155               742.9299
 Red. masses --      1.8699                 1.4300                 3.7249
 Frc consts  --      0.5536                 0.4271                 1.2113
 IR Inten    --      9.7485                 6.7426                13.5371

                     37                     38                     39
                      A                      A                      A
 Frequencies --    748.1692               771.7860               833.4801
 Red. masses --      1.8134                 5.7182                 6.0297
 Frc consts  --      0.5981                 2.0068                 2.4679
 IR Inten    --     33.4715                 3.9359                 9.0328

                     40                     41                     42
                      A                      A                      A
 Frequencies --    880.6302               898.8497               916.9011
 Red. masses --      1.8865                 1.6533                 1.6360
 Frc consts  --      0.8620                 0.7870                 0.8104
 IR Inten    --      2.5818                24.0362                25.0854

                     43                     44                     45
                      A                      A                      A
 Frequencies --    969.1524               997.6399              1030.3634
 Red. masses --      2.8264                 4.1574                 1.4816
 Frc consts  --      1.5641                 2.4379                 0.9267
 IR Inten    --      3.4139                42.0578                 8.6574

                     46                     47                     48
                      A                      A                      A
 Frequencies --   1062.9370              1067.2480              1083.8894
 Red. masses --      3.5737                 1.6416                 1.4884
 Frc consts  --      2.3789                 1.1017                 1.0303
 IR Inten    --      3.6214                11.5147                 5.8951

                     49                     50                     51
                      A                      A                      A
 Frequencies --   1089.8103              1110.0906              1140.8295
 Red. masses --      1.3859                 6.2050                 1.2401
 Frc consts  --      0.9698                 4.5052                 0.9509
 IR Inten    --      5.5439                34.5832                 3.2061

                     52                     53                     54
                      A                      A                      A
 Frequencies --   1148.1882              1187.4144              1189.9805
 Red. masses --      2.1682                 2.4859                 1.2686
 Frc consts  --      1.6841                 2.0651                 1.0584
 IR Inten    --     66.5063               133.3177                 1.4046

                     55                     56                     57
                      A                      A                      A
 Frequencies --   1190.7470              1207.2890              1232.5899
 Red. masses --      1.3827                 2.1002                 2.0913
 Frc consts  --      1.1551                 1.8036                 1.8720
 IR Inten    --     16.8432                35.7105                46.7294

                     58                     59                     60
                      A                      A                      A
 Frequencies --   1254.8767              1288.1778              1292.8103
 Red. masses --      2.4970                 2.1781                 3.5077
 Frc consts  --      2.3167                 2.1295                 3.4542
 IR Inten    --     97.0106                 3.8330                83.6318

                     61                     62                     63
                      A                      A                      A
 Frequencies --   1353.9939              1377.8879              1440.8913
 Red. masses --      2.9104                 1.6667                 1.3265
 Frc consts  --      3.1437                 1.8644                 1.6226
 IR Inten    --      5.4971                10.2580                21.4239

                     64                     65                     66
                      A                      A                      A
 Frequencies --   1450.7336              1453.5743              1457.7180
 Red. masses --      1.6898                 2.0649                 1.6306
 Frc consts  --      2.0953                 2.5705                 2.0415
 IR Inten    --     64.4400                24.6319                14.0111

                     67                     68                     69
                      A                      A                      A
 Frequencies --   1464.9978              1474.9989              1490.5381
 Red. masses --      1.5753                 1.4395                 1.2960
 Frc consts  --      1.9920                 1.8452                 1.6964
 IR Inten    --     41.6679               111.2395                34.2107

                     70                     71                     72
                      A                      A                      A
 Frequencies --   1503.7786              1513.2615              1514.1036
 Red. masses --      1.8294                 1.0511                 1.0476
 Frc consts  --      2.4374                 1.4182                 1.4150
 IR Inten    --     27.0625                12.4360                 3.2567

                     73                     74                     75
                      A                      A                      A
 Frequencies --   1518.7420              1522.4838              1529.8242
 Red. masses --      1.0482                 1.0580                 1.0711
 Frc consts  --      1.4245                 1.4449                 1.4769
 IR Inten    --      5.4540                20.5016                 2.3730

                     76                     77                     78
                      A                      A                      A
 Frequencies --   1533.7244              1536.3224              1560.6027
 Red. masses --      1.0501                 1.0545                 2.1766
 Frc consts  --      1.4554                 1.4664                 3.1234
 IR Inten    --     15.9615                41.8581               216.9470

                     79                     80                     81
                      A                      A                      A
 Frequencies --   1568.3196              1604.3616              1636.7864
 Red. masses --      1.3717                 3.5546                 4.8596
 Frc consts  --      1.9879                 5.3907                 7.6708
 IR Inten    --     27.5760               245.1398               347.2309

                     82                     83                     84
                      A                      A                      A
 Frequencies --   1678.2689              1702.0987              1727.3951
 Red. masses --      4.7454                 5.5593                 8.9076
 Frc consts  --      7.8749                 9.4894                15.6601
 IR Inten    --     27.2907               109.5946               263.4938

                     85                     86                     87
                      A                      A                      A
 Frequencies --   3023.0949              3036.7571              3043.7405
 Red. masses --      1.0351                 1.0391                 1.0398
 Frc consts  --      5.5739                 5.6460                 5.6756
 IR Inten    --     43.1434                18.9874                86.0972

                     88                     89                     90
                      A                      A                      A
 Frequencies --   3062.9502              3079.3078              3085.3569
 Red. masses --      1.0372                 1.1065                 1.1045
 Frc consts  --      5.7330                 6.1819                 6.1947
 IR Inten    --     21.0817                45.2207                45.1897

                     91                     92                     93
                      A                      A                      A
 Frequencies --   3090.4829              3125.6087              3136.3446
 Red. masses --      1.1049                 1.0988                 1.1020
 Frc consts  --      6.2177                 6.3244                 6.3869
 IR Inten    --     15.6905                17.5636                23.0502

                     94                     95                     96
                      A                      A                      A
 Frequencies --   3161.4904              3164.0588              3190.8968
 Red. masses --      1.0993                 1.0595                 1.0864
 Frc consts  --      6.4736                 6.2494                 6.5174
 IR Inten    --     29.8796                 7.3742                 4.9724

                     97                     98                     99
                      A                      A                      A
 Frequencies --   3196.8831              3203.0238              3244.1342
 Red. masses --      1.0969                 1.0950                 1.1162
 Frc consts  --      6.6049                 6.6188                 6.9214
 IR Inten    --      0.5630                 2.5890                16.7718

                    100                    101                    102
                      A                      A                      A
 Frequencies --   3304.0578              3570.6646              3670.0899
 Red. masses --      1.0967                 1.0752                 1.0811
 Frc consts  --      7.0537                 8.0771                 8.5793
 IR Inten    --      0.3734                64.5912                79.3957

 - Thermochemistry -
 -------------------
 Temperature   298.150 Kelvin.  Pressure   1.00000 Atm.
 Atom     1 has atomic number  6 and mass  12.00000

 Molecular mass:   250.14298 amu.
 Principal axes and moments of inertia in atomic units:
                           1         2         3
     Eigenvalues --  2612.428128274.237989568.96851
           X            0.99997   0.00716   0.00079
           Y           -0.00715   0.99997  -0.00424
           Z           -0.00082   0.00424   0.99999
 This molecule is an asymmetric top.
 Rotational symmetry number  1.
 Warning -- assumption of classical behavior for rotation
           may cause significant error
 Rotational temperatures (Kelvin)      0.03315     0.01047     0.00905
 Rotational constants (GHZ):           0.69083     0.21812     0.18860
 Zero-point vibrational energy     787693.0 (Joules/Mol)
                                  188.26314 (Kcal/Mol)
 Warning -- explicit consideration of  30 degrees of freedom as
           vibrations may cause significant error
 Vibrational temperatures:     29.01    40.85    59.12    83.70   103.11
          (Kelvin)            119.46   134.60   158.84   204.94   216.35
                              240.08   263.24   291.22   298.29   338.14
                              367.16   367.73   410.72   440.20   446.40
                              511.33   544.79   609.60   629.44   650.56
                              700.99   753.27   767.17   806.64   850.20
                              922.70   931.14   996.05  1019.87  1024.43
                             1068.91  1076.45  1110.43  1199.19  1267.03
                             1293.24  1319.22  1394.39  1435.38  1482.46
                             1529.33  1535.53  1559.48  1567.99  1597.17
                             1641.40  1651.99  1708.42  1712.12  1713.22
                             1737.02  1773.42  1805.49  1853.40  1860.07
                             1948.10  1982.47  2073.12  2087.28  2091.37
                             2097.33  2107.81  2122.19  2144.55  2163.60
                             2177.25  2178.46  2185.13  2190.51  2201.08
                             2206.69  2210.43  2245.36  2256.46  2308.32
                             2354.97  2414.65  2448.94  2485.34  4349.56
                             4369.22  4379.26  4406.90  4430.44  4439.14
                             4446.52  4497.05  4512.50  4548.68  4552.37
                             4590.99  4599.60  4608.44  4667.59  4753.80
                             5137.39  5280.44

 Zero-point correction=                           0.300016 (Hartree/Particle)
 Thermal correction to Energy=                    0.319790
 Thermal correction to Enthalpy=                  0.320735
 Thermal correction to Gibbs Free Energy=         0.249986
 Sum of electronic and zero-point Energies=           -837.263379
 Sum of electronic and thermal Energies=              -837.243605
 Sum of electronic and thermal Enthalpies=            -837.242661
 Sum of electronic and thermal Free Energies=         -837.313409

                     E (Thermal)             CV                S
                      KCal/Mol        Cal/Mol-Kelvin    Cal/Mol-Kelvin
 Total                  200.672             71.264            148.902
 Electronic               0.000              0.000              0.000
 Translational            0.889              2.981             42.451
 Rotational               0.889              2.981             33.691
 Vibrational            198.894             65.302             72.760
 Vibration     1          0.593              1.986              6.618
 Vibration     2          0.593              1.984              5.939
 Vibration     3          0.594              1.981              5.206
 Vibration     4          0.596              1.974              4.518
 Vibration     5          0.598              1.968              4.107
 Vibration     6          0.600              1.961              3.818
 Vibration     7          0.603              1.954              3.584
 Vibration     8          0.606              1.941              3.262
 Vibration     9          0.616              1.911              2.771
 Vibration    10          0.618              1.902              2.667
 Vibration    11          0.624              1.883              2.470
 Vibration    12          0.630              1.863              2.298
 Vibration    13          0.639              1.836              2.111
 Vibration    14          0.641              1.829              2.067
 Vibration    15          0.655              1.787              1.840
 Vibration    16          0.666              1.754              1.694
 Vibration    17          0.666              1.753              1.692
 Vibration    18          0.683              1.701              1.501
 Vibration    19          0.696              1.662              1.384
 Vibration    20          0.699              1.654              1.361
 Vibration    21          0.731              1.564              1.142
 Vibration    22          0.749              1.516              1.045
 Vibration    23          0.786              1.419              0.880
 Vibration    24          0.798              1.388              0.835
 Vibration    25          0.811              1.356              0.789
 Vibration    26          0.843              1.278              0.691
 Vibration    27          0.879              1.198              0.602
 Vibration    28          0.888              1.177              0.580
 Vibration    29          0.916              1.116              0.523
 Vibration    30          0.948              1.051              0.466

                           ! Non-Optimized Parameters !
 Normal termination of Gaussian 16 at Fri Dec 11 19:00:06 2020.

 ----------------------------------------------------------------------
 # B3LYP/6-311++G(d,p) empiricaldispersion=gd3bj scf=xqc pop=npa geom=c
 heck
 ----------------------------------------------------------------------

 ---------------------------------------
 CID_144276771_JID_8015_Energie_neutraal
 ---------------------------------------
 Structure from the checkpoint file:  "JID_8015.chk"
 Charge =  0 Multiplicity = 1

 SCF Done:  E(RB3LYP) =  -837.804293484     A.U. after   17 cycles
 Normal termination of Gaussian 16 at Fri Dec 11 19:06:34 2020.

 ----------------------------------------------------------------------
 # B3LYP/6-311++G(d,p) empiricaldispersion=gd3bj scf=xqc pop=npa geom=c
 heck
 ----------------------------------------------------------------------

 -------------------------------------
 CID_144276771_JID_8015_Energie_kation
 -------------------------------------
 Structure from the checkpoint file:  "JID_8015.chk"
 Charge =  1 Multiplicity = 2

 SCF Done:  E(UB3LYP) =  -837.542423855     A.U. after   26 cycles
 Normal termination of Gaussian 16 at Fri Dec 11 19:20:31 2020.
 Gaussian 16:  ES64L-G16RevA.03 25-Dec-2016

 ----------------------------------------------------------------------
 # B3LYP/6-311++G(d,p) empiricaldispersion=gd3bj scf=xqc pop=npa geom=c
 heck
 ----------------------------------------------------------------------

 ------------------------------------
 CID_144276771_JID_8015_Energie_anion
 ------------------------------------
 Structure from the checkpoint file:  "JID_8015.chk"
 Charge = -1 Multiplicity = 2

                         Standard orientation:
 ---------------------------------------------------------------------
 Center     Atomic      Atomic             Coordinates (Angstroms)
 Number     Number       Type             X           Y           Z
 ---------------------------------------------------------------------
      1          6           0       -3.057475    1.731423   -1.173720
      2          6           0       -1.654582    2.076901   -0.721166
      3          6           0       -1.273980    3.366651   -0.647893
      4          6           0       -0.657195    1.034742   -0.464849
      5          6           0       -0.838160   -0.288408   -0.251679
      6          6           0       -2.148602   -1.034791   -0.154227
      7          8           0       -2.341715   -1.979138   -0.924561
      8          7           0       -3.029697   -0.685079    0.825225
      9          6           0       -2.757195    0.238455    1.914698
     10          6           0       -4.313381   -1.368182    0.885396
     11          7           0        0.197328   -1.226576   -0.141617
     12          6           0        1.554465   -0.954720   -0.193902
     13          6           0        2.331697    0.024250    0.413658
     14          6           0        3.656823   -0.296531    0.011636
     15          7           0        3.720935   -1.369721   -0.765374
     16          7           0        2.413748   -1.756624   -0.875026
     17          8           0        4.813415    0.332412    0.322791
     18          6           0        4.681888    1.477043    1.149517
     19          1           0       -3.529992    2.602989   -1.635294
     20          1           0       -3.698665    1.405842   -0.349594
     21          1           0       -3.043898    0.917925   -1.907473
     22          1           0       -0.267289    3.647852   -0.350191
     23          1           0       -1.955194    4.176270   -0.892000
     24          1           0        0.372283    1.377099   -0.515289
     25          1           0       -3.443784    1.093890    1.881268
     26          1           0       -2.896045   -0.276666    2.873362
     27          1           0       -1.736839    0.609015    1.851729
     28          1           0       -4.411077   -2.004811    0.007860
     29          1           0       -4.379792   -1.984483    1.790988
     30          1           0       -5.125364   -0.630942    0.906499
     31          1           0       -0.094335   -2.156274   -0.421148
     32          1           0        1.991295    0.801480    1.077316
     33          1           0        2.184092   -2.511576   -1.502380
     34          1           0        4.054266    2.243565    0.675386
     35          1           0        4.254134    1.218382    2.127587
     36          1           0        5.690594    1.869258    1.288264
 ---------------------------------------------------------------------

 SCF Done:  E(UB3LYP) =  -837.803290338     A.U. after   33 cycles
 SCF Done:  E(UB3LYP) =  -837.803290338     a.u. after    1 cycles

 The electronic state is 2-A.
 Alpha  occ. eigenvalues --  -19.06230 -18.96555 -14.27378 -14.23003 -14.22925
 Alpha  occ. eigenvalues --  -14.21289 -10.14749 -10.14575 -10.14186 -10.14183
 Alpha  occ. eigenvalues --  -10.09122 -10.08853 -10.07963 -10.05875 -10.04990
 Alpha  occ. eigenvalues --  -10.04496 -10.02939 -10.01870  -0.98700  -0.93648
 Alpha  occ. eigenvalues --   -0.92170  -0.83492  -0.82338  -0.71785  -0.68801
 Alpha  occ. eigenvalues --   -0.67213  -0.63094  -0.62008  -0.60816  -0.58422
 Alpha  occ. eigenvalues --   -0.56210  -0.52856  -0.49955  -0.49044  -0.45698
 Alpha  occ. eigenvalues --   -0.44036  -0.40767  -0.39898  -0.39311  -0.38718
 Alpha  occ. eigenvalues --   -0.37917  -0.36945  -0.35799  -0.35045  -0.34296
 Alpha  occ. eigenvalues --   -0.33669  -0.32553  -0.31890  -0.30338  -0.29542
 Alpha  occ. eigenvalues --   -0.29130  -0.29041  -0.27908  -0.27309  -0.26312
 Alpha  occ. eigenvalues --   -0.25737  -0.25514  -0.24334  -0.23549  -0.22262
 Alpha  occ. eigenvalues --   -0.19481  -0.17008  -0.14801  -0.13739  -0.13444
 Alpha  occ. eigenvalues --   -0.12300  -0.07754   0.04506
 Alpha virt. eigenvalues --    0.06514   0.06841   0.08073   0.08662   0.08877
 Alpha virt. eigenvalues --    0.09890   0.10067   0.10362   0.11285   0.11304
 Alpha virt. eigenvalues --    0.11742   0.12198   0.12811   0.13082   0.13352

  Beta  occ. eigenvalues --  -19.06233 -18.96411 -14.27325 -14.22957 -14.22897
  Beta  occ. eigenvalues --  -14.21253 -10.14655 -10.14585 -10.14180 -10.14139
  Beta  occ. eigenvalues --  -10.09107 -10.08821 -10.07730 -10.05864 -10.04931
  Beta  occ. eigenvalues --  -10.04498 -10.02834 -10.01637  -0.98698  -0.93572
  Beta  occ. eigenvalues --   -0.91917  -0.83340  -0.82192  -0.71673  -0.68526
  Beta  occ. eigenvalues --   -0.67087  -0.62962  -0.61933  -0.60671  -0.58281
  Beta  occ. eigenvalues --   -0.55976  -0.52625  -0.49800  -0.48993  -0.45443
  Beta  occ. eigenvalues --   -0.43868  -0.40668  -0.39824  -0.39126  -0.38686
  Beta  occ. eigenvalues --   -0.37848  -0.36794  -0.35650  -0.34904  -0.34222
  Beta  occ. eigenvalues --   -0.33519  -0.32475  -0.31808  -0.30241  -0.29405
  Beta  occ. eigenvalues --   -0.29001  -0.28908  -0.27756  -0.27002  -0.26221
  Beta  occ. eigenvalues --   -0.25569  -0.25362  -0.24132  -0.23261  -0.22105
  Beta  occ. eigenvalues --   -0.19405  -0.16233  -0.14529  -0.13522  -0.13071
  Beta  occ. eigenvalues --   -0.11716  -0.06771
  Beta virt. eigenvalues --    0.06448   0.07169   0.08108   0.08619   0.08845
  Beta virt. eigenvalues --    0.09351   0.10019   0.10203   0.10497   0.11256
  Beta virt. eigenvalues --    0.11352   0.11808   0.12264   0.12970   0.13197

 Mulliken charges and spin densities:
               1          2
     1  C   -0.734988  -0.045916
     2  C    0.592741   0.140512
     3  C   -0.838131   0.267643
     4  C   -0.400182   0.018575
     5  C   -0.196675   0.585185
     6  C   -0.282401  -0.134723
     7  O   -0.358294   0.045104
     8  N   -0.105845   0.110622
     9  C    0.462203  -0.836929
    10  C    0.163243  -0.457553
    11  N    0.048194  -0.042268
    12  C   -0.607536   0.056479
    13  C    0.941312  -0.072263
    14  C   -0.372541  -0.073516
    15  N   -0.205688   0.042643
    16  N   -0.144094  -0.014812
    17  O   -0.157745   0.000854
    18  C   -0.277688  -0.042398
    19  H    0.156172  -0.016976
    20  H    0.148015  -0.012442
    21  H    0.138798   0.021868
    22  H    0.098593  -0.011196
    23  H    0.084099  -0.001479
    24  H    0.169928  -0.024874
    25  H   -0.038392   0.195157
    26  H   -0.419943   0.565721
    27  H    0.060232   0.131870
    28  H    0.160575   0.020106
    29  H   -0.118473   0.269077
    30  H   -0.014914   0.137271
    31  H    0.198518   0.087906
    32  H    0.185596   0.024716
    33  H    0.261732   0.022731
    34  H    0.148682   0.002296
    35  H    0.102023   0.037245
    36  H    0.152874   0.003767
 Sum of Mulliken charges =  -1.00000   1.00000

 Dipole moment (field-independent basis, Debye):
    X=              2.8415    Y=              0.3877    Z=             -0.1396  Tot=              2.8713
 Quadrupole moment (field-independent basis, Debye-Ang):
   XX=           -171.4063   YY=           -138.7478   ZZ=           -136.9439
   XY=              7.6799   XZ=             13.6580   YZ=              4.9587

 Summary of Natural Population Analysis:

                                       Natural Population
                Natural  -----------------------------------------------
    Atom  No    Charge         Core      Valence    Rydberg      Total
 -----------------------------------------------------------------------
      C    1   -0.29800      0.99963     2.29320    0.00517     3.29800
      C    2   -0.01832      0.99952     2.00987    0.00893     3.01832
      C    3   -0.15603      0.99953     2.14806    0.00843     3.15603
      C    4   -0.12542      0.99947     2.11667    0.00928     3.12542
      C    5    0.09459      0.99944     1.89344    0.01253     2.90541
      C    6    0.34825      0.99958     1.62785    0.02432     2.65175
      O    7   -0.33059      0.99988     3.32585    0.00485     4.33059
      N    8   -0.24691      0.99965     2.73642    0.01085     3.74691
      C    9   -0.17638      0.99963     2.16882    0.00793     3.17638
      C   10   -0.17929      0.99964     2.17187    0.00778     3.17929
      N   11   -0.30620      0.99964     2.79664    0.00992     3.80620
      C   12    0.19765      0.99955     1.79018    0.01262     2.80235
      C   13   -0.22197      0.99947     2.21461    0.00788     3.22197
      C   14    0.23416      0.99948     1.74889    0.01746     2.76584
      N   15   -0.18587      0.99969     2.67404    0.01215     3.68587
      N   16   -0.18518      0.99966     2.67076    0.01476     3.68518
      O   17   -0.27201      0.99985     3.26274    0.00943     4.27201
      C   18   -0.09952      0.99962     2.09201    0.00789     3.09952
      H   19    0.09589      0.00000     0.40333    0.00078     0.40411
      H   20    0.10115      0.00000     0.39755    0.00130     0.39885
      H   21    0.10346      0.00000     0.39569    0.00084     0.39654
      H   22    0.08459      0.00000     0.41461    0.00080     0.41541
      H   23    0.08259      0.00000     0.41663    0.00078     0.41741
      H   24    0.09933      0.00000     0.39877    0.00190     0.40067
      H   25    0.09075      0.00000     0.40810    0.00115     0.40925
      H   26    0.09346      0.00000     0.40472    0.00182     0.40654
      H   27    0.11419      0.00000     0.38442    0.00139     0.38581
      H   28    0.11346      0.00000     0.38550    0.00105     0.38654
      H   29    0.09275      0.00000     0.40591    0.00135     0.40725
      H   30    0.08950      0.00000     0.40961    0.00090     0.41050
      H   31    0.19919      0.00000     0.29819    0.00262     0.30081
      H   32    0.11442      0.00000     0.38456    0.00102     0.38558
      H   33    0.19588      0.00000     0.30229    0.00184     0.30412
      H   34    0.08492      0.00000     0.41389    0.00119     0.41508
      H   35    0.08303      0.00000     0.41553    0.00144     0.41697
      H   36    0.08848      0.00000     0.41081    0.00071     0.41152
 =======================================================================
   * Total *   -0.00000     17.99292    48.79202    0.21507    67.00000

 Normal termination of Gaussian 16 at Fri Dec 11 19:38:18 2020.
