 Gaussian 16, Revision A.03,

 -----------------------------------------------------------
 # opt freq B3LYP/6-31G(d) empiricaldispersion=gd3bj scf=xqc
 -----------------------------------------------------------

 ------------------------------
 CID_87552702_JID_4678_neutraal
 ------------------------------
 Symbolic Z-matrix:
 Charge =  0 Multiplicity = 1

 SCF Done:  E(RB3LYP) =  -687.815191326     A.U. after   14 cycles
 SCF Done:  E(RB3LYP) =  -687.819962902     A.U. after   14 cycles
 SCF Done:  E(RB3LYP) =  -687.817224171     A.U. after   13 cycles
 SCF Done:  E(RB3LYP) =  -687.820913840     A.U. after   13 cycles
 SCF Done:  E(RB3LYP) =  -687.820340682     A.U. after   13 cycles
 SCF Done:  E(RB3LYP) =  -687.822307592     A.U. after   13 cycles
 SCF Done:  E(RB3LYP) =  -687.822807140     A.U. after   13 cycles
 SCF Done:  E(RB3LYP) =  -687.823151125     A.U. after   14 cycles
 SCF Done:  E(RB3LYP) =  -687.823300516     A.U. after   12 cycles
 SCF Done:  E(RB3LYP) =  -687.823341529     A.U. after   12 cycles
 SCF Done:  E(RB3LYP) =  -687.823381539     A.U. after   11 cycles
 SCF Done:  E(RB3LYP) =  -687.823384509     A.U. after   10 cycles
 SCF Done:  E(RB3LYP) =  -687.823385556     A.U. after    9 cycles
 SCF Done:  E(RB3LYP) =  -687.823385990     A.U. after    8 cycles
 SCF Done:  E(RB3LYP) =  -687.823386100     A.U. after    7 cycles
 Optimization completed.
    -- Stationary point found.
 Normal termination of Gaussian 16 at Thu Dec 10 10:25:48 2020.

 --------------------------------------------------------------------
 #N Geom=AllCheck Guess=TCheck SCRF=Check GenChk RB3LYP/6-31G(d) Freq
 --------------------------------------------------------------------

 Structure from the checkpoint file:  "JID_4678.chk"
 ------------------------------
 CID_87552702_JID_4678_neutraal
 ------------------------------
 Charge =  0 Multiplicity = 1

 SCF Done:  E(RB3LYP) =  -687.823386099     A.U. after    1 cycles

  Exact polarizability: 117.567  -1.912 116.166  -3.561   0.395 100.258
 Approx polarizability: 165.630  -3.517 155.978  -5.822  -0.377 156.661

                      1                      2                      3
                      A                      A                      A
 Frequencies --     41.7784                60.8216                81.5067
 Red. masses --      6.9808                 8.5505                 3.2073
 Frc consts  --      0.0072                 0.0186                 0.0126
 IR Inten    --      5.7451                 2.9468                 1.4867

                      4                      5                      6
                      A                      A                      A
 Frequencies --    109.4825               131.6900               144.8886
 Red. masses --      5.9035                 2.2490                 2.6657
 Frc consts  --      0.0417                 0.0230                 0.0330
 IR Inten    --      2.8438                 2.5726                 1.1615

                      7                      8                      9
                      A                      A                      A
 Frequencies --    209.9576               228.0913               233.8301
 Red. masses --      2.7419                 3.6618                 1.1030
 Frc consts  --      0.0712                 0.1122                 0.0355
 IR Inten    --      0.5353                 5.6738                 1.3745

                     10                     11                     12
                      A                      A                      A
 Frequencies --    279.1209               309.7827               324.8015
 Red. masses --      2.7815                 3.6272                 2.1596
 Frc consts  --      0.1277                 0.2051                 0.1342
 IR Inten    --      2.3883                23.9571                 2.3746

                     13                     14                     15
                      A                      A                      A
 Frequencies --    370.6626               373.6653               396.1255
 Red. masses --      2.8090                 3.4503                 1.9514
 Frc consts  --      0.2274                 0.2838                 0.1804
 IR Inten    --      2.3652                11.8678                52.3886

                     16                     17                     18
                      A                      A                      A
 Frequencies --    409.1383               438.2791               456.7500
 Red. masses --      3.2673                 1.7892                 2.6409
 Frc consts  --      0.3222                 0.2025                 0.3246
 IR Inten    --     62.3462                78.9372                24.4536

                     19                     20                     21
                      A                      A                      A
 Frequencies --    501.8809               531.7087               571.4864
 Red. masses --      2.6538                 3.3537                 4.3360
 Frc consts  --      0.3938                 0.5586                 0.8344
 IR Inten    --      5.6163                11.3400                10.3142

                     22                     23                     24
                      A                      A                      A
 Frequencies --    593.9242               614.4335               666.3535
 Red. masses --      2.2193                 2.7855                 1.3274
 Frc consts  --      0.4612                 0.6196                 0.3473
 IR Inten    --     22.9194                 2.2443                23.3189

                     25                     26                     27
                      A                      A                      A
 Frequencies --    691.5274               732.6438               778.3588
 Red. masses --      3.5018                 1.4595                 5.7392
 Frc consts  --      0.9867                 0.4616                 2.0486
 IR Inten    --      7.1730                 1.3775                24.6254

                     28                     29                     30
                      A                      A                      A
 Frequencies --    826.5701               853.4103               890.5463
 Red. masses --      1.9523                 1.8074                 2.4292
 Frc consts  --      0.7859                 0.7756                 1.1351
 IR Inten    --      6.1173                 4.5052                 6.8991

                     31                     32                     33
                      A                      A                      A
 Frequencies --    915.1785               920.8640               973.8700
 Red. masses --      2.2111                 1.4856                 2.2605
 Frc consts  --      1.0911                 0.7423                 1.2632
 IR Inten    --     19.0623                 1.7820                 9.0429

                     34                     35                     36
                      A                      A                      A
 Frequencies --   1014.7229              1047.1766              1053.3441
 Red. masses --      1.7823                 3.1601                 1.9150
 Frc consts  --      1.0813                 2.0417                 1.2519
 IR Inten    --      1.7607                40.3055                20.4713

                     37                     38                     39
                      A                      A                      A
 Frequencies --   1068.8949              1083.8898              1104.6744
 Red. masses --      2.4301                 1.9631                 2.5533
 Frc consts  --      1.6359                 1.3588                 1.8357
 IR Inten    --     21.6919                72.2412                56.0129

                     40                     41                     42
                      A                      A                      A
 Frequencies --   1120.2022              1127.8066              1152.4594
 Red. masses --      2.2725                 2.2658                 2.4175
 Frc consts  --      1.6802                 1.6981                 1.8918
 IR Inten    --     23.2274                 4.1135                10.3705

                     43                     44                     45
                      A                      A                      A
 Frequencies --   1168.9968              1197.2478              1223.0149
 Red. masses --      2.2659                 2.2194                 1.7237
 Frc consts  --      1.8244                 1.8744                 1.5190
 IR Inten    --     24.9609                41.8661                49.4257

                     46                     47                     48
                      A                      A                      A
 Frequencies --   1256.2969              1280.9937              1286.9221
 Red. masses --      1.9637                 1.7407                 1.2379
 Frc consts  --      1.8261                 1.6830                 1.2079
 IR Inten    --     12.0998                31.3857                 8.8849

                     49                     50                     51
                      A                      A                      A
 Frequencies --   1324.3805              1333.3218              1362.4616
 Red. masses --      1.3549                 1.4298                 1.2383
 Frc consts  --      1.4002                 1.4976                 1.3544
 IR Inten    --     49.5382                 6.2443                 1.0756

                     52                     53                     54
                      A                      A                      A
 Frequencies --   1383.5415              1395.0180              1407.6879
 Red. masses --      1.4151                 1.8126                 1.4524
 Frc consts  --      1.5960                 2.0783                 1.6957
 IR Inten    --     13.2334               139.0010                 4.8204

                     55                     56                     57
                      A                      A                      A
 Frequencies --   1411.9058              1416.4177              1433.2358
 Red. masses --      1.4840                 1.4275                 1.4725
 Frc consts  --      1.7430                 1.6874                 1.7821
 IR Inten    --     63.5923                35.6070                21.2865

                     58                     59                     60
                      A                      A                      A
 Frequencies --   1445.6160              1489.4573              1508.1226
 Red. masses --      1.4440                 1.0820                 1.0888
 Frc consts  --      1.7779                 1.4143                 1.4591
 IR Inten    --     50.4492                17.2791                 1.1740

                     61                     62                     63
                      A                      A                      A
 Frequencies --   1516.0217              1518.1030              1530.5703
 Red. masses --      1.0714                 1.0787                 1.0908
 Frc consts  --      1.4508                 1.4647                 1.5056
 IR Inten    --      3.8602                 5.7350                 7.3659

                     64                     65                     66
                      A                      A                      A
 Frequencies --   1535.4666              1544.3967              1624.3217
 Red. masses --      1.0645                 1.0833                 1.2505
 Frc consts  --      1.4787                 1.5224                 1.9439
 IR Inten    --      1.7760                 5.0978               197.2944

                     67                     68                     69
                      A                      A                      A
 Frequencies --   1784.6464              1839.4706              2923.0041
 Red. masses --      8.7577                10.5298                 1.0855
 Frc consts  --     16.4340                20.9921                 5.4645
 IR Inten    --    365.8397               149.3298                83.6301

                     70                     71                     72
                      A                      A                      A
 Frequencies --   2996.1989              3043.4901              3047.1566
 Red. masses --      1.0751                 1.0672                 1.0609
 Frc consts  --      5.6865                 5.8244                 5.8037
 IR Inten    --     40.1709                12.5215                33.6120

                     73                     74                     75
                      A                      A                      A
 Frequencies --   3049.7723              3062.8967              3075.6105
 Red. masses --      1.0629                 1.0615                 1.0368
 Frc consts  --      5.8250                 5.8672                 5.7784
 IR Inten    --     19.8766                26.0132                10.1477

                     76                     77                     78
                      A                      A                      A
 Frequencies --   3090.7044              3095.8203              3106.7868
 Red. masses --      1.0956                 1.1025                 1.1013
 Frc consts  --      6.1661                 6.2258                 6.2629
 IR Inten    --     41.4368                42.8852                10.8901

                     79                     80                     81
                      A                      A                      A
 Frequencies --   3112.2257              3145.5968              3164.4037
 Red. masses --      1.1017                 1.1027                 1.1024
 Frc consts  --      6.2870                 6.4288                 6.5040
 IR Inten    --     32.3107                19.8431                 7.5783

                     82                     83                     84
                      A                      A                      A
 Frequencies --   3173.5842              3572.2134              3710.0994
 Red. masses --      1.0887                 1.0466                 1.1035
 Frc consts  --      6.4602                 7.8689                 8.9495
 IR Inten    --      4.1274                51.6860                95.9606

 - Thermochemistry -
 -------------------
 Temperature   298.150 Kelvin.  Pressure   1.00000 Atm.
 Atom     1 has atomic number  6 and mass  12.00000

 Molecular mass:   200.11609 amu.
 Principal axes and moments of inertia in atomic units:
                           1         2         3
     Eigenvalues --  2161.989103122.068643981.25225
           X            0.99947   0.03232  -0.00347
           Y           -0.03236   0.99940  -0.01232
           Z            0.00307   0.01243   0.99992
 This molecule is an asymmetric top.
 Rotational symmetry number  1.
 Warning -- assumption of classical behavior for rotation
           may cause significant error
 Rotational temperatures (Kelvin)      0.04006     0.02774     0.02176
 Rotational constants (GHZ):           0.83476     0.57806     0.45331
 Zero-point vibrational energy     676030.7 (Joules/Mol)
                                  161.57520 (Kcal/Mol)
 Warning -- explicit consideration of  23 degrees of freedom as
           vibrations may cause significant error
 Vibrational temperatures:     60.11    87.51   117.27   157.52   189.47
          (Kelvin)            208.46   302.08   328.17   336.43   401.59
                              445.71   467.32   533.30   537.62   569.94
                              588.66   630.59   657.16   722.09   765.01
                              822.24   854.52   884.03   958.73   994.95
                             1054.11  1119.88  1189.25  1227.87  1281.30
                             1316.74  1324.92  1401.18  1459.96  1506.65
                             1515.53  1537.90  1559.48  1589.38  1611.72
                             1622.66  1658.13  1681.93  1722.57  1759.65
                             1807.53  1843.06  1851.59  1905.49  1918.35
                             1960.28  1990.61  2007.12  2025.35  2031.42
                             2037.91  2062.11  2079.92  2143.00  2169.85
                             2181.22  2184.21  2202.15  2209.19  2222.04
                             2337.04  2567.71  2646.59  4205.55  4310.86
                             4378.90  4384.18  4387.94  4406.83  4425.12
                             4446.83  4454.19  4469.97  4477.80  4525.81
                             4552.87  4566.08  5139.62  5338.01

 Zero-point correction=                           0.257486 (Hartree/Particle)
 Thermal correction to Energy=                    0.271559
 Thermal correction to Enthalpy=                  0.272503
 Thermal correction to Gibbs Free Energy=         0.216807
 Sum of electronic and zero-point Energies=           -687.565900
 Sum of electronic and thermal Energies=              -687.551827
 Sum of electronic and thermal Enthalpies=            -687.550883
 Sum of electronic and thermal Free Energies=         -687.606579

                     E (Thermal)             CV                S
                      KCal/Mol        Cal/Mol-Kelvin    Cal/Mol-Kelvin
 Total                  170.406             54.022            117.222
 Electronic               0.000              0.000              0.000
 Translational            0.889              2.981             41.786
 Rotational               0.889              2.981             31.664
 Vibrational            168.628             48.060             43.773
 Vibration     1          0.594              1.980              5.173
 Vibration     2          0.597              1.973              4.430
 Vibration     3          0.600              1.962              3.854
 Vibration     4          0.606              1.942              3.278
 Vibration     5          0.612              1.922              2.921
 Vibration     6          0.616              1.908              2.738
 Vibration     7          0.642              1.826              2.044
 Vibration     8          0.651              1.798              1.894
 Vibration     9          0.654              1.789              1.849
 Vibration    10          0.679              1.712              1.539
 Vibration    11          0.699              1.655              1.363
 Vibration    12          0.709              1.626              1.286
 Vibration    13          0.743              1.532              1.077
 Vibration    14          0.745              1.526              1.065
 Vibration    15          0.763              1.478              0.977
 Vibration    16          0.774              1.450              0.930
 Vibration    17          0.798              1.387              0.832
 Vibration    18          0.815              1.346              0.776
 Vibration    19          0.857              1.246              0.653
 Vibration    20          0.887              1.180              0.583
 Vibration    21          0.928              1.093              0.501
 Vibration    22          0.952              1.045              0.460
 Vibration    23          0.974              1.001              0.425

 Optimization completed.
    -- Stationary point found.
 Normal termination of Gaussian 16 at Thu Dec 10 10:35:45 2020.

 ----------------------------------------------------------------------
 # B3LYP/6-311++G(d,p) empiricaldispersion=gd3bj scf=xqc pop=npa geom=c
 heck
 ----------------------------------------------------------------------

 --------------------------------------
 CID_87552702_JID_4678_Energie_neutraal
 --------------------------------------
 Structure from the checkpoint file:  "JID_4678.chk"
 Charge =  0 Multiplicity = 1

 SCF Done:  E(RB3LYP) =  -688.031145410     A.U. after   14 cycles
 Normal termination of Gaussian 16 at Thu Dec 10 10:39:23 2020.

 ----------------------------------------------------------------------
 # B3LYP/6-311++G(d,p) empiricaldispersion=gd3bj scf=xqc pop=npa geom=c
 heck
 ----------------------------------------------------------------------

 ------------------------------------
 CID_87552702_JID_4678_Energie_kation
 ------------------------------------
 Structure from the checkpoint file:  "JID_4678.chk"
 Charge =  1 Multiplicity = 2

 SCF Done:  E(UB3LYP) =  -687.709015729     A.U. after   27 cycles
 Normal termination of Gaussian 16 at Thu Dec 10 10:48:25 2020.
 Gaussian 16:  ES64L-G16RevA.03 25-Dec-2016

 ----------------------------------------------------------------------
 # B3LYP/6-311++G(d,p) empiricaldispersion=gd3bj scf=xqc pop=npa geom=c
 heck
 ----------------------------------------------------------------------

 -----------------------------------
 CID_87552702_JID_4678_Energie_anion
 -----------------------------------
 Structure from the checkpoint file:  "JID_4678.chk"
 Charge = -1 Multiplicity = 2

                         Standard orientation:
 ---------------------------------------------------------------------
 Center     Atomic      Atomic             Coordinates (Angstroms)
 Number     Number       Type             X           Y           Z
 ---------------------------------------------------------------------
      1          6           0        0.697677    0.145117    2.182766
      2          6           0        0.037768    0.187234    0.802543
      3          6           0       -0.643271    1.548448    0.551675
      4          6           0        0.317200    2.680194    0.193637
      5          6           0        1.107839    2.255751   -1.041273
      6          6           0        1.864529    0.966361   -0.760957
      7          7           0        0.991235   -0.127164   -0.282656
      8          6           0        1.612317   -1.391296   -0.398293
      9          8           0        2.580881   -1.558807   -1.131560
     10          7           0        1.096104   -2.423506    0.344370
     11          8           0       -0.990981   -0.828239    0.859054
     12          6           0       -1.767446   -1.019525   -0.316935
     13          6           0       -3.123401   -0.338282   -0.212963
     14          8           0       -3.884436   -0.231018   -1.146299
     15          1           0        1.460741    0.925387    2.254919
     16          1           0        1.177086   -0.821360    2.349887
     17          1           0       -0.049683    0.312840    2.963415
     18          1           0       -1.343257    1.442606   -0.284612
     19          1           0       -1.236516    1.781475    1.441897
     20          1           0        1.003489    2.887158    1.025446
     21          1           0       -0.248326    3.600982    0.011907
     22          1           0        1.829362    3.025667   -1.337682
     23          1           0        0.421900    2.108578   -1.886059
     24          1           0        2.652556    1.162242   -0.015875
     25          1           0        2.363084    0.592660   -1.652978
     26          1           0        0.190835   -2.339176    0.785180
     27          1           0        1.453802   -3.333396    0.095564
     28          1           0       -1.238188   -0.689348   -1.217001
     29          1           0       -1.940065   -2.098917   -0.421106
     30          1           0       -3.371182    0.037795    0.804343
 ---------------------------------------------------------------------

 SCF Done:  E(UB3LYP) =  -688.024612566     A.U. after   33 cycles
 SCF Done:  E(UB3LYP) =  -688.024612566     a.u. after    1 cycles

 The electronic state is 2-A.
 Alpha  occ. eigenvalues --  -19.03830 -18.98385 -18.97924 -14.23567 -14.21970
 Alpha  occ. eigenvalues --  -10.19391 -10.17474 -10.11330 -10.11293 -10.09951
 Alpha  occ. eigenvalues --  -10.07322 -10.07154 -10.07125 -10.06526  -0.96067
 Alpha  occ. eigenvalues --   -0.94102  -0.91773  -0.82940  -0.79505  -0.70819
 Alpha  occ. eigenvalues --   -0.68612  -0.62150  -0.59959  -0.56310  -0.52523
 Alpha  occ. eigenvalues --   -0.49933  -0.46758  -0.45572  -0.44112  -0.42187
 Alpha  occ. eigenvalues --   -0.39281  -0.37934  -0.37072  -0.35600  -0.34298
 Alpha  occ. eigenvalues --   -0.33335  -0.32713  -0.31991  -0.31579  -0.31328
 Alpha  occ. eigenvalues --   -0.30120  -0.29288  -0.28801  -0.27090  -0.25643
 Alpha  occ. eigenvalues --   -0.24751  -0.23668  -0.23548  -0.22288  -0.19229
 Alpha  occ. eigenvalues --   -0.17188  -0.16696  -0.14622  -0.12944   0.04540
 Alpha virt. eigenvalues --    0.06181   0.07012   0.07729   0.08334   0.09672
 Alpha virt. eigenvalues --    0.10053   0.10626   0.10683   0.11449   0.12507
 Alpha virt. eigenvalues --    0.12876   0.13192   0.13785   0.14082   0.14257

  Beta  occ. eigenvalues --  -19.03828 -18.98075 -18.97921 -14.23565 -14.21941
  Beta  occ. eigenvalues --  -10.19388 -10.17475 -10.11355 -10.10976 -10.09944
  Beta  occ. eigenvalues --  -10.07312 -10.07126 -10.07092 -10.06499  -0.96055
  Beta  occ. eigenvalues --   -0.94088  -0.91184  -0.82929  -0.79466  -0.70780
  Beta  occ. eigenvalues --   -0.68571  -0.62039  -0.59778  -0.56259  -0.52478
  Beta  occ. eigenvalues --   -0.49839  -0.46177  -0.45512  -0.44051  -0.42121
  Beta  occ. eigenvalues --   -0.39203  -0.37838  -0.37017  -0.35510  -0.34191
  Beta  occ. eigenvalues --   -0.33279  -0.32620  -0.31770  -0.31490  -0.31114
  Beta  occ. eigenvalues --   -0.29954  -0.29172  -0.28697  -0.26761  -0.25595
  Beta  occ. eigenvalues --   -0.24277  -0.23510  -0.23118  -0.21968  -0.19144
  Beta  occ. eigenvalues --   -0.17175  -0.16678  -0.14609  -0.12711
  Beta virt. eigenvalues --    0.06913   0.07657   0.08266   0.08825   0.09705
  Beta virt. eigenvalues --    0.10161   0.10357   0.10869   0.10891   0.11606
  Beta virt. eigenvalues --    0.12776   0.13012   0.13483   0.14080   0.14280

 Mulliken charges and spin densities:
               1          2
     1  C    1.470811  -1.762831
     2  C   -2.130590   0.877394
     3  C   -0.587942   0.763433
     4  C    0.737307  -1.209403
     5  C   -0.483774   0.193064
     6  C    0.557801  -0.890093
     7  N    0.241409  -0.035656
     8  C    0.405521  -0.077047
     9  O   -0.379998  -0.000494
    10  N   -0.403557  -0.030671
    11  O   -0.008437   0.007218
    12  C    0.249940  -0.203975
    13  C   -0.442075   0.362286
    14  O   -0.287547   0.092216
    15  H   -0.101074   0.258633
    16  H   -0.004774   0.159526
    17  H   -0.153159   0.329692
    18  H    0.427060  -0.234075
    19  H    0.042293   0.139831
    20  H   -0.162891   0.299595
    21  H   -0.540111   0.730777
    22  H   -0.261888   0.437085
    23  H    0.148573  -0.025715
    24  H    0.027773   0.156419
    25  H    0.213341  -0.011537
    26  H    0.284399   0.008204
    27  H   -0.037641   0.354958
    28  H    0.257965  -0.028360
    29  H   -0.145909   0.335050
    30  H    0.067175   0.004474
 Sum of Mulliken charges =  -1.00000   1.00000

 Dipole moment (field-independent basis, Debye):
    X=              1.1318    Y=             -0.9586    Z=              0.5979  Tot=              1.5992
 Quadrupole moment (field-independent basis, Debye-Ang):
   XX=           -144.9737   YY=           -133.6189   ZZ=           -115.1014
   XY=              0.8709   XZ=             -5.7044   YZ=             -5.9414

 Summary of Natural Population Analysis:

                                       Natural Population
                Natural  -----------------------------------------------
    Atom  No    Charge         Core      Valence    Rydberg      Total
 -----------------------------------------------------------------------
      C    1   -0.30132      0.99958     2.29473    0.00702     3.30132
      C    2    0.24852      0.99953     1.73404    0.01792     2.75148
      C    3   -0.20768      0.99956     2.19603    0.01208     3.20768
      C    4   -0.18982      0.99962     2.18104    0.00916     3.18982
      C    5   -0.19428      0.99962     2.18610    0.00855     3.19428
      C    6   -0.08409      0.99960     2.07387    0.01062     3.08409
      N    7   -0.29539      0.99961     2.78577    0.01002     3.79539
      C    8    0.41004      0.99970     1.56676    0.02350     2.58996
      O    9   -0.34355      0.99988     3.33861    0.00506     4.34355
      N   10   -0.41747      0.99971     2.91018    0.00759     3.91747
      O   11   -0.31964      0.99987     3.30940    0.01037     4.31964
      C   12   -0.07252      0.99955     2.05976    0.01321     3.07252
      C   13    0.24960      0.99975     1.73073    0.01992     2.75040
      O   14   -0.25931      0.99988     3.25277    0.00666     4.25931
      H   15    0.10351      0.00000     0.39537    0.00111     0.39649
      H   16    0.10911      0.00000     0.38958    0.00131     0.39089
      H   17    0.10607      0.00000     0.39271    0.00121     0.39393
      H   18    0.10623      0.00000     0.39210    0.00166     0.39377
      H   19    0.10785      0.00000     0.39096    0.00119     0.39215
      H   20    0.09580      0.00000     0.40250    0.00170     0.40420
      H   21    0.10283      0.00000     0.39579    0.00139     0.39717
      H   22    0.10277      0.00000     0.39626    0.00097     0.39723
      H   23    0.09539      0.00000     0.40334    0.00126     0.40461
      H   24    0.08681      0.00000     0.41210    0.00109     0.41319
      H   25    0.11594      0.00000     0.38303    0.00103     0.38406
      H   26    0.20564      0.00000     0.29194    0.00242     0.29436
      H   27    0.19504      0.00000     0.30288    0.00208     0.30496
      H   28    0.10259      0.00000     0.39610    0.00131     0.39741
      H   29    0.10289      0.00000     0.39524    0.00187     0.39711
      H   30    0.03843      0.00000     0.45940    0.00218     0.46157
 =======================================================================
   * Total *    0.00000     13.99546    39.81907    0.18546    54.00000

 Normal termination of Gaussian 16 at Thu Dec 10 10:59:06 2020.
