 Gaussian 16, Revision A.03,

 -----------------------------------------------------------
 # opt freq B3LYP/6-31G(d) empiricaldispersion=gd3bj scf=xqc
 -----------------------------------------------------------

 ------------------------------
 CID_57124216_JID_3959_neutraal
 ------------------------------
 Symbolic Z-matrix:
 Charge =  0 Multiplicity = 1

 SCF Done:  E(RB3LYP) =  -558.222255491     A.U. after   15 cycles
 SCF Done:  E(RB3LYP) =  -558.225047174     A.U. after   13 cycles
 SCF Done:  E(RB3LYP) =  -558.224380570     A.U. after   13 cycles
 SCF Done:  E(RB3LYP) =  -558.226041053     A.U. after   13 cycles
 SCF Done:  E(RB3LYP) =  -558.226096455     A.U. after   13 cycles
 SCF Done:  E(RB3LYP) =  -558.226565819     A.U. after   12 cycles
 SCF Done:  E(RB3LYP) =  -558.226721922     A.U. after   12 cycles
 SCF Done:  E(RB3LYP) =  -558.226736003     A.U. after   10 cycles
 SCF Done:  E(RB3LYP) =  -558.226739920     A.U. after   10 cycles
 SCF Done:  E(RB3LYP) =  -558.226741234     A.U. after    9 cycles
 SCF Done:  E(RB3LYP) =  -558.226742565     A.U. after    8 cycles
 SCF Done:  E(RB3LYP) =  -558.226742664     A.U. after    8 cycles
 SCF Done:  E(RB3LYP) =  -558.226742709     A.U. after    7 cycles
 SCF Done:  E(RB3LYP) =  -558.226742737     A.U. after    7 cycles
 SCF Done:  E(RB3LYP) =  -558.226742752     A.U. after    7 cycles
 Optimization completed.
    -- Stationary point found.
 Normal termination of Gaussian 16 at Sun Dec 13 12:26:00 2020.

 --------------------------------------------------------------------
 #N Geom=AllCheck Guess=TCheck SCRF=Check GenChk RB3LYP/6-31G(d) Freq
 --------------------------------------------------------------------

 Structure from the checkpoint file:  "JID_3959.chk"
 ------------------------------
 CID_57124216_JID_3959_neutraal
 ------------------------------
 Charge =  0 Multiplicity = 1

 SCF Done:  E(RB3LYP) =  -558.226742752     A.U. after    1 cycles

  Exact polarizability: 165.205  -3.017 126.668   2.724   3.940  76.547
 Approx polarizability: 220.104 -11.165 222.860   6.867  12.363 110.635

                      1                      2                      3
                      A                      A                      A
 Frequencies --     29.1680                29.9338                85.9394
 Red. masses --      4.2244                 2.6333                 3.2982
 Frc consts  --      0.0021                 0.0014                 0.0144
 IR Inten    --      1.7932                 0.5974                 3.2658

                      4                      5                      6
                      A                      A                      A
 Frequencies --    125.7997               139.0118               160.9642
 Red. masses --      4.0411                 3.2714                 3.3845
 Frc consts  --      0.0377                 0.0372                 0.0517
 IR Inten    --      0.2533                 2.6190                 1.4283

                      7                      8                      9
                      A                      A                      A
 Frequencies --    185.3952               210.1708               224.9336
 Red. masses --      1.3080                 1.3832                 1.2865
 Frc consts  --      0.0265                 0.0360                 0.0384
 IR Inten    --     32.3584                37.4112                 0.3185

                     10                     11                     12
                      A                      A                      A
 Frequencies --    251.2200               254.7527               323.1636
 Red. masses --      1.6431                 2.6054                 3.2214
 Frc consts  --      0.0611                 0.0996                 0.1982
 IR Inten    --      3.7711                 4.6204                 0.7863

                     13                     14                     15
                      A                      A                      A
 Frequencies --    349.8014               387.0779               417.2721
 Red. masses --      3.0263                 2.7661                 3.7808
 Frc consts  --      0.2182                 0.2442                 0.3879
 IR Inten    --      3.1740                 2.2547                 0.7111

                     16                     17                     18
                      A                      A                      A
 Frequencies --    442.5640               512.7896               552.3876
 Red. masses --      3.4161                 4.0766                 4.1893
 Frc consts  --      0.3942                 0.6316                 0.7532
 IR Inten    --      2.2890                10.4322                28.0961

                     19                     20                     21
                      A                      A                      A
 Frequencies --    582.4319               618.8699               701.1724
 Red. masses --      4.2736                 3.6857                 5.5721
 Frc consts  --      0.8542                 0.8317                 1.6141
 IR Inten    --      2.3823                 2.0655                 0.2901

                     22                     23                     24
                      A                      A                      A
 Frequencies --    714.3759               760.3816               801.1054
 Red. masses --      2.5352                 2.7658                 1.1812
 Frc consts  --      0.7623                 0.9422                 0.4466
 IR Inten    --      5.6717                43.1026                 0.5867

                     25                     26                     27
                      A                      A                      A
 Frequencies --    820.7941               832.9418               854.0116
 Red. masses --      1.7498                 3.1383                 1.7651
 Frc consts  --      0.6946                 1.2828                 0.7585
 IR Inten    --      4.7380                22.2905               127.9939

                     28                     29                     30
                      A                      A                      A
 Frequencies --    916.9461               930.1720               950.5199
 Red. masses --      1.5808                 1.3631                 1.4089
 Frc consts  --      0.7831                 0.6949                 0.7500
 IR Inten    --     21.2978                 5.1334                 6.8764

                     31                     32                     33
                      A                      A                      A
 Frequencies --    979.0057               981.7244              1013.2993
 Red. masses --      1.9654                 1.3875                 1.8511
 Frc consts  --      1.1099                 0.7879                 1.1198
 IR Inten    --      8.7585                 1.1157                25.1605

                     34                     35                     36
                      A                      A                      A
 Frequencies --   1023.2600              1059.8283              1084.3598
 Red. masses --      5.9219                 1.5238                 2.4246
 Frc consts  --      3.6533                 1.0084                 1.6797
 IR Inten    --      0.1215                 6.2769                15.2324

                     37                     38                     39
                      A                      A                      A
 Frequencies --   1091.2451              1099.4332              1138.3182
 Red. masses --      2.1712                 1.7556                 1.6240
 Frc consts  --      1.5233                 1.2503                 1.2398
 IR Inten    --      9.7942                16.2868                 4.4675

                     40                     41                     42
                      A                      A                      A
 Frequencies --   1155.8627              1208.7488              1224.7727
 Red. masses --      1.4948                 1.1596                 2.2958
 Frc consts  --      1.1766                 0.9983                 2.0291
 IR Inten    --     44.1240                 4.3454                10.7933

                     43                     44                     45
                      A                      A                      A
 Frequencies --   1241.9966              1285.8919              1318.8728
 Red. masses --      1.8524                 1.3511                 2.6440
 Frc consts  --      1.6835                 1.3163                 2.7096
 IR Inten    --      3.1676                 4.2828               129.3597

                     46                     47                     48
                      A                      A                      A
 Frequencies --   1345.5849              1357.0496              1372.4127
 Red. masses --      1.3150                 1.3290                 3.6430
 Frc consts  --      1.4028                 1.4420                 4.0428
 IR Inten    --      3.9170                 4.9108                 4.3286

                     49                     50                     51
                      A                      A                      A
 Frequencies --   1373.7244              1427.3271              1433.9526
 Red. masses --      1.7145                 1.2347                 1.2825
 Frc consts  --      1.9063                 1.4820                 1.5538
 IR Inten    --      0.3724                 3.5642                 8.9800

                     52                     53                     54
                      A                      A                      A
 Frequencies --   1436.4299              1481.4318              1518.0514
 Red. masses --      1.2189                 2.9360                 1.0836
 Frc consts  --      1.4818                 3.7964                 1.4713
 IR Inten    --      1.2512                15.9504                 1.0210

                     55                     56                     57
                      A                      A                      A
 Frequencies --   1521.2957              1526.1128              1527.9902
 Red. masses --      1.0665                 1.0409                 1.0894
 Frc consts  --      1.4542                 1.4284                 1.4986
 IR Inten    --      2.3005                 8.0940                 5.8708

                     58                     59                     60
                      A                      A                      A
 Frequencies --   1535.9120              1539.5648              1644.3994
 Red. masses --      1.7029                 1.2435                 5.3307
 Frc consts  --      2.3669                 1.7366                 8.4927
 IR Inten    --      2.9978                 5.1747                 3.6960

                     61                     62                     63
                      A                      A                      A
 Frequencies --   1660.6430              1692.5125              1772.2880
 Red. masses --      5.8521                 1.0939                11.4622
 Frc consts  --      9.5086                 1.8462                21.2122
 IR Inten    --     22.7945                42.9561               143.7770

                     64                     65                     66
                      A                      A                      A
 Frequencies --   3048.3888              3048.5224              3050.0470
 Red. masses --      1.0435                 1.0487                 1.0377
 Frc consts  --      5.7134                 5.7420                 5.6879
 IR Inten    --     34.7513                13.6936                34.2184

                     67                     68                     69
                      A                      A                      A
 Frequencies --   3084.5781              3088.0202              3115.9118
 Red. masses --      1.1036                 1.0869                 1.1021
 Frc consts  --      6.1864                 6.1064                 6.3045
 IR Inten    --      7.2815                 5.5217                29.6800

                     70                     71                     72
                      A                      A                      A
 Frequencies --   3120.7738              3124.9614              3129.1054
 Red. masses --      1.1030                 1.1035                 1.1010
 Frc consts  --      6.3290                 6.3493                 6.3512
 IR Inten    --     44.4546                33.7086                38.6947

                     73                     74                     75
                      A                      A                      A
 Frequencies --   3178.6159              3198.4792              3210.3607
 Red. masses --      1.0874                 1.0919                 1.0898
 Frc consts  --      6.4730                 6.5814                 6.6177
 IR Inten    --      8.4715                21.0741                 3.4335

                     76                     77                     78
                      A                      A                      A
 Frequencies --   3223.4672              3481.6493              3572.8866
 Red. masses --      1.0919                 1.0499                 1.0918
 Frc consts  --      6.6844                 7.4983                 8.2119
 IR Inten    --     19.2030                 1.6415                 0.1537

 - Thermochemistry -
 -------------------
 Temperature   298.150 Kelvin.  Pressure   1.00000 Atm.
 Atom     1 has atomic number  6 and mass  12.00000

 Molecular mass:   177.11536 amu.
 Principal axes and moments of inertia in atomic units:
                           1         2         3
     Eigenvalues --  1173.205914090.508964627.89413
           X            0.99976   0.02103  -0.00667
           Y           -0.02113   0.99967  -0.01494
           Z            0.00635   0.01508   0.99987
 This molecule is an asymmetric top.
 Rotational symmetry number  1.
 Warning -- assumption of classical behavior for rotation
           may cause significant error
 Rotational temperatures (Kelvin)      0.07383     0.02117     0.01872
 Rotational constants (GHZ):           1.53830     0.44120     0.38997
 Zero-point vibrational energy     633513.2 (Joules/Mol)
                                  151.41329 (Kcal/Mol)
 Warning -- explicit consideration of  20 degrees of freedom as
           vibrations may cause significant error
 Vibrational temperatures:     41.97    43.07   123.65   181.00   200.01
          (Kelvin)            231.59   266.74   302.39   323.63   361.45
                              366.53   464.96   503.29   556.92   600.36
                              636.75   737.79   794.76   837.99   890.42
                             1008.83  1027.83  1094.02  1152.61  1180.94
                             1198.42  1228.73  1319.28  1338.31  1367.59
                             1408.57  1412.48  1457.91  1472.24  1524.86
                             1560.15  1570.06  1581.84  1637.79  1663.03
                             1739.12  1762.17  1786.96  1850.11  1897.56
                             1936.00  1952.49  1974.60  1976.48  2053.61
                             2063.14  2066.70  2131.45  2184.14  2188.81
                             2195.74  2198.44  2209.83  2215.09  2365.92
                             2389.29  2435.15  2549.93  4385.95  4386.14
                             4388.34  4438.02  4442.97  4483.10  4490.10
                             4496.12  4502.08  4573.32  4601.90  4618.99
                             4637.85  5009.32  5140.59

 Zero-point correction=                           0.241292 (Hartree/Particle)
 Thermal correction to Energy=                    0.254791
 Thermal correction to Enthalpy=                  0.255735
 Thermal correction to Gibbs Free Energy=         0.200271
 Sum of electronic and zero-point Energies=           -557.985450
 Sum of electronic and thermal Energies=              -557.971952
 Sum of electronic and thermal Enthalpies=            -557.971007
 Sum of electronic and thermal Free Energies=         -558.026472

                     E (Thermal)             CV                S
                      KCal/Mol        Cal/Mol-Kelvin    Cal/Mol-Kelvin
 Total                  159.884             50.147            116.735
 Electronic               0.000              0.000              0.000
 Translational            0.889              2.981             41.422
 Rotational               0.889              2.981             31.474
 Vibrational            158.106             44.186             43.839
 Vibration     1          0.593              1.984              5.885
 Vibration     2          0.594              1.984              5.834
 Vibration     3          0.601              1.959              3.750
 Vibration     4          0.611              1.927              3.009
 Vibration     5          0.615              1.914              2.817
 Vibration     6          0.622              1.890              2.538
 Vibration     7          0.631              1.860              2.273
 Vibration     8          0.642              1.825              2.042
 Vibration     9          0.650              1.803              1.919
 Vibration    10          0.663              1.761              1.722
 Vibration    11          0.665              1.755              1.697
 Vibration    12          0.708              1.629              1.294
 Vibration    13          0.727              1.576              1.167
 Vibration    14          0.756              1.498              1.011
 Vibration    15          0.780              1.433              0.901
 Vibration    16          0.802              1.377              0.819
 Vibration    17          0.868              1.222              0.627
 Vibration    18          0.908              1.134              0.539
 Vibration    19          0.939              1.069              0.481
 Vibration    20          0.979              0.992              0.418

 Optimization completed.
    -- Stationary point found.
 Normal termination of Gaussian 16 at Sun Dec 13 12:32:29 2020.

 ----------------------------------------------------------------------
 # B3LYP/6-311++G(d,p) empiricaldispersion=gd3bj scf=xqc pop=npa geom=c
 heck
 ----------------------------------------------------------------------

 --------------------------------------
 CID_57124216_JID_3959_Energie_neutraal
 --------------------------------------
 Structure from the checkpoint file:  "JID_3959.chk"
 Charge =  0 Multiplicity = 1

 SCF Done:  E(RB3LYP) =  -558.387324782     A.U. after   15 cycles
 Normal termination of Gaussian 16 at Sun Dec 13 12:35:33 2020.

 ----------------------------------------------------------------------
 # B3LYP/6-311++G(d,p) empiricaldispersion=gd3bj scf=xqc pop=npa geom=c
 heck
 ----------------------------------------------------------------------

 ------------------------------------
 CID_57124216_JID_3959_Energie_kation
 ------------------------------------
 Structure from the checkpoint file:  "JID_3959.chk"
 Charge =  1 Multiplicity = 2

 SCF Done:  E(UB3LYP) =  -558.075136788     A.U. after   32 cycles
 Normal termination of Gaussian 16 at Sun Dec 13 12:44:55 2020.
 Gaussian 16:  ES64L-G16RevA.03 25-Dec-2016

 ----------------------------------------------------------------------
 # B3LYP/6-311++G(d,p) empiricaldispersion=gd3bj scf=xqc pop=npa geom=c
 heck
 ----------------------------------------------------------------------

 -----------------------------------
 CID_57124216_JID_3959_Energie_anion
 -----------------------------------
 Structure from the checkpoint file:  "JID_3959.chk"
 Charge = -1 Multiplicity = 2

                         Standard orientation:
 ---------------------------------------------------------------------
 Center     Atomic      Atomic             Coordinates (Angstroms)
 Number     Number       Type             X           Y           Z
 ---------------------------------------------------------------------
      1          6           0       -4.019694   -0.883261    0.995531
      2          6           0       -3.470142   -0.572220   -0.406355
      3          6           0       -2.124146    0.112665   -0.348573
      4          6           0       -0.945431   -0.632448   -0.317490
      5          6           0        0.310797   -0.021071   -0.200061
      6          6           0        0.378135    1.377987   -0.132713
      7          6           0       -0.789778    2.136885   -0.177508
      8          6           0       -2.030119    1.509190   -0.277165
      9          6           0        1.509007   -0.922626   -0.191869
     10          8           0        1.411120   -2.070309   -0.599224
     11          6           0        2.872551   -0.436688    0.325923
     12          6           0        3.637318    0.355461   -0.753942
     13          7           0        2.733773    0.213275    1.635308
     14          1           0       -3.334107   -1.538199    1.544094
     15          1           0       -4.994173   -1.380372    0.934554
     16          1           0       -4.139819    0.035829    1.579902
     17          1           0       -3.382512   -1.504182   -0.977294
     18          1           0       -4.184254    0.062675   -0.945259
     19          1           0       -0.977113   -1.715503   -0.386174
     20          1           0        1.332763    1.888257   -0.077987
     21          1           0       -0.731463    3.220970   -0.139620
     22          1           0       -2.937917    2.107437   -0.306667
     23          1           0        3.419375   -1.368336    0.499481
     24          1           0        3.150340    1.305743   -0.995395
     25          1           0        4.651806    0.576341   -0.401724
     26          1           0        3.718047   -0.226224   -1.679227
     27          1           0        3.655061    0.308338    2.058833
     28          1           0        2.357598    1.153529    1.544445
 ---------------------------------------------------------------------

 SCF Done:  E(UB3LYP) =  -558.391585618     A.U. after   33 cycles
 SCF Done:  E(UB3LYP) =  -558.391585618     a.u. after    1 cycles

 The electronic state is 2-A.
 Alpha  occ. eigenvalues --  -18.91450 -14.17148 -10.06460 -10.05752 -10.04990
 Alpha  occ. eigenvalues --  -10.04948 -10.04225 -10.02988 -10.02639 -10.01908
 Alpha  occ. eigenvalues --  -10.01198 -10.00945 -10.00890  -0.85750  -0.76142
 Alpha  occ. eigenvalues --   -0.70914  -0.65653  -0.61427  -0.59729  -0.58757
 Alpha  occ. eigenvalues --   -0.51140  -0.50700  -0.46616  -0.44116  -0.40075
 Alpha  occ. eigenvalues --   -0.36026  -0.34945  -0.33433  -0.32749  -0.31493
 Alpha  occ. eigenvalues --   -0.29792  -0.29638  -0.28822  -0.28007  -0.27117
 Alpha  occ. eigenvalues --   -0.26530  -0.24776  -0.24312  -0.22902  -0.22557
 Alpha  occ. eigenvalues --   -0.21957  -0.19387  -0.19203  -0.18689  -0.12789
 Alpha  occ. eigenvalues --   -0.10578  -0.10494  -0.07480   0.05346
 Alpha virt. eigenvalues --    0.07801   0.07833   0.09453   0.10210   0.10432
 Alpha virt. eigenvalues --    0.11016   0.11792   0.12475   0.12811   0.13326
 Alpha virt. eigenvalues --    0.13957   0.14117   0.14584   0.15219   0.16232

  Beta  occ. eigenvalues --  -18.90917 -14.17120 -10.06486 -10.05406 -10.04984
  Beta  occ. eigenvalues --  -10.04943 -10.04202 -10.03038 -10.02696 -10.01755
  Beta  occ. eigenvalues --  -10.00869 -10.00799 -10.00745  -0.84781  -0.76065
  Beta  occ. eigenvalues --   -0.70637  -0.65538  -0.61277  -0.59256  -0.58529
  Beta  occ. eigenvalues --   -0.50819  -0.50480  -0.46100  -0.43963  -0.39861
  Beta  occ. eigenvalues --   -0.35919  -0.34567  -0.33326  -0.32576  -0.31380
  Beta  occ. eigenvalues --   -0.29661  -0.29307  -0.28719  -0.27864  -0.26943
  Beta  occ. eigenvalues --   -0.26385  -0.24673  -0.23847  -0.22695  -0.22375
  Beta  occ. eigenvalues --   -0.20965  -0.19035  -0.18583  -0.17264  -0.12693
  Beta  occ. eigenvalues --   -0.09772  -0.08788  -0.06953
  Beta virt. eigenvalues --    0.07726   0.07856   0.09392   0.10119   0.10343
  Beta virt. eigenvalues --    0.10875   0.11640   0.11716   0.12401   0.12781
  Beta virt. eigenvalues --    0.13519   0.13912   0.14037   0.14658   0.15104

 Mulliken charges and spin densities:
               1          2
     1  C   -0.458317  -0.170200
     2  C   -0.314302  -0.026522
     3  C    0.902854   0.032872
     4  C   -0.200282   0.111045
     5  C    1.393493   0.088605
     6  C   -0.825021   0.077614
     7  C   -0.721470  -0.034840
     8  C   -0.469209   0.304874
     9  C   -0.699710   0.088334
    10  O   -0.375463   0.190208
    11  C   -0.071882   0.135002
    12  C   -0.372332  -0.189450
    13  N   -0.382204  -0.000472
    14  H    0.094581   0.043187
    15  H    0.018862   0.070442
    16  H    0.130819  -0.002425
    17  H    0.143503  -0.009985
    18  H    0.017321   0.107069
    19  H    0.185363  -0.006057
    20  H    0.024100  -0.016757
    21  H    0.104332   0.014918
    22  H    0.067953   0.002768
    23  H    0.143377   0.040317
    24  H    0.130277   0.005937
    25  H   -0.024041   0.143056
    26  H    0.160501  -0.006374
    27  H    0.218174  -0.003345
    28  H    0.178721   0.010179
 Sum of Mulliken charges =  -1.00000   1.00000

 Dipole moment (field-independent basis, Debye):
    X=             -0.1435    Y=              3.0315    Z=              0.9318  Tot=              3.1747
 Quadrupole moment (field-independent basis, Debye-Ang):
   XX=           -109.7449   YY=           -100.3112   ZZ=            -94.5905
   XY=              7.6662   XZ=              2.2411   YZ=             -0.1125

 Summary of Natural Population Analysis:

                                       Natural Population
                Natural  -----------------------------------------------
    Atom  No    Charge         Core      Valence    Rydberg      Total
 -----------------------------------------------------------------------
      C    1   -0.28081      0.99967     2.27680    0.00434     3.28081
      C    2   -0.19185      0.99961     2.18350    0.00874     3.19185
      C    3   -0.03762      0.99950     2.02860    0.00952     3.03762
      C    4   -0.05297      0.99948     2.04490    0.00859     3.05297
      C    5   -0.03757      0.99947     2.02793    0.01017     3.03757
      C    6   -0.07368      0.99954     2.06687    0.00728     3.07368
      C    7   -0.12426      0.99958     2.11536    0.00933     3.12426
      C    8   -0.04672      0.99952     2.03829    0.00891     3.04672
      C    9    0.31846      0.99960     1.65903    0.02292     2.68154
      O   10   -0.25620      0.99988     3.24990    0.00642     4.25620
      C   11   -0.05106      0.99958     2.03958    0.01190     3.05106
      C   12   -0.28889      0.99965     2.28425    0.00499     3.28889
      N   13   -0.41384      0.99977     2.90420    0.00987     3.91384
      H   14    0.09886      0.00000     0.39977    0.00137     0.40114
      H   15    0.08727      0.00000     0.41103    0.00171     0.41273
      H   16    0.09504      0.00000     0.40365    0.00130     0.40496
      H   17    0.09524      0.00000     0.40313    0.00163     0.40476
      H   18    0.09113      0.00000     0.40688    0.00198     0.40887
      H   19    0.10285      0.00000     0.39564    0.00151     0.39715
      H   20    0.08372      0.00000     0.41428    0.00201     0.41628
      H   21    0.08771      0.00000     0.41066    0.00163     0.41229
      H   22    0.08383      0.00000     0.41467    0.00150     0.41617
      H   23    0.09216      0.00000     0.40487    0.00297     0.40784
      H   24    0.09465      0.00000     0.40395    0.00139     0.40535
      H   25    0.08628      0.00000     0.41074    0.00298     0.41372
      H   26    0.10197      0.00000     0.39687    0.00116     0.39803
      H   27    0.16375      0.00000     0.33451    0.00174     0.33625
      H   28    0.17255      0.00000     0.32530    0.00215     0.32745
 =======================================================================
   * Total *    0.00000     12.99484    34.85517    0.14999    48.00000

 Normal termination of Gaussian 16 at Sun Dec 13 12:54:35 2020.
