 Gaussian 16, Revision A.03,

 -----------------------------------------------------------
 # opt freq B3LYP/6-31G(d) empiricaldispersion=gd3bj scf=xqc
 -----------------------------------------------------------

 -------------------------------
 CID_145652393_JID_4775_neutraal
 -------------------------------
 Symbolic Z-matrix:
 Charge =  0 Multiplicity = 1

 SCF Done:  E(RB3LYP) =  -632.018105117     A.U. after   15 cycles
 SCF Done:  E(RB3LYP) =  -632.022170923     A.U. after   13 cycles
 SCF Done:  E(RB3LYP) =  -632.022480946     A.U. after   12 cycles
 SCF Done:  E(RB3LYP) =  -632.022688782     A.U. after   13 cycles
 SCF Done:  E(RB3LYP) =  -632.023420630     A.U. after   12 cycles
 SCF Done:  E(RB3LYP) =  -632.023975510     A.U. after   12 cycles
 SCF Done:  E(RB3LYP) =  -632.023842941     A.U. after   14 cycles
 SCF Done:  E(RB3LYP) =  -632.024626147     A.U. after   11 cycles
 SCF Done:  E(RB3LYP) =  -632.024936021     A.U. after   11 cycles
 SCF Done:  E(RB3LYP) =  -632.025050023     A.U. after   12 cycles
 SCF Done:  E(RB3LYP) =  -632.025539674     A.U. after    9 cycles
 SCF Done:  E(RB3LYP) =  -632.025540511     A.U. after    9 cycles
 SCF Done:  E(RB3LYP) =  -632.025541147     A.U. after    8 cycles
 SCF Done:  E(RB3LYP) =  -632.025541391     A.U. after    8 cycles
 SCF Done:  E(RB3LYP) =  -632.025541442     A.U. after    7 cycles
 Optimization completed.
    -- Stationary point found.
 Normal termination of Gaussian 16 at Thu Dec 10 11:05:38 2020.

 --------------------------------------------------------------------
 #N Geom=AllCheck Guess=TCheck SCRF=Check GenChk RB3LYP/6-31G(d) Freq
 --------------------------------------------------------------------

 Structure from the checkpoint file:  "JID_4775.chk"
 -------------------------------
 CID_145652393_JID_4775_neutraal
 -------------------------------
 Charge =  0 Multiplicity = 1

 SCF Done:  E(RB3LYP) =  -632.025541442     A.U. after    1 cycles

  Exact polarizability: 145.673  -2.673 128.094   7.528   8.129 102.619
 Approx polarizability: 193.438   2.978 195.384  17.960  24.305 149.686

                      1                      2                      3
                      A                      A                      A
 Frequencies --     31.1155                33.2314                40.0812
 Red. masses --      2.9384                 3.8060                 3.3371
 Frc consts  --      0.0017                 0.0025                 0.0032
 IR Inten    --      0.5547                 0.5672                 3.3524

                      4                      5                      6
                      A                      A                      A
 Frequencies --     58.0889                63.8583                71.1394
 Red. masses --      3.6487                 2.8935                 3.4828
 Frc consts  --      0.0073                 0.0070                 0.0104
 IR Inten    --      4.0260                 0.5980                 2.9672

                      7                      8                      9
                      A                      A                      A
 Frequencies --     79.0238                92.7233                98.9373
 Red. masses --      4.8211                 3.3622                 1.8136
 Frc consts  --      0.0177                 0.0170                 0.0105
 IR Inten    --      5.7447                 1.9000                 0.8749

                     10                     11                     12
                      A                      A                      A
 Frequencies --    119.4333               131.7317               153.0382
 Red. masses --      1.1439                 1.3659                 2.2255
 Frc consts  --      0.0096                 0.0140                 0.0307
 IR Inten    --      0.1221                 0.5598                 0.3830

                     13                     14                     15
                      A                      A                      A
 Frequencies --    173.9477               203.3849               236.4507
 Red. masses --      3.4148                 1.2335                 3.4102
 Frc consts  --      0.0609                 0.0301                 0.1123
 IR Inten    --      1.6562                 0.2869                 1.8000

                     16                     17                     18
                      A                      A                      A
 Frequencies --    299.1944               312.6260               334.9696
 Red. masses --      2.6704                 3.8834                 1.1206
 Frc consts  --      0.1408                 0.2236                 0.0741
 IR Inten    --      3.7970                 4.2777                 0.1764

                     19                     20                     21
                      A                      A                      A
 Frequencies --    345.8350               470.3838               513.9767
 Red. masses --      1.9242                 3.2099                 1.6771
 Frc consts  --      0.1356                 0.4184                 0.2610
 IR Inten    --      2.4876                 8.5958                68.0716

                     22                     23                     24
                      A                      A                      A
 Frequencies --    536.8075               545.5285               583.2402
 Red. masses --      2.8064                 3.1804                 2.5171
 Frc consts  --      0.4765                 0.5577                 0.5045
 IR Inten    --      8.2952                17.5760                 3.3346

                     25                     26                     27
                      A                      A                      A
 Frequencies --    675.9192               682.7205               726.6888
 Red. masses --      2.5932                 3.4076                 3.8435
 Frc consts  --      0.6980                 0.9358                 1.1959
 IR Inten    --      9.3282                 6.1804                 3.8755

                     28                     29                     30
                      A                      A                      A
 Frequencies --    796.4776               798.6670               817.8181
 Red. masses --      1.5080                 1.5549                 2.3643
 Frc consts  --      0.5636                 0.5844                 0.9317
 IR Inten    --      7.1528                49.3915                26.3153

                     31                     32                     33
                      A                      A                      A
 Frequencies --    835.7663               844.3467               849.4643
 Red. masses --      1.0710                 1.0643                 1.4539
 Frc consts  --      0.4408                 0.4470                 0.6181
 IR Inten    --      3.4473                12.4581                16.0850

                     34                     35                     36
                      A                      A                      A
 Frequencies --    892.6464               939.8868               980.0090
 Red. masses --      1.5415                 5.8948                 2.7566
 Frc consts  --      0.7237                 3.0681                 1.5598
 IR Inten    --     21.4755                14.1139                14.3930

                     37                     38                     39
                      A                      A                      A
 Frequencies --   1009.7763              1013.9065              1026.8345
 Red. masses --      3.3032                 1.6357                 2.7554
 Frc consts  --      1.9844                 0.9907                 1.7117
 IR Inten    --      0.2329                 7.6420                 0.9022

                     40                     41                     42
                      A                      A                      A
 Frequencies --   1045.8068              1074.5083              1119.7310
 Red. masses --      2.2662                 2.4641                 1.5821
 Frc consts  --      1.4604                 1.6762                 1.1687
 IR Inten    --      9.1091                 9.5307                20.8594

                     43                     44                     45
                      A                      A                      A
 Frequencies --   1151.3427              1154.2550              1164.7038
 Red. masses --      1.6470                 2.0056                 1.3933
 Frc consts  --      1.2863                 1.5744                 1.1136
 IR Inten    --     24.1554                 9.8770                 1.8205

                     46                     47                     48
                      A                      A                      A
 Frequencies --   1182.1784              1237.4531              1238.2838
 Red. masses --      2.7681                 2.0930                 1.4703
 Frc consts  --      2.2793                 1.8883                 1.3283
 IR Inten    --     36.7331                39.6314                 1.2507

                     49                     50                     51
                      A                      A                      A
 Frequencies --   1239.4462              1267.5790              1274.4778
 Red. masses --      1.4613                 2.4018                 1.9163
 Frc consts  --      1.3226                 2.2737                 1.8339
 IR Inten    --      0.5192                35.3331                 6.3571

                     52                     53                     54
                      A                      A                      A
 Frequencies --   1296.6129              1306.3944              1371.6100
 Red. masses --      1.4023                 1.3276                 1.3530
 Frc consts  --      1.3890                 1.3349                 1.4997
 IR Inten    --      0.4690                 6.9953                 9.9332

                     55                     56                     57
                      A                      A                      A
 Frequencies --   1379.7698              1405.7987              1416.3770
 Red. masses --      1.6861                 2.5841                 1.3179
 Frc consts  --      1.8912                 3.0089                 1.5577
 IR Inten    --     13.4644                17.8668                30.0173

                     58                     59                     60
                      A                      A                      A
 Frequencies --   1437.1113              1442.8984              1460.8592
 Red. masses --      1.2002                 2.9276                 1.2425
 Frc consts  --      1.4605                 3.5912                 1.5623
 IR Inten    --      1.3454                21.1137                 3.5662

                     61                     62                     63
                      A                      A                      A
 Frequencies --   1480.8872              1488.6809              1496.0754
 Red. masses --      1.0751                 1.1378                 1.0778
 Frc consts  --      1.3892                 1.4856                 1.4213
 IR Inten    --      9.4158                 5.6807                 2.3353

                     64                     65                     66
                      A                      A                      A
 Frequencies --   1507.6993              1515.0163              1518.5384
 Red. masses --      1.2159                 1.1382                 2.8396
 Frc consts  --      1.6285                 1.5392                 3.8580
 IR Inten    --      5.0160                23.9222                20.0374

                     67                     68                     69
                      A                      A                      A
 Frequencies --   1524.7633              1533.2209              1537.3380
 Red. masses --      1.0952                 1.0341                 1.0404
 Frc consts  --      1.5002                 1.4322                 1.4488
 IR Inten    --      1.9965                 4.3583                 2.0205

                     70                     71                     72
                      A                      A                      A
 Frequencies --   1540.0805              1549.2687              1551.5861
 Red. masses --      1.0486                 1.0658                 1.0508
 Frc consts  --      1.4654                 1.5072                 1.4904
 IR Inten    --      5.9981                 9.2114                 7.2753

                     73                     74                     75
                      A                      A                      A
 Frequencies --   1622.4742              1812.1895              2950.9297
 Red. masses --      4.4038                10.5850                 1.0819
 Frc consts  --      6.8303                20.4809                 5.5509
 IR Inten    --      9.1371               159.1821                47.4985

                     76                     77                     78
                      A                      A                      A
 Frequencies --   2975.6569              3042.2248              3045.0114
 Red. masses --      1.0580                 1.0373                 1.0351
 Frc consts  --      5.5197                 5.6566                 5.6544
 IR Inten    --     91.9273                 6.8998                40.6375

                     79                     80                     81
                      A                      A                      A
 Frequencies --   3067.4370              3068.8114              3079.6733
 Red. masses --      1.0562                 1.0440                 1.0778
 Frc consts  --      5.8554                 5.7931                 6.0229
 IR Inten    --     11.1230                 4.4369                36.8470

                     82                     83                     84
                      A                      A                      A
 Frequencies --   3091.4527              3101.7967              3115.7262
 Red. masses --      1.1009                 1.1019                 1.1024
 Frc consts  --      6.1989                 6.2463                 6.3053
 IR Inten    --      2.2612                19.1649                68.3743

                     85                     86                     87
                      A                      A                      A
 Frequencies --   3124.7199              3126.9334              3130.5394
 Red. masses --      1.1028                 1.0984                 1.1003
 Frc consts  --      6.3439                 6.3280                 6.3531
 IR Inten    --     45.2800                 5.5463                17.1208

                     88                     89                     90
                      A                      A                      A
 Frequencies --   3131.4215              3170.9040              3262.1056
 Red. masses --      1.0986                 1.1051                 1.0951
 Frc consts  --      6.3468                 6.5468                 6.8658
 IR Inten    --     10.4655                14.2041                 7.2367

                     91                     92                     93
                      A                      A                      A
 Frequencies --   3268.3945              3488.2568              3642.2783
 Red. masses --      1.0983                 1.0742                 1.0809
 Frc consts  --      6.9127                 7.7009                 8.4485
 IR Inten    --      1.2232                21.2067                41.2043

 - Thermochemistry -
 -------------------
 Temperature   298.150 Kelvin.  Pressure   1.00000 Atm.
 Atom     1 has atomic number  6 and mass  12.00000

 Molecular mass:   197.15281 amu.
 Principal axes and moments of inertia in atomic units:
                           1         2         3
     Eigenvalues --  2616.546613945.792455117.19780
           X            0.99872  -0.04903  -0.01245
           Y            0.04864   0.99837  -0.02985
           Z            0.01390   0.02921   0.99948
 This molecule is an asymmetric top.
 Rotational symmetry number  1.
 Warning -- assumption of classical behavior for rotation
           may cause significant error
 Rotational temperatures (Kelvin)      0.03310     0.02195     0.01693
 Rotational constants (GHZ):           0.68974     0.45738     0.35268
 Zero-point vibrational energy     757529.0 (Joules/Mol)
                                  181.05379 (Kcal/Mol)
 Warning -- explicit consideration of  24 degrees of freedom as
           vibrations may cause significant error
 Vibrational temperatures:     44.77    47.81    57.67    83.58    91.88
          (Kelvin)            102.35   113.70   133.41   142.35   171.84
                              189.53   220.19   250.27   292.63   340.20
                              430.47   449.80   481.95   497.58   676.78
                              739.50   772.35   784.89   839.15   972.50
                              982.28  1045.54  1145.95  1149.10  1176.66
                             1202.48  1214.83  1222.19  1284.32  1352.29
                             1410.01  1452.84  1458.79  1477.39  1504.68
                             1545.98  1611.04  1656.53  1660.72  1675.75
                             1700.89  1780.42  1781.61  1783.29  1823.76
                             1833.69  1865.54  1879.61  1973.44  1985.18
                             2022.63  2037.85  2067.68  2076.01  2101.85
                             2130.67  2141.88  2152.52  2169.24  2179.77
                             2184.84  2193.79  2205.96  2211.89  2215.83
                             2229.05  2232.39  2334.38  2607.34  4245.73
                             4281.31  4377.08  4381.09  4413.36  4415.34
                             4430.96  4447.91  4462.79  4482.84  4495.78
                             4498.96  4504.15  4505.42  4562.22  4693.44
                             4702.49  5018.82  5240.43

 Zero-point correction=                           0.288528 (Hartree/Particle)
 Thermal correction to Energy=                    0.306285
 Thermal correction to Enthalpy=                  0.307229
 Thermal correction to Gibbs Free Energy=         0.240041
 Sum of electronic and zero-point Energies=           -631.737014
 Sum of electronic and thermal Energies=              -631.719257
 Sum of electronic and thermal Enthalpies=            -631.718313
 Sum of electronic and thermal Free Energies=         -631.785501

                     E (Thermal)             CV                S
                      KCal/Mol        Cal/Mol-Kelvin    Cal/Mol-Kelvin
 Total                  192.197             60.604            141.409
 Electronic               0.000              0.000              0.000
 Translational            0.889              2.981             41.741
 Rotational               0.889              2.981             32.335
 Vibrational            190.419             54.643             67.332
 Vibration     1          0.594              1.983              5.757
 Vibration     2          0.594              1.983              5.627
 Vibration     3          0.594              1.981              5.255
 Vibration     4          0.596              1.974              4.521
 Vibration     5          0.597              1.972              4.334
 Vibration     6          0.598              1.968              4.122
 Vibration     7          0.600              1.963              3.915
 Vibration     8          0.602              1.954              3.602
 Vibration     9          0.604              1.950              3.475
 Vibration    10          0.609              1.933              3.110
 Vibration    11          0.612              1.922              2.921
 Vibration    12          0.619              1.899              2.634
 Vibration    13          0.627              1.875              2.392
 Vibration    14          0.639              1.835              2.102
 Vibration    15          0.655              1.785              1.829
 Vibration    16          0.692              1.675              1.421
 Vibration    17          0.701              1.650              1.348
 Vibration    18          0.716              1.606              1.236
 Vibration    19          0.724              1.584              1.185
 Vibration    20          0.827              1.316              0.736
 Vibration    21          0.869              1.219              0.624
 Vibration    22          0.892              1.169              0.572
 Vibration    23          0.901              1.149              0.554
 Vibration    24          0.940              1.068              0.479

                           ! Non-Optimized Parameters !
 Normal termination of Gaussian 16 at Thu Dec 10 11:16:25 2020.

 ----------------------------------------------------------------------
 # B3LYP/6-311++G(d,p) empiricaldispersion=gd3bj scf=xqc pop=npa geom=c
 heck
 ----------------------------------------------------------------------

 ---------------------------------------
 CID_145652393_JID_4775_Energie_neutraal
 ---------------------------------------
 Structure from the checkpoint file:  "JID_4775.chk"
 Charge =  0 Multiplicity = 1

 SCF Done:  E(RB3LYP) =  -632.213209145     A.U. after   15 cycles
 Normal termination of Gaussian 16 at Thu Dec 10 11:21:28 2020.

 ----------------------------------------------------------------------
 # B3LYP/6-311++G(d,p) empiricaldispersion=gd3bj scf=xqc pop=npa geom=c
 heck
 ----------------------------------------------------------------------

 -------------------------------------
 CID_145652393_JID_4775_Energie_kation
 -------------------------------------
 Structure from the checkpoint file:  "JID_4775.chk"
 Charge =  1 Multiplicity = 2

 SCF Done:  E(UB3LYP) =  -631.908346603     A.U. after   24 cycles
 Normal termination of Gaussian 16 at Thu Dec 10 11:33:03 2020.
 Gaussian 16:  ES64L-G16RevA.03 25-Dec-2016

 ----------------------------------------------------------------------
 # B3LYP/6-311++G(d,p) empiricaldispersion=gd3bj scf=xqc pop=npa geom=c
 heck
 ----------------------------------------------------------------------

 ------------------------------------
 CID_145652393_JID_4775_Energie_anion
 ------------------------------------
 Structure from the checkpoint file:  "JID_4775.chk"
 Charge = -1 Multiplicity = 2

                         Standard orientation:
 ---------------------------------------------------------------------
 Center     Atomic      Atomic             Coordinates (Angstroms)
 Number     Number       Type             X           Y           Z
 ---------------------------------------------------------------------
      1          6           0       -0.711041    3.270806    0.638016
      2          6           0       -0.525750    3.437875   -0.872168
      3          6           0       -3.125827    0.017231   -0.367484
      4          6           0       -2.194322   -1.153348   -0.596586
      5          8           0       -2.494886   -2.103749   -1.294640
      6          6           0       -0.792965   -1.082739    0.024524
      7          6           0        0.133497   -0.378553   -1.004558
      8          6           0        1.548380   -0.295014   -0.540570
      9          6           0        2.277387    0.712506    0.053735
     10          7           0        3.550576    0.285991    0.372439
     11          6           0        3.601035   -0.969355   -0.015755
     12          7           0        2.416393   -1.374730   -0.568874
     13          7           0       -0.778728   -0.358391    1.282819
     14          6           0       -1.285654   -1.135127    2.409176
     15          1           0       -0.849667    2.219628    0.914561
     16          1           0       -1.588658    3.825281    0.990098
     17          1           0        0.158297    3.652152    1.186893
     18          1           0        0.370232    2.916171   -1.228862
     19          1           0       -1.383792    3.039108   -1.427529
     20          1           0       -0.419675    4.492575   -1.149928
     21          1           0       -4.012054   -0.098544   -0.994110
     22          1           0       -2.621625    0.964287   -0.587350
     23          1           0       -3.418943    0.070274    0.686315
     24          1           0       -0.454079   -2.130045    0.126793
     25          1           0        0.060435   -0.921569   -1.953931
     26          1           0       -0.236237    0.635495   -1.179549
     27          1           0        1.952838    1.723887    0.258538
     28          1           0        4.454705   -1.627895    0.071213
     29          1           0        2.209280   -2.286899   -0.950382
     30          1           0        0.175868   -0.059605    1.475602
     31          1           0       -0.774748   -2.104902    2.543771
     32          1           0       -1.176122   -0.552503    3.328437
     33          1           0       -2.353095   -1.342673    2.271865
 ---------------------------------------------------------------------

 SCF Done:  E(UB3LYP) =  -632.204741679     A.U. after   33 cycles
 SCF Done:  E(UB3LYP) =  -632.204741679     a.u. after    1 cycles

 The electronic state is 2-A.
 Alpha  occ. eigenvalues --  -19.01220 -14.26426 -14.21059 -14.19639 -10.15574
 Alpha  occ. eigenvalues --  -10.12443 -10.11208 -10.10944 -10.10050 -10.09429
 Alpha  occ. eigenvalues --  -10.08478 -10.07572 -10.07225 -10.06644  -0.94536
 Alpha  occ. eigenvalues --   -0.91588  -0.82458  -0.77326  -0.69839  -0.66511
 Alpha  occ. eigenvalues --   -0.65580  -0.62760  -0.57819  -0.54807  -0.52849
 Alpha  occ. eigenvalues --   -0.51247  -0.49338  -0.44023  -0.43322  -0.40520
 Alpha  occ. eigenvalues --   -0.38644  -0.37535  -0.35283  -0.35001  -0.34800
 Alpha  occ. eigenvalues --   -0.34564  -0.33538  -0.32718  -0.32329  -0.31597
 Alpha  occ. eigenvalues --   -0.31159  -0.30208  -0.28299  -0.28196  -0.27773
 Alpha  occ. eigenvalues --   -0.27528  -0.25770  -0.25625  -0.24888  -0.18724
 Alpha  occ. eigenvalues --   -0.17807  -0.16292  -0.14095  -0.13171   0.04172
 Alpha virt. eigenvalues --    0.05926   0.06283   0.06924   0.07735   0.08558
 Alpha virt. eigenvalues --    0.08945   0.09638   0.10175   0.10264   0.11072
 Alpha virt. eigenvalues --    0.11273   0.11616   0.12369   0.12560   0.13441

  Beta  occ. eigenvalues --  -19.01147 -14.26356 -14.21046 -14.19645 -10.15478
  Beta  occ. eigenvalues --  -10.12417 -10.11203 -10.10942 -10.10027 -10.09410
  Beta  occ. eigenvalues --  -10.08462 -10.07558 -10.07203 -10.06629  -0.94388
  Beta  occ. eigenvalues --   -0.91534  -0.82434  -0.77259  -0.69784  -0.66483
  Beta  occ. eigenvalues --   -0.65483  -0.62711  -0.57763  -0.54718  -0.52791
  Beta  occ. eigenvalues --   -0.51113  -0.49289  -0.43949  -0.43174  -0.40464
  Beta  occ. eigenvalues --   -0.38578  -0.37461  -0.35223  -0.34973  -0.34746
  Beta  occ. eigenvalues --   -0.34465  -0.33445  -0.32667  -0.32250  -0.31552
  Beta  occ. eigenvalues --   -0.31130  -0.30161  -0.28239  -0.28139  -0.27716
  Beta  occ. eigenvalues --   -0.27433  -0.25739  -0.25593  -0.24647  -0.18668
  Beta  occ. eigenvalues --   -0.17796  -0.16236  -0.14049  -0.13121
  Beta virt. eigenvalues --    0.06152   0.06807   0.07359   0.07765   0.07899
  Beta virt. eigenvalues --    0.08754   0.09720   0.09912   0.10290   0.10496
  Beta virt. eigenvalues --    0.11211   0.11628   0.11733   0.12519   0.12646

 Mulliken charges and spin densities:
               1          2
     1  C   -0.192003  -0.259697
     2  C   -0.169645  -0.291048
     3  C   -0.132184  -0.337619
     4  C   -0.444755   0.367999
     5  O   -0.252397   0.021522
     6  C   -0.186412   0.130890
     7  C   -0.127577  -1.009044
     8  C    0.760041  -0.367832
     9  C   -0.187719  -0.277891
    10  N   -0.102217   0.010454
    11  C    0.389162  -0.212126
    12  N   -0.108797   0.006450
    13  N   -0.021094  -0.009639
    14  C    0.229133  -0.569200
    15  H    0.381804  -0.151980
    16  H   -0.106287   0.228885
    17  H    0.005340   0.121734
    18  H    0.023940   0.128149
    19  H   -0.091856   0.243305
    20  H   -0.054864   0.190669
    21  H   -0.041664   0.204663
    22  H    0.143163  -0.014010
    23  H    0.044632   0.082441
    24  H    0.056498   0.170733
    25  H   -0.121018   0.359787
    26  H    0.249367  -0.104846
    27  H    0.327313  -0.113053
    28  H   -0.754039   0.938235
    29  H   -0.501573   0.835122
    30  H    0.135961   0.111296
    31  H   -0.109478   0.249272
    32  H   -0.111276   0.243977
    33  H    0.070502   0.072403
 Sum of Mulliken charges =  -1.00000   1.00000

 Dipole moment (field-independent basis, Debye):
    X=             -4.0123    Y=              3.9771    Z=              1.7425  Tot=              5.9121
 Quadrupole moment (field-independent basis, Debye-Ang):
   XX=           -154.5648   YY=           -147.8175   ZZ=           -119.3749
   XY=              9.0981   XZ=             -4.5899   YZ=             -7.1566

 Summary of Natural Population Analysis:

                                       Natural Population
                Natural  -----------------------------------------------
    Atom  No    Charge         Core      Valence    Rydberg      Total
 -----------------------------------------------------------------------
      C    1   -0.29637      0.99968     2.29112    0.00557     3.29637
      C    2   -0.28807      0.99968     2.28427    0.00412     3.28807
      C    3   -0.33648      0.99961     2.33146    0.00542     3.33648
      C    4    0.30482      0.99965     1.67455    0.02098     2.69518
      O    5   -0.28310      0.99987     3.27626    0.00696     4.28310
      C    6   -0.04431      0.99954     2.02996    0.01480     3.04431
      C    7   -0.20710      0.99957     2.19744    0.01010     3.20710
      C    8    0.04741      0.99953     1.93815    0.01491     2.95259
      C    9   -0.03863      0.99949     2.02648    0.01266     3.03863
      N   10   -0.25988      0.99973     2.74981    0.01034     3.75988
      C   11    0.10629      0.99965     1.87558    0.01848     2.89371
      N   12   -0.26937      0.99966     2.75795    0.01177     3.76937
      N   13   -0.34697      0.99973     2.83692    0.01032     3.84697
      C   14   -0.17557      0.99966     2.16938    0.00654     3.17557
      H   15    0.10775      0.00000     0.39037    0.00188     0.39225
      H   16    0.09387      0.00000     0.40511    0.00101     0.40613
      H   17    0.09356      0.00000     0.40556    0.00089     0.40644
      H   18    0.09665      0.00000     0.40212    0.00123     0.40335
      H   19    0.09494      0.00000     0.40374    0.00133     0.40506
      H   20    0.09458      0.00000     0.40444    0.00098     0.40542
      H   21    0.10623      0.00000     0.39241    0.00136     0.39377
      H   22    0.11271      0.00000     0.38574    0.00155     0.38729
      H   23    0.11228      0.00000     0.38651    0.00121     0.38772
      H   24    0.09403      0.00000     0.40364    0.00233     0.40597
      H   25    0.11405      0.00000     0.38471    0.00125     0.38595
      H   26    0.10964      0.00000     0.38736    0.00299     0.39036
      H   27    0.09870      0.00000     0.39989    0.00141     0.40130
      H   28    0.09521      0.00000     0.40275    0.00204     0.40479
      H   29    0.21403      0.00000     0.26251    0.02345     0.28597
      H   30    0.18188      0.00000     0.31438    0.00374     0.31812
      H   31    0.08371      0.00000     0.41473    0.00156     0.41629
      H   32    0.09475      0.00000     0.40434    0.00091     0.40525
      H   33    0.08876      0.00000     0.41006    0.00118     0.41124
 =======================================================================
   * Total *   -0.00000     13.99505    39.79969    0.20527    54.00000

 Normal termination of Gaussian 16 at Thu Dec 10 11:49:06 2020.
