 Gaussian 16, Revision A.03,

 -----------------------------------------------------------
 # opt freq B3LYP/6-31G(d) empiricaldispersion=gd3bj scf=xqc
 -----------------------------------------------------------

 -------------------------------
 CID_62819012_JID_10051_neutraal
 -------------------------------
 Symbolic Z-matrix:
 Charge =  0 Multiplicity = 1

 SCF Done:  E(RB3LYP) =  -1023.91287002     A.U. after   16 cycles
 SCF Done:  E(RB3LYP) =  -1023.91361404     A.U. after   16 cycles
 SCF Done:  E(RB3LYP) =  -1023.91998456     A.U. after   15 cycles
 SCF Done:  E(RB3LYP) =  -1023.91843782     A.U. after   15 cycles
 SCF Done:  E(RB3LYP) =  -1023.92224813     A.U. after   13 cycles
 SCF Done:  E(RB3LYP) =  -1023.91740935     A.U. after   15 cycles
 SCF Done:  E(RB3LYP) =  -1023.92224146     A.U. after   15 cycles
 SCF Done:  E(RB3LYP) =  -1023.92288203     A.U. after   11 cycles
 SCF Done:  E(RB3LYP) =  -1023.92271715     A.U. after   14 cycles
 SCF Done:  E(RB3LYP) =  -1023.92338632     A.U. after   14 cycles
 SCF Done:  E(RB3LYP) =  -1023.92367718     A.U. after    9 cycles
 SCF Done:  E(RB3LYP) =  -1023.92367768     A.U. after    8 cycles
 SCF Done:  E(RB3LYP) =  -1023.92367758     A.U. after    8 cycles
 SCF Done:  E(RB3LYP) =  -1023.92367755     A.U. after    7 cycles
 SCF Done:  E(RB3LYP) =  -1023.92367778     A.U. after    9 cycles
 Optimization completed.
    -- Stationary point found.
 Normal termination of Gaussian 16 at Sun Dec 13 12:58:21 2020.

 --------------------------------------------------------------------
 #N Geom=AllCheck Guess=TCheck SCRF=Check GenChk RB3LYP/6-31G(d) Freq
 --------------------------------------------------------------------

 Structure from the checkpoint file:  "JID_10051.chk"
 -------------------------------
 CID_62819012_JID_10051_neutraal
 -------------------------------
 Charge =  0 Multiplicity = 1

 SCF Done:  E(RB3LYP) =  -1023.92367778     A.U. after    1 cycles

  Exact polarizability: 181.123   8.586 154.152 -15.011   3.172 117.241
 Approx polarizability: 254.891  20.844 265.505 -33.084  17.588 192.470

                      1                      2                      3
                      A                      A                      A
 Frequencies --     33.4863                46.2892                52.8112
 Red. masses --      6.1584                 6.1256                11.6320
 Frc consts  --      0.0041                 0.0077                 0.0191
 IR Inten    --      2.4645                 4.3452                 0.3207

                      4                      5                      6
                      A                      A                      A
 Frequencies --     64.9677                83.6165                95.7193
 Red. masses --      4.9197                 6.4332                 5.7864
 Frc consts  --      0.0122                 0.0265                 0.0312
 IR Inten    --      0.8155                 4.7805                 1.3864

                      7                      8                      9
                      A                      A                      A
 Frequencies --    117.0046               141.4791               162.8597
 Red. masses --      5.2443                 3.7815                 6.3315
 Frc consts  --      0.0423                 0.0446                 0.0989
 IR Inten    --      0.6833                 1.6888                 4.7934

                     10                     11                     12
                      A                      A                      A
 Frequencies --    188.9901               194.7030               207.7013
 Red. masses --      7.9549                 1.7431                 2.3319
 Frc consts  --      0.1674                 0.0389                 0.0593
 IR Inten    --      1.4148                 2.6303                 0.5261

                     13                     14                     15
                      A                      A                      A
 Frequencies --    228.6361               244.2263               253.0704
 Red. masses --      2.9259                 4.7174                 1.7883
 Frc consts  --      0.0901                 0.1658                 0.0675
 IR Inten    --      3.3235                 1.1683                 0.6305

                     16                     17                     18
                      A                      A                      A
 Frequencies --    275.6864               298.7510               323.2878
 Red. masses --      1.4377                 2.8507                 1.1190
 Frc consts  --      0.0644                 0.1499                 0.0689
 IR Inten    --      0.7484                 7.0578                 0.4861

                     19                     20                     21
                      A                      A                      A
 Frequencies --    338.8096               360.6102               362.5043
 Red. masses --      3.0514                 2.9586                 5.1576
 Frc consts  --      0.2064                 0.2267                 0.3993
 IR Inten    --      3.1240                 1.4469                 4.5142

                     22                     23                     24
                      A                      A                      A
 Frequencies --    374.3603               399.8080               426.0647
 Red. masses --      3.6636                 3.1700                 6.9140
 Frc consts  --      0.3025                 0.2985                 0.7395
 IR Inten    --      5.0268                 1.0120                 6.0552

                     25                     26                     27
                      A                      A                      A
 Frequencies --    446.6566               477.0999               536.8325
 Red. masses --      3.4648                 2.7553                 3.3075
 Frc consts  --      0.4073                 0.3695                 0.5616
 IR Inten    --      3.2749                 0.1419                19.2002

                     28                     29                     30
                      A                      A                      A
 Frequencies --    555.0452               588.6366               599.6717
 Red. masses --      7.4191                 3.4306                 3.2172
 Frc consts  --      1.3467                 0.7003                 0.6816
 IR Inten    --      0.1212                35.9692                25.4632

                     31                     32                     33
                      A                      A                      A
 Frequencies --    621.0533               633.4449               674.3702
 Red. masses --      1.5333                 4.2221                 3.6310
 Frc consts  --      0.3485                 0.9982                 0.9729
 IR Inten    --     41.1050                 1.4769                 8.6579

                     34                     35                     36
                      A                      A                      A
 Frequencies --    678.7942               700.3255               747.1945
 Red. masses --      4.6324                 3.7783                 3.4527
 Frc consts  --      1.2576                 1.0918                 1.1357
 IR Inten    --     30.1093                27.2772                 6.2607

                     37                     38                     39
                      A                      A                      A
 Frequencies --    755.2711               764.8990               795.3085
 Red. masses --      2.7131                 4.6407                 2.9568
 Frc consts  --      0.9119                 1.5997                 1.1019
 IR Inten    --     20.3281                45.0969                11.7730

                     40                     41                     42
                      A                      A                      A
 Frequencies --    798.1270               834.9629               879.1423
 Red. masses --      2.3597                12.5895                 2.3871
 Frc consts  --      0.8856                 5.1712                 1.0870
 IR Inten    --      1.3685                57.5163                 6.0803

                     43                     44                     45
                      A                      A                      A
 Frequencies --    893.2533               948.1423               960.2380
 Red. masses --      1.3453                 2.4298                 1.6301
 Frc consts  --      0.6324                 1.2869                 0.8856
 IR Inten    --     48.3918                 6.1758                 2.5618

                     46                     47                     48
                      A                      A                      A
 Frequencies --    963.8471               994.6899              1007.6382
 Red. masses --      2.0040                 2.0074                 4.9977
 Frc consts  --      1.0969                 1.1702                 2.9897
 IR Inten    --      2.8426                10.7137                12.2240

                     49                     50                     51
                      A                      A                      A
 Frequencies --   1047.2023              1054.7897              1068.1019
 Red. masses --      1.2863                 2.1139                 3.9179
 Frc consts  --      0.8311                 1.3857                 2.6335
 IR Inten    --      4.3415                 7.3309                13.0919

                     52                     53                     54
                      A                      A                      A
 Frequencies --   1134.0845              1150.5710              1157.4575
 Red. masses --      1.5826                 2.5830                 1.8220
 Frc consts  --      1.1992                 2.0147                 1.4381
 IR Inten    --     40.5528               111.3828                84.2857

                     55                     56                     57
                      A                      A                      A
 Frequencies --   1161.8015              1187.1187              1209.9972
 Red. masses --      1.3659                 1.5381                 3.5603
 Frc consts  --      1.0863                 1.2771                 3.0712
 IR Inten    --      9.8245                10.1340               120.8982

                     58                     59                     60
                      A                      A                      A
 Frequencies --   1222.6088              1240.1867              1259.7415
 Red. masses --      2.2323                 2.0176                 1.6780
 Frc consts  --      1.9660                 1.8284                 1.5689
 IR Inten    --     23.1122                77.5419                11.2165

                     61                     62                     63
                      A                      A                      A
 Frequencies --   1284.4785              1294.5573              1333.8077
 Red. masses --      3.0147                 1.4156                 8.4317
 Frc consts  --      2.9306                 1.3978                 8.8380
 IR Inten    --     15.7027                12.5530                85.6785

                     64                     65                     66
                      A                      A                      A
 Frequencies --   1351.4967              1388.2571              1394.5402
 Red. masses --      1.7391                 4.4581                 2.4512
 Frc consts  --      1.8716                 5.0622                 2.8087
 IR Inten    --     30.4887               192.9657                42.3149

                     67                     68                     69
                      A                      A                      A
 Frequencies --   1398.7055              1414.9869              1426.3297
 Red. masses --      1.4114                 2.6734                 1.2267
 Frc consts  --      1.6269                 3.1537                 1.4704
 IR Inten    --      3.3368                37.7754                13.5538

                     70                     71                     72
                      A                      A                      A
 Frequencies --   1442.9594              1448.1566              1452.6073
 Red. masses --      2.3063                 4.4920                 1.4855
 Frc consts  --      2.8292                 5.5504                 1.8468
 IR Inten    --    122.1146                57.9934                 5.7554

                     73                     74                     75
                      A                      A                      A
 Frequencies --   1495.4270              1512.7025              1514.8801
 Red. masses --      1.2878                 1.1209                 1.1527
 Frc consts  --      1.6968                 1.5112                 1.5585
 IR Inten    --     16.3727                 1.9617                28.7102

                     76                     77                     78
                      A                      A                      A
 Frequencies --   1515.5473              1520.9635              1527.6766
 Red. masses --      1.0780                 1.0871                 1.0730
 Frc consts  --      1.4589                 1.4817                 1.4755
 IR Inten    --      0.3336                14.0628                 6.1627

                     79                     80                     81
                      A                      A                      A
 Frequencies --   1533.6864              1547.5450              1552.2530
 Red. masses --      1.0724                 1.1207                 2.5976
 Frc consts  --      1.4862                 1.5813                 3.6876
 IR Inten    --     25.0117                28.2150                36.8237

                     82                     83                     84
                      A                      A                      A
 Frequencies --   1561.0255              1564.8916              1641.6752
 Red. masses --      1.1763                 3.6298                13.7627
 Frc consts  --      1.6888                 5.2373                21.8539
 IR Inten    --     21.8442                55.9271               210.3067

                     85                     86                     87
                      A                      A                      A
 Frequencies --   1730.9217              1817.6865              3059.1803
 Red. masses --     10.0097                 9.8684                 1.0493
 Frc consts  --     17.6696                19.2103                 5.7860
 IR Inten    --    243.1427               287.4843                21.2423

                     88                     89                     90
                      A                      A                      A
 Frequencies --   3067.5892              3074.7866              3093.6754
 Red. masses --      1.0396                 1.0363                 1.0601
 Frc consts  --      5.7638                 5.7723                 5.9777
 IR Inten    --     15.6301                21.4194                18.2525

                     91                     92                     93
                      A                      A                      A
 Frequencies --   3100.4765              3137.9935              3139.8602
 Red. masses --      1.0615                 1.0966                 1.0964
 Frc consts  --      6.0121                 6.3624                 6.3685
 IR Inten    --      8.6765                 6.2963                 2.9709

                     94                     95                     96
                      A                      A                      A
 Frequencies --   3144.3808              3145.1915              3152.4256
 Red. masses --      1.1052                 1.1009                 1.1065
 Frc consts  --      6.4382                 6.4166                 6.4787
 IR Inten    --     10.6148                25.2070                11.5152

                     97                     98                     99
                      A                      A                      A
 Frequencies --   3160.4976              3175.2424              3215.7379
 Red. masses --      1.1047                 1.1028                 1.0945
 Frc consts  --      6.5013                 6.5508                 6.6682
 IR Inten    --      9.5327                 6.5864                12.4430

                    100                    101                    102
                      A                      A                      A
 Frequencies --   3267.2156              3315.7111              3687.6437
 Red. masses --      1.1016                 1.0997                 1.0639
 Frc consts  --      6.9281                 7.1231                 8.5245
 IR Inten    --     64.9319                 4.3263                68.2755

 - Thermochemistry -
 -------------------
 Temperature   298.150 Kelvin.  Pressure   1.00000 Atm.
 Atom     1 has atomic number  6 and mass  12.00000

 Molecular mass:   284.11207 amu.
 Principal axes and moments of inertia in atomic units:
                           1         2         3
     Eigenvalues --  2725.823018503.245569311.13005
           X            0.99979  -0.01956   0.00637
           Y            0.01974   0.99937  -0.02946
           Z           -0.00579   0.02958   0.99955
 This molecule is an asymmetric top.
 Rotational symmetry number  1.
 Warning -- assumption of classical behavior for rotation
           may cause significant error
 Rotational temperatures (Kelvin)      0.03178     0.01019     0.00930
 Rotational constants (GHZ):           0.66209     0.21224     0.19383
 Zero-point vibrational energy     757410.3 (Joules/Mol)
                                  181.02542 (Kcal/Mol)
 Warning -- explicit consideration of  30 degrees of freedom as
           vibrations may cause significant error
 Vibrational temperatures:     48.18    66.60    75.98    93.47   120.31
          (Kelvin)            137.72   168.34   203.56   234.32   271.91
                              280.13   298.84   328.96   351.39   364.11
                              396.65   429.84   465.14   487.47   518.84
                              521.56   538.62   575.23   613.01   642.64
                              686.44   772.38   798.59   846.92   862.79
                              893.56   911.39   970.27   976.63  1007.61
                             1075.05  1086.67  1100.52  1144.27  1148.33
                             1201.33  1264.89  1285.19  1364.17  1381.57
                             1386.76  1431.14  1449.77  1506.69  1517.61
                             1536.76  1631.69  1655.42  1665.32  1671.57
                             1708.00  1740.92  1759.06  1784.35  1812.49
                             1848.08  1862.58  1919.05  1944.50  1997.39
                             2006.43  2012.43  2035.85  2052.17  2076.10
                             2083.57  2089.98  2151.59  2176.44  2179.57
                             2180.53  2188.33  2197.99  2206.63  2226.57
                             2233.35  2245.97  2251.53  2362.00  2490.41
                             2615.25  4401.48  4413.58  4423.93  4451.11
                             4460.89  4514.87  4517.56  4524.06  4525.23
                             4535.64  4547.25  4568.47  4626.73  4700.79
                             4770.57  5305.70

 Zero-point correction=                           0.288482 (Hartree/Particle)
 Thermal correction to Energy=                    0.307695
 Thermal correction to Enthalpy=                  0.308639
 Thermal correction to Gibbs Free Energy=         0.240745
 Sum of electronic and zero-point Energies=          -1023.635195
 Sum of electronic and thermal Energies=             -1023.615983
 Sum of electronic and thermal Enthalpies=           -1023.615039
 Sum of electronic and thermal Free Energies=        -1023.682932

                     E (Thermal)             CV                S
                      KCal/Mol        Cal/Mol-Kelvin    Cal/Mol-Kelvin
 Total                  193.081             72.311            142.893
 Electronic               0.000              0.000              0.000
 Translational            0.889              2.981             42.831
 Rotational               0.889              2.981             33.734
 Vibrational            191.304             66.350             66.329
 Vibration     1          0.594              1.983              5.611
 Vibration     2          0.595              1.979              4.970
 Vibration     3          0.596              1.976              4.709
 Vibration     4          0.597              1.971              4.300
 Vibration     5          0.601              1.960              3.804
 Vibration     6          0.603              1.952              3.540
 Vibration     7          0.608              1.935              3.149
 Vibration     8          0.615              1.912              2.784
 Vibration     9          0.623              1.888              2.516
 Vibration    10          0.633              1.855              2.238
 Vibration    11          0.635              1.847              2.183
 Vibration    12          0.641              1.829              2.064
 Vibration    13          0.651              1.797              1.890
 Vibration    14          0.660              1.772              1.772
 Vibration    15          0.664              1.758              1.709
 Vibration    16          0.677              1.718              1.560
 Vibration    17          0.692              1.676              1.424
 Vibration    18          0.708              1.629              1.293
 Vibration    19          0.719              1.598              1.218
 Vibration    20          0.735              1.553              1.119
 Vibration    21          0.736              1.549              1.111
 Vibration    22          0.745              1.525              1.062
 Vibration    23          0.766              1.471              0.963
 Vibration    24          0.788              1.414              0.872
 Vibration    25          0.806              1.368              0.806
 Vibration    26          0.834              1.301              0.718
 Vibration    27          0.892              1.169              0.572
 Vibration    28          0.910              1.129              0.534
 Vibration    29          0.946              1.056              0.470
 Vibration    30          0.958              1.032              0.450

                           ! Non-Optimized Parameters !
 Normal termination of Gaussian 16 at Sun Dec 13 13:21:28 2020.

 ----------------------------------------------------------------------
 # B3LYP/6-311++G(d,p) empiricaldispersion=gd3bj scf=xqc pop=npa geom=c
 heck
 ----------------------------------------------------------------------

 ---------------------------------------
 CID_62819012_JID_10051_Energie_neutraal
 ---------------------------------------
 Structure from the checkpoint file:  "JID_10051.chk"
 Charge =  0 Multiplicity = 1

 SCF Done:  E(RB3LYP) =  -1024.22564011     A.U. after   16 cycles
 Normal termination of Gaussian 16 at Sun Dec 13 13:31:38 2020.

 ----------------------------------------------------------------------
 # B3LYP/6-311++G(d,p) empiricaldispersion=gd3bj scf=xqc pop=npa geom=c
 heck
 ----------------------------------------------------------------------

 -------------------------------------
 CID_62819012_JID_10051_Energie_kation
 -------------------------------------
 Structure from the checkpoint file:  "JID_10051.chk"
 Charge =  1 Multiplicity = 2

 SCF Done:  E(UB3LYP) =  -1023.89892124     A.U. after   32 cycles
 Normal termination of Gaussian 16 at Sun Dec 13 14:01:40 2020.
 Gaussian 16:  ES64L-G16RevA.03 25-Dec-2016

 ----------------------------------------------------------------------
 # B3LYP/6-311++G(d,p) empiricaldispersion=gd3bj scf=xqc pop=npa geom=c
 heck
 ----------------------------------------------------------------------

 ------------------------------------
 CID_62819012_JID_10051_Energie_anion
 ------------------------------------
 Structure from the checkpoint file:  "JID_10051.chk"
 Charge = -1 Multiplicity = 2

                         Standard orientation:
 ---------------------------------------------------------------------
 Center     Atomic      Atomic             Coordinates (Angstroms)
 Number     Number       Type             X           Y           Z
 ---------------------------------------------------------------------
      1          6           0        1.723237   -2.351862    0.301817
      2          6           0        2.300255   -0.932273    0.475337
      3          6           0        3.422210   -0.924333    1.521242
      4          6           0        2.782040   -0.539913   -0.934030
      5          8           0        2.047054   -0.299569   -1.870622
      6          8           0        4.114089   -0.665555   -1.077343
      7          7           0        1.234067    0.023077    0.867024
      8          6           0        0.133881   -0.476328    1.684862
      9          6           0        1.495979    1.343858    0.627831
     10          8           0        2.566954    1.701535    0.134383
     11          6           0        0.395353    2.385328    0.798175
     12          6           0       -0.459888    2.450104   -0.483705
     13          7           0       -1.343864    1.298299   -0.632797
     14          6           0       -2.558209    1.131440   -0.017541
     15          6           0       -2.927260   -0.156276   -0.334475
     16          7           0       -1.993964   -0.784116   -1.109093
     17          6           0       -1.047442    0.115266   -1.277489
     18          7           0       -4.144081   -0.793872    0.097344
     19          8           0       -4.345566   -1.957011   -0.234698
     20          8           0       -4.901862   -0.104138    0.792463
     21          1           0        2.506327   -3.000466   -0.101812
     22          1           0        0.879411   -2.354698   -0.392537
     23          1           0        1.406273   -2.773259    1.259234
     24          1           0        4.195334   -1.653842    1.268993
     25          1           0        3.879705    0.064307    1.580382
     26          1           0        3.005642   -1.188231    2.499533
     27          1           0        4.302121   -0.459404   -2.012273
     28          1           0       -0.503425    0.344721    2.000462
     29          1           0       -0.483671   -1.182876    1.126666
     30          1           0        0.517960   -0.969291    2.585705
     31          1           0       -0.248181    2.241504    1.668952
     32          1           0        0.908619    3.342781    0.912278
     33          1           0       -1.076596    3.352698   -0.480178
     34          1           0        0.195181    2.487156   -1.357560
     35          1           0       -3.046760    1.901495    0.556753
     36          1           0       -0.109335   -0.028473   -1.797557
 ---------------------------------------------------------------------

 SCF Done:  E(UB3LYP) =  -1024.24684410     A.U. after   33 cycles
 SCF Done:  E(UB3LYP) =  -1024.24684410     a.u. after    1 cycles

 The electronic state is 2-A.
 Alpha  occ. eigenvalues --  -19.09682 -19.03294 -19.01267 -18.94143 -18.94063
 Alpha  occ. eigenvalues --  -14.31839 -14.27115 -14.25625 -14.17610 -10.23210
 Alpha  occ. eigenvalues --  -10.19540 -10.16240 -10.13793 -10.11748 -10.10701
 Alpha  occ. eigenvalues --  -10.10300 -10.09507 -10.08932 -10.08334 -10.06913
 Alpha  occ. eigenvalues --   -1.03796  -1.02210  -0.96782  -0.94223  -0.90778
 Alpha  occ. eigenvalues --   -0.86397  -0.84998  -0.78564  -0.73222  -0.69101
 Alpha  occ. eigenvalues --   -0.64430  -0.63949  -0.61846  -0.59616  -0.58155
 Alpha  occ. eigenvalues --   -0.55064  -0.52814  -0.46878  -0.46515  -0.45094
 Alpha  occ. eigenvalues --   -0.42972  -0.41917  -0.41450  -0.40739  -0.40164
 Alpha  occ. eigenvalues --   -0.38541  -0.37495  -0.36002  -0.35229  -0.35123
 Alpha  occ. eigenvalues --   -0.34532  -0.33940  -0.33716  -0.33204  -0.32601
 Alpha  occ. eigenvalues --   -0.32256  -0.31694  -0.30816  -0.30559  -0.30202
 Alpha  occ. eigenvalues --   -0.29632  -0.29132  -0.28828  -0.28111  -0.27074
 Alpha  occ. eigenvalues --   -0.24534  -0.20436  -0.18568  -0.17399  -0.16641
 Alpha  occ. eigenvalues --   -0.16047  -0.13220  -0.11975  -0.11463  -0.09928
 Alpha  occ. eigenvalues --    0.03683
 Alpha virt. eigenvalues --    0.04988   0.06098   0.06583   0.07464   0.07737
 Alpha virt. eigenvalues --    0.08246   0.09061   0.09359   0.10242   0.11117
 Alpha virt. eigenvalues --    0.11618   0.11718   0.12282   0.12606   0.13710

  Beta  occ. eigenvalues --  -19.09665 -19.03288 -19.01263 -18.93690 -18.93613
  Beta  occ. eigenvalues --  -14.31165 -14.27116 -14.25543 -14.17542 -10.23210
  Beta  occ. eigenvalues --  -10.19532 -10.16237 -10.13794 -10.11734 -10.10692
  Beta  occ. eigenvalues --  -10.10359 -10.09499 -10.08922 -10.08340 -10.06665
  Beta  occ. eigenvalues --   -1.03775  -1.01147  -0.96771  -0.94206  -0.90641
  Beta  occ. eigenvalues --   -0.86392  -0.84145  -0.78443  -0.73203  -0.69029
  Beta  occ. eigenvalues --   -0.64053  -0.63893  -0.61826  -0.59443  -0.58089
  Beta  occ. eigenvalues --   -0.54496  -0.52722  -0.46824  -0.46395  -0.44911
  Beta  occ. eigenvalues --   -0.42931  -0.41888  -0.41427  -0.40616  -0.39917
  Beta  occ. eigenvalues --   -0.38304  -0.37428  -0.35833  -0.35192  -0.34426
  Beta  occ. eigenvalues --   -0.33930  -0.33592  -0.33179  -0.32716  -0.32268
  Beta  occ. eigenvalues --   -0.32036  -0.31589  -0.30602  -0.30325  -0.29974
  Beta  occ. eigenvalues --   -0.29510  -0.28930  -0.28520  -0.28094  -0.26841
  Beta  occ. eigenvalues --   -0.24512  -0.20415  -0.18535  -0.17374  -0.16181
  Beta  occ. eigenvalues --   -0.15841  -0.11558  -0.10783  -0.09821  -0.09471
  Beta virt. eigenvalues --    0.05266   0.06272   0.06528   0.07423   0.07764
  Beta virt. eigenvalues --    0.08180   0.08879   0.09300   0.10132   0.10793
  Beta virt. eigenvalues --    0.11062   0.11557   0.11819   0.12247   0.13023

 Mulliken charges and spin densities:
               1          2
     1  C   -0.315519  -0.113351
     2  C   -0.420737   0.125134
     3  C    0.094761  -0.374060
     4  C   -0.125767  -0.006182
     5  O   -0.259739  -0.000666
     6  O   -0.099892   0.012160
     7  N    0.316096   0.013315
     8  C   -0.029301  -0.283739
     9  C   -0.209627   0.039464
    10  O   -0.237161   0.000982
    11  C   -0.204355  -0.079289
    12  C   -0.340318  -0.016718
    13  N    0.178805   0.022756
    14  C   -0.231192   0.285222
    15  C   -0.110629  -0.096370
    16  N    0.010403   0.040226
    17  C   -0.466384  -0.045944
    18  N   -0.267584   0.225260
    19  O   -0.177457   0.204075
    20  O   -0.226756   0.151122
    21  H    0.059476   0.115209
    22  H    0.225292   0.008740
    23  H    0.139475   0.015975
    24  H    0.108950   0.070659
    25  H    0.184831   0.047058
    26  H    0.025401   0.104367
    27  H    0.069839   0.198746
    28  H    0.067307   0.053180
    29  H    0.093976   0.127724
    30  H    0.098458   0.086516
    31  H    0.103323   0.063570
    32  H    0.188024  -0.002514
    33  H    0.177408   0.026718
    34  H    0.202513  -0.000621
    35  H    0.180892  -0.019026
    36  H    0.197188   0.000303
 Sum of Mulliken charges =  -1.00000   1.00000

 Dipole moment (field-independent basis, Debye):
    X=             13.1966    Y=              4.7140    Z=              1.6657  Tot=             14.1119
 Quadrupole moment (field-independent basis, Debye-Ang):
   XX=           -227.3685   YY=           -133.6300   ZZ=           -131.3545
   XY=            -24.4731   XZ=              3.6047   YZ=             -2.6747

 Summary of Natural Population Analysis:

                                       Natural Population
                Natural  -----------------------------------------------
    Atom  No    Charge         Core      Valence    Rydberg      Total
 -----------------------------------------------------------------------
      C    1   -0.29059      0.99962     2.28537    0.00559     3.29059
      C    2    0.03399      0.99952     1.95159    0.01490     2.96601
      C    3   -0.29298      0.99962     2.28711    0.00625     3.29298
      C    4    0.41908      0.99962     1.55127    0.03002     2.58092
      O    5   -0.31577      0.99986     3.30941    0.00651     4.31577
      O    6   -0.34274      0.99986     3.33658    0.00629     4.34274
      N    7   -0.25305      0.99960     2.74079    0.01266     3.75305
      C    8   -0.18316      0.99963     2.17533    0.00821     3.18316
      C    9    0.34801      0.99963     1.62761    0.02475     2.65199
      O   10   -0.32658      0.99988     3.32099    0.00571     4.32658
      C   11   -0.23076      0.99958     2.22247    0.00870     3.23076
      C   12   -0.07552      0.99961     2.06735    0.00855     3.07552
      N   13   -0.20638      0.99965     2.69581    0.01092     3.70638
      C   14    0.01537      0.99952     1.97215    0.01296     2.98463
      C   15    0.10293      0.99944     1.87790    0.01973     2.89707
      N   16   -0.23353      0.99969     2.72342    0.01042     3.73353
      C   17    0.07480      0.99964     1.90942    0.01614     2.92520
      N   18    0.30512      0.99970     2.16983    0.02536     3.19488
      O   19   -0.16992      0.99990     3.16271    0.00731     4.16992
      O   20   -0.22163      0.99990     3.21378    0.00794     4.22163
      H   21    0.10544      0.00000     0.39371    0.00084     0.39456
      H   22    0.11910      0.00000     0.37960    0.00129     0.38090
      H   23    0.10458      0.00000     0.39458    0.00084     0.39542
      H   24    0.10575      0.00000     0.39325    0.00100     0.39425
      H   25    0.11447      0.00000     0.38457    0.00096     0.38553
      H   26    0.09862      0.00000     0.40051    0.00087     0.40138
      H   27    0.24098      0.00000     0.25496    0.00406     0.25902
      H   28    0.10927      0.00000     0.38962    0.00111     0.39073
      H   29    0.11341      0.00000     0.38505    0.00154     0.38659
      H   30    0.09087      0.00000     0.40835    0.00078     0.40913
      H   31    0.10689      0.00000     0.39200    0.00111     0.39311
      H   32    0.11112      0.00000     0.38796    0.00093     0.38888
      H   33    0.10024      0.00000     0.39878    0.00098     0.39976
      H   34    0.10634      0.00000     0.39271    0.00096     0.39366
      H   35    0.10762      0.00000     0.39158    0.00080     0.39238
      H   36    0.10860      0.00000     0.38968    0.00172     0.39140
 =======================================================================
   * Total *    0.00000     19.99347    54.73780    0.26873    75.00000

 Normal termination of Gaussian 16 at Sun Dec 13 14:31:40 2020.
