 Gaussian 16, Revision A.03,

 -----------------------------------------------------------
 # opt freq B3LYP/6-31G(d) empiricaldispersion=gd3bj scf=xqc
 -----------------------------------------------------------

 ------------------------------
 CID_79334841_JID_9919_neutraal
 ------------------------------
 Symbolic Z-matrix:
 Charge =  0 Multiplicity = 1

 SCF Done:  E(RB3LYP) =  -862.221494118     A.U. after   16 cycles
 SCF Done:  E(RB3LYP) =  -862.245614265     A.U. after   13 cycles
 SCF Done:  E(RB3LYP) =  -862.247636819     A.U. after   14 cycles
 SCF Done:  E(RB3LYP) =  -862.249168148     A.U. after   14 cycles
 SCF Done:  E(RB3LYP) =  -862.248558659     A.U. after   14 cycles
 SCF Done:  E(RB3LYP) =  -862.250731332     A.U. after   14 cycles
 SCF Done:  E(RB3LYP) =  -862.251436550     A.U. after   13 cycles
 SCF Done:  E(RB3LYP) =  -862.251535645     A.U. after   12 cycles
 SCF Done:  E(RB3LYP) =  -862.251701841     A.U. after   12 cycles
 SCF Done:  E(RB3LYP) =  -862.251788003     A.U. after   12 cycles
 SCF Done:  E(RB3LYP) =  -862.252022608     A.U. after   10 cycles
 SCF Done:  E(RB3LYP) =  -862.252026185     A.U. after   11 cycles
 SCF Done:  E(RB3LYP) =  -862.252027756     A.U. after   10 cycles
 SCF Done:  E(RB3LYP) =  -862.252028519     A.U. after   10 cycles
 SCF Done:  E(RB3LYP) =  -862.252028695     A.U. after    8 cycles
 SCF Done:  E(RB3LYP) =  -862.252028712     A.U. after    7 cycles
 Optimization completed.
    -- Stationary point found.
 Normal termination of Gaussian 16 at Sun Dec 13 16:23:11 2020.

 --------------------------------------------------------------------
 #N Geom=AllCheck Guess=TCheck SCRF=Check GenChk RB3LYP/6-31G(d) Freq
 --------------------------------------------------------------------

 Structure from the checkpoint file:  "JID_9919.chk"
 ------------------------------
 CID_79334841_JID_9919_neutraal
 ------------------------------
 Charge =  0 Multiplicity = 1

 SCF Done:  E(RB3LYP) =  -862.252028712     A.U. after    1 cycles

  Exact polarizability: 268.803 -12.134 173.517   2.739   1.985 106.822
 Approx polarizability: 359.363 -40.077 291.146   5.323   3.712 167.209

                      1                      2                      3
                      A                      A                      A
 Frequencies --     25.6328                33.8236                44.5267
 Red. masses --      6.0578                 5.0561                 4.0217
 Frc consts  --      0.0023                 0.0034                 0.0047
 IR Inten    --      0.8330                 0.5219                 0.0739

                      4                      5                      6
                      A                      A                      A
 Frequencies --     54.8972                68.7194                80.8514
 Red. masses --      5.7532                 3.0979                 3.9098
 Frc consts  --      0.0102                 0.0086                 0.0151
 IR Inten    --      2.3286                 0.1705                 9.3967

                      7                      8                      9
                      A                      A                      A
 Frequencies --     91.5669               139.2087               150.5065
 Red. masses --      3.7751                 3.9715                 1.3285
 Frc consts  --      0.0186                 0.0453                 0.0177
 IR Inten    --      0.9953                 0.7520                 1.8784

                     10                     11                     12
                      A                      A                      A
 Frequencies --    165.9782               172.2021               203.6063
 Red. masses --      3.6246                 3.6162                 3.7748
 Frc consts  --      0.0588                 0.0632                 0.0922
 IR Inten    --      3.9132                 2.3026                 2.6440

                     13                     14                     15
                      A                      A                      A
 Frequencies --    210.7859               239.3016               244.8592
 Red. masses --      3.5718                 1.3976                 2.9329
 Frc consts  --      0.0935                 0.0472                 0.1036
 IR Inten    --      3.9343                 1.7457                 3.9762

                     16                     17                     18
                      A                      A                      A
 Frequencies --    246.7840               257.6177               285.5842
 Red. masses --      2.6395                 1.3089                 2.8917
 Frc consts  --      0.0947                 0.0512                 0.1390
 IR Inten    --      2.5130                 3.9990                 2.2048

                     19                     20                     21
                      A                      A                      A
 Frequencies --    289.8987               330.1527               351.3541
 Red. masses --      4.5571                 5.7647                 3.8462
 Frc consts  --      0.2256                 0.3702                 0.2798
 IR Inten    --      5.7857                 7.8795                 1.2247

                     22                     23                     24
                      A                      A                      A
 Frequencies --    377.5377               387.4941               426.9150
 Red. masses --      2.9031                 2.7948                 4.5231
 Frc consts  --      0.2438                 0.2472                 0.4857
 IR Inten    --      3.4955                 8.4770                 0.5472

                     25                     26                     27
                      A                      A                      A
 Frequencies --    443.5976               475.0168               503.7104
 Red. masses --      3.0646                 4.3963                 3.8047
 Frc consts  --      0.3553                 0.5845                 0.5688
 IR Inten    --      1.0389                 8.5004                 0.5136

                     28                     29                     30
                      A                      A                      A
 Frequencies --    546.8734               565.1318               589.6318
 Red. masses --      3.2619                 4.5107                 5.8605
 Frc consts  --      0.5748                 0.8488                 1.2004
 IR Inten    --      2.6724                 3.5258                 7.1831

                     31                     32                     33
                      A                      A                      A
 Frequencies --    635.4776               664.3785               715.5974
 Red. masses --      5.9123                 5.0234                 4.3307
 Frc consts  --      1.4067                 1.3064                 1.3066
 IR Inten    --      1.1043                10.8235                 4.7155

                     34                     35                     36
                      A                      A                      A
 Frequencies --    742.2498               760.9806               768.3446
 Red. masses --      3.7686                 3.8137                 4.8930
 Frc consts  --      1.2233                 1.3012                 1.7019
 IR Inten    --      7.1217                 5.4610                14.3878

                     37                     38                     39
                      A                      A                      A
 Frequencies --    791.0293               824.9867               903.1890
 Red. masses --      3.6621                 1.5558                 1.4320
 Frc consts  --      1.3501                 0.6239                 0.6883
 IR Inten    --      8.8896                35.7593                 3.7814

                     40                     41                     42
                      A                      A                      A
 Frequencies --    909.2925               920.0954               931.0384
 Red. masses --      2.7544                 4.8355                 1.5453
 Frc consts  --      1.3418                 2.4119                 0.7892
 IR Inten    --      1.3073                16.6242                10.2158

                     43                     44                     45
                      A                      A                      A
 Frequencies --    944.9957               948.4471               972.1638
 Red. masses --      1.2322                 1.3185                 3.1340
 Frc consts  --      0.6483                 0.6988                 1.7451
 IR Inten    --      3.9734                 2.6620                19.2172

                     46                     47                     48
                      A                      A                      A
 Frequencies --    977.2945              1033.0199              1048.5362
 Red. masses --      1.5321                 1.6889                 2.0208
 Frc consts  --      0.8622                 1.0619                 1.3090
 IR Inten    --      0.2416                 1.8582                 8.4490

                     49                     50                     51
                      A                      A                      A
 Frequencies --   1061.0961              1080.4890              1103.4860
 Red. masses --      3.6688                 5.6912                 1.7697
 Frc consts  --      2.4338                 3.9147                 1.2697
 IR Inten    --     72.2325               108.7247                49.9400

                     52                     53                     54
                      A                      A                      A
 Frequencies --   1135.4148              1167.7904              1184.7693
 Red. masses --      2.2756                 2.1825                 1.2531
 Frc consts  --      1.7284                 1.7536                 1.0364
 IR Inten    --      3.8049               113.8622                 5.7561

                     55                     56                     57
                      A                      A                      A
 Frequencies --   1195.9984              1214.7164              1225.4019
 Red. masses --      1.9102                 1.4342                 1.4957
 Frc consts  --      1.6099                 1.2468                 1.3233
 IR Inten    --      4.0481                 8.3239                 5.0133

                     58                     59                     60
                      A                      A                      A
 Frequencies --   1244.6768              1258.3863              1297.6885
 Red. masses --      2.0614                 2.2980                 1.3400
 Frc consts  --      1.8816                 2.1440                 1.3295
 IR Inten    --     11.4600               123.1874                59.3747

                     61                     62                     63
                      A                      A                      A
 Frequencies --   1315.5291              1331.5876              1355.9827
 Red. masses --      2.7590                 1.7650                 2.0728
 Frc consts  --      2.8133                 1.8439                 2.2456
 IR Inten    --    313.5671                22.6370                37.8278

                     64                     65                     66
                      A                      A                      A
 Frequencies --   1361.2858              1370.0395              1411.7696
 Red. masses --      1.6461                 2.3331                 1.3517
 Frc consts  --      1.7972                 2.5802                 1.5873
 IR Inten    --     26.0936                29.8292                29.0180

                     67                     68                     69
                      A                      A                      A
 Frequencies --   1416.8496              1419.0498              1439.8673
 Red. masses --      1.3425                 1.2278                 1.6929
 Frc consts  --      1.5879                 1.4567                 2.0679
 IR Inten    --      9.9296                 5.8671                 8.1085

                     70                     71                     72
                      A                      A                      A
 Frequencies --   1442.2358              1471.4398              1500.5441
 Red. masses --      1.3998                 1.5550                 1.3200
 Frc consts  --      1.7155                 1.9836                 1.7511
 IR Inten    --     18.2784                18.5941                 1.4785

                     73                     74                     75
                      A                      A                      A
 Frequencies --   1508.0336              1515.7498              1516.1590
 Red. masses --      1.1028                 1.0412                 1.0545
 Frc consts  --      1.4776                 1.4094                 1.4282
 IR Inten    --     16.9371                 0.4991                 4.2277

                     76                     77                     78
                      A                      A                      A
 Frequencies --   1530.8104              1533.9081              1538.3093
 Red. masses --      1.0461                 1.0497                 1.0513
 Frc consts  --      1.4444                 1.4551                 1.4658
 IR Inten    --     15.3546                 2.9465                 4.9256

                     79                     80                     81
                      A                      A                      A
 Frequencies --   1551.3611              1556.1170              1624.2127
 Red. masses --      1.0639                 2.9027                 6.5880
 Frc consts  --      1.5086                 4.1413                10.2397
 IR Inten    --     15.9419               206.9006                25.9820

                     82                     83                     84
                      A                      A                      A
 Frequencies --   1661.1539              1677.4683              1766.5572
 Red. masses --      6.0316                 6.7010                 9.2849
 Frc consts  --      9.8062                11.1096                17.0720
 IR Inten    --     37.7487                14.9468               285.2879

                     85                     86                     87
                      A                      A                      A
 Frequencies --   2375.2619              2964.6036              3024.8345
 Red. masses --     12.5913                 1.0839                 1.0837
 Frc consts  --     41.8546                 5.6127                 5.8418
 IR Inten    --      0.4011                68.5372                20.2301

                     88                     89                     90
                      A                      A                      A
 Frequencies --   3038.4571              3049.1669              3050.6495
 Red. masses --      1.0374                 1.0673                 1.0372
 Frc consts  --      5.6429                 5.8464                 5.6873
 IR Inten    --     65.7605                23.6325                38.9840

                     91                     92                     93
                      A                      A                      A
 Frequencies --   3055.0139              3111.6966              3113.3027
 Red. masses --      1.0381                 1.1028                 1.0995
 Frc consts  --      5.7083                 6.2912                 6.2791
 IR Inten    --     37.8127                22.1472                37.5582

                     94                     95                     96
                      A                      A                      A
 Frequencies --   3114.5578              3131.4060              3137.5814
 Red. masses --      1.1023                 1.0962                 1.0874
 Frc consts  --      6.2999                 6.3334                 6.3071
 IR Inten    --     55.5404                 3.9106                18.5573

                     97                     98                     99
                      A                      A                      A
 Frequencies --   3150.8200              3156.7780              3160.5426
 Red. masses --      1.1002                 1.0995                 1.1038
 Frc consts  --      6.4351                 6.4557                 6.4966
 IR Inten    --      7.0811                16.0159                28.1416

                    100                    101                    102
                      A                      A                      A
 Frequencies --   3207.9550              3215.9529              3232.5848
 Red. masses --      1.0908                 1.0881                 1.0932
 Frc consts  --      6.6138                 6.6306                 6.7308
 IR Inten    --      4.3357                 6.9115                 6.2576

 - Thermochemistry -
 -------------------
 Temperature   298.150 Kelvin.  Pressure   1.00000 Atm.
 Atom     1 has atomic number  6 and mass  12.00000

 Molecular mass:   259.12084 amu.
 Principal axes and moments of inertia in atomic units:
                           1         2         3
     Eigenvalues --  2793.86337********************
           X            0.99998  -0.00450   0.00356
           Y            0.00447   0.99995   0.00932
           Z           -0.00360  -0.00930   0.99995
 This molecule is an asymmetric top.
 Rotational symmetry number  1.
 Warning -- assumption of classical behavior for rotation
           may cause significant error
 Rotational temperatures (Kelvin)      0.03100     0.00831     0.00697
 Rotational constants (GHZ):           0.64597     0.17318     0.14521
 Zero-point vibrational energy     770227.5 (Joules/Mol)
                                  184.08879 (Kcal/Mol)
 Warning -- explicit consideration of  30 degrees of freedom as
           vibrations may cause significant error
 Vibrational temperatures:     36.88    48.66    64.06    78.98    98.87
          (Kelvin)            116.33   131.74   200.29   216.55   238.81
                              247.76   292.94   303.27   344.30   352.30
                              355.07   370.65   410.89   417.10   475.02
                              505.52   543.19   557.52   614.24   638.24
                              683.44   724.73   786.83   813.10   848.35
                              914.31   955.89  1029.59  1067.93  1094.88
                             1105.48  1138.11  1186.97  1299.49  1308.27
                             1323.81  1339.56  1359.64  1364.60  1398.73
                             1406.11  1486.29  1508.61  1526.68  1554.58
                             1587.67  1633.61  1680.19  1704.62  1720.77
                             1747.71  1763.08  1790.81  1810.54  1867.08
                             1892.75  1915.86  1950.96  1958.59  1971.18
                             2031.22  2038.53  2041.70  2071.65  2075.06
                             2117.07  2158.95  2169.72  2180.83  2181.41
                             2202.49  2206.95  2213.28  2232.06  2238.91
                             2336.88  2390.03  2413.50  2541.68  3417.47
                             4265.40  4352.06  4371.66  4387.07  4389.20
                             4395.48  4477.04  4479.35  4481.15  4505.39
                             4514.28  4533.33  4541.90  4547.32  4615.53
                             4627.04  4650.97

 Zero-point correction=                           0.293364 (Hartree/Particle)
 Thermal correction to Energy=                    0.312957
 Thermal correction to Enthalpy=                  0.313901
 Thermal correction to Gibbs Free Energy=         0.243754
 Sum of electronic and zero-point Energies=           -861.958665
 Sum of electronic and thermal Energies=              -861.939072
 Sum of electronic and thermal Enthalpies=            -861.938128
 Sum of electronic and thermal Free Energies=         -862.008274

                     E (Thermal)             CV                S
                      KCal/Mol        Cal/Mol-Kelvin    Cal/Mol-Kelvin
 Total                  196.383             71.341            147.636
 Electronic               0.000              0.000              0.000
 Translational            0.889              2.981             42.556
 Rotational               0.889              2.981             34.247
 Vibrational            194.606             65.379             70.833
 Vibration     1          0.593              1.985              6.142
 Vibration     2          0.594              1.983              5.592
 Vibration     3          0.595              1.980              5.047
 Vibration     4          0.596              1.976              4.633
 Vibration     5          0.598              1.969              4.190
 Vibration     6          0.600              1.962              3.870
 Vibration     7          0.602              1.955              3.626
 Vibration     8          0.615              1.914              2.815
 Vibration     9          0.618              1.902              2.666
 Vibration    10          0.624              1.884              2.481
 Vibration    11          0.626              1.877              2.411
 Vibration    12          0.639              1.835              2.100
 Vibration    13          0.643              1.824              2.037
 Vibration    14          0.657              1.780              1.808
 Vibration    15          0.660              1.771              1.767
 Vibration    16          0.661              1.768              1.753
 Vibration    17          0.667              1.750              1.678
 Vibration    18          0.683              1.700              1.500
 Vibration    19          0.686              1.693              1.475
 Vibration    20          0.713              1.615              1.259
 Vibration    21          0.728              1.572              1.160
 Vibration    22          0.748              1.518              1.049
 Vibration    23          0.756              1.497              1.010
 Vibration    24          0.789              1.412              0.869
 Vibration    25          0.803              1.375              0.815
 Vibration    26          0.832              1.305              0.724
 Vibration    27          0.859              1.242              0.649
 Vibration    28          0.902              1.147              0.551
 Vibration    29          0.921              1.107              0.514
 Vibration    30          0.947              1.054              0.468

 Optimization completed.
    -- Stationary point found.
 Normal termination of Gaussian 16 at Sun Dec 13 16:37:51 2020.

 ----------------------------------------------------------------------
 # B3LYP/6-311++G(d,p) empiricaldispersion=gd3bj scf=xqc pop=npa geom=c
 heck
 ----------------------------------------------------------------------

 --------------------------------------
 CID_79334841_JID_9919_Energie_neutraal
 --------------------------------------
 Structure from the checkpoint file:  "JID_9919.chk"
 Charge =  0 Multiplicity = 1

 SCF Done:  E(RB3LYP) =  -862.490033531     A.U. after   16 cycles
 Normal termination of Gaussian 16 at Sun Dec 13 16:44:07 2020.

 ----------------------------------------------------------------------
 # B3LYP/6-311++G(d,p) empiricaldispersion=gd3bj scf=xqc pop=npa geom=c
 heck
 ----------------------------------------------------------------------

 ------------------------------------
 CID_79334841_JID_9919_Energie_kation
 ------------------------------------
 Structure from the checkpoint file:  "JID_9919.chk"
 Charge =  1 Multiplicity = 2

 SCF Done:  E(UB3LYP) =  -862.193985304     A.U. after   25 cycles
 Normal termination of Gaussian 16 at Sun Dec 13 16:57:31 2020.
 Gaussian 16:  ES64L-G16RevA.03 25-Dec-2016

 ----------------------------------------------------------------------
 # B3LYP/6-311++G(d,p) empiricaldispersion=gd3bj scf=xqc pop=npa geom=c
 heck
 ----------------------------------------------------------------------

 -----------------------------------
 CID_79334841_JID_9919_Energie_anion
 -----------------------------------
 Structure from the checkpoint file:  "JID_9919.chk"
 Charge = -1 Multiplicity = 2

                         Standard orientation:
 ---------------------------------------------------------------------
 Center     Atomic      Atomic             Coordinates (Angstroms)
 Number     Number       Type             X           Y           Z
 ---------------------------------------------------------------------
      1          6           0       -5.059503    0.130906    1.353291
      2          6           0       -4.377127   -0.582469    0.170997
      3          6           0       -5.214304   -0.455474   -1.113267
      4          6           0       -2.950391   -0.090897   -0.013330
      5          6           0       -1.901887   -0.923123    0.199749
      6          6           0       -0.468583   -0.614651    0.201698
      7          6           0        0.438527   -1.583637   -0.268777
      8          6           0        1.804486   -1.349308   -0.299885
      9          6           0        2.308205   -0.118174    0.172785
     10          6           0        1.429001    0.836573    0.681986
     11          6           0        0.056721    0.585313    0.701389
     12          8           0        3.672624    0.027603    0.096287
     13          6           0        4.254026    1.205119    0.618394
     14          6           0        3.989350    2.396872   -0.209542
     15          7           0        3.782662    3.337307   -0.855825
     16          8           0        2.634610   -2.297535   -0.838100
     17          6           0        3.473387   -2.976931    0.099465
     18          6           0       -2.730404    1.289719   -0.496977
     19          8           0       -3.585786    2.161051   -0.530007
     20          1           0       -5.154338    1.200037    1.150261
     21          1           0       -4.482189    0.002029    2.275672
     22          1           0       -6.060934   -0.284099    1.516780
     23          1           0       -4.309360   -1.650316    0.420631
     24          1           0       -5.342935    0.592919   -1.393047
     25          1           0       -4.737681   -0.981219   -1.948350
     26          1           0       -6.206865   -0.893677   -0.958847
     27          1           0       -2.137256   -1.968119    0.406419
     28          1           0        0.081554   -2.536579   -0.647413
     29          1           0        1.790499    1.786907    1.056059
     30          1           0       -0.605023    1.322920    1.141366
     31          1           0        3.920167    1.397823    1.646572
     32          1           0        5.330617    1.018205    0.635668
     33          1           0        4.177231   -2.289238    0.578707
     34          1           0        2.869559   -3.479068    0.866526
     35          1           0        4.025209   -3.723040   -0.475432
     36          1           0       -1.717513    1.495386   -0.894084
 ---------------------------------------------------------------------

 SCF Done:  E(UB3LYP) =  -862.514418329     A.U. after   30 cycles

 The electronic state is 2-A.
 Alpha  occ. eigenvalues --  -19.07487 -19.03970 -18.92718 -14.24533 -10.19892
 Alpha  occ. eigenvalues --  -10.14029 -10.12799 -10.11420 -10.11148 -10.06375
 Alpha  occ. eigenvalues --  -10.06199 -10.04839 -10.04680 -10.04626 -10.04620
 Alpha  occ. eigenvalues --  -10.03194 -10.03101 -10.01459 -10.01195  -0.99538
 Alpha  occ. eigenvalues --   -0.95322  -0.86344  -0.83824  -0.74153  -0.69668
 Alpha  occ. eigenvalues --   -0.68014  -0.64520  -0.64152  -0.59693  -0.58261
 Alpha  occ. eigenvalues --   -0.55792  -0.52092  -0.50495  -0.47305  -0.46333
 Alpha  occ. eigenvalues --   -0.45346  -0.44590  -0.41545  -0.39780  -0.37742
 Alpha  occ. eigenvalues --   -0.37420  -0.36765  -0.34307  -0.33802  -0.32753
 Alpha  occ. eigenvalues --   -0.31559  -0.30965  -0.30208  -0.29344  -0.29066
 Alpha  occ. eigenvalues --   -0.28574  -0.28264  -0.27085  -0.26513  -0.26376
 Alpha  occ. eigenvalues --   -0.26300  -0.25491  -0.24303  -0.23088  -0.22753
 Alpha  occ. eigenvalues --   -0.22052  -0.21283  -0.20686  -0.19797  -0.18124
 Alpha  occ. eigenvalues --   -0.14915  -0.13114  -0.09644  -0.07924   0.03301
 Alpha virt. eigenvalues --    0.05495   0.06840   0.07516   0.08064   0.08567
 Alpha virt. eigenvalues --    0.09761   0.09970   0.10070   0.10514   0.11093
 Alpha virt. eigenvalues --    0.11316   0.11632   0.11814   0.12377   0.12718

  Beta  occ. eigenvalues --  -19.07438 -19.03975 -18.92227 -14.24529 -10.19893
  Beta  occ. eigenvalues --  -10.14023 -10.12801 -10.11234 -10.11154 -10.06249
  Beta  occ. eigenvalues --  -10.06154 -10.04812 -10.04683 -10.04497 -10.04472
  Beta  occ. eigenvalues --  -10.03189 -10.03092 -10.01118 -10.01020  -0.99409
  Beta  occ. eigenvalues --   -0.95337  -0.85457  -0.83813  -0.73930  -0.69497
  Beta  occ. eigenvalues --   -0.67798  -0.64434  -0.63846  -0.59415  -0.58011
  Beta  occ. eigenvalues --   -0.55766  -0.51768  -0.50272  -0.46897  -0.45995
  Beta  occ. eigenvalues --   -0.45121  -0.44498  -0.41476  -0.39630  -0.37597
  Beta  occ. eigenvalues --   -0.37270  -0.36758  -0.34189  -0.33691  -0.32621
  Beta  occ. eigenvalues --   -0.31452  -0.30787  -0.29996  -0.29137  -0.28944
  Beta  occ. eigenvalues --   -0.28351  -0.27956  -0.27039  -0.26358  -0.26300
  Beta  occ. eigenvalues --   -0.26155  -0.25329  -0.23961  -0.22645  -0.22269
  Beta  occ. eigenvalues --   -0.21688  -0.20633  -0.20092  -0.19278  -0.18030
  Beta  occ. eigenvalues --   -0.13783  -0.12384  -0.08276  -0.07222
  Beta virt. eigenvalues --    0.05459   0.06830   0.07462   0.08068   0.08500
  Beta virt. eigenvalues --    0.09260   0.09773   0.10059   0.10186   0.10553
  Beta virt. eigenvalues --    0.11163   0.11335   0.11641   0.11790   0.12695

 Mulliken charges and spin densities:
               1          2
     1  C   -0.721813   0.008042
     2  C    0.411501  -0.042817
     3  C   -0.701013   0.005730
     4  C    0.688396   0.081228
     5  C   -0.716219   0.261086
     6  C    1.408497  -0.001192
     7  C   -0.322416   0.121462
     8  C   -0.403547   0.003043
     9  C   -0.176606   0.155141
    10  C   -0.362347  -0.021755
    11  C   -0.502873   0.091618
    12  O   -0.093203   0.006287
    13  C   -0.198716   0.000556
    14  C    0.120872  -0.000321
    15  N   -0.317577   0.002415
    16  O   -0.159260   0.003104
    17  C   -0.262457  -0.025475
    18  C   -0.636694   0.142131
    19  O   -0.359526   0.163839
    20  H    0.181060  -0.003177
    21  H    0.117889  -0.000814
    22  H    0.097000   0.007700
    23  H    0.117474   0.001141
    24  H    0.166818   0.000753
    25  H    0.122310  -0.000447
    26  H    0.107693  -0.000453
    27  H    0.125726  -0.008604
    28  H    0.148746   0.013670
    29  H    0.140872   0.006406
    30  H    0.172441   0.008206
    31  H    0.181600  -0.000531
    32  H    0.186097   0.007161
    33  H    0.132227   0.013064
    34  H    0.107988   0.012161
    35  H    0.126437   0.002165
    36  H    0.072624  -0.012526
 Sum of Mulliken charges =  -1.00000   1.00000

 Dipole moment (field-independent basis, Debye):
    X=              8.4553    Y=             -4.8391    Z=              4.0995  Tot=             10.5696
 Quadrupole moment (field-independent basis, Debye-Ang):
   XX=           -165.8404   YY=           -145.5468   ZZ=           -125.4566
   XY=              7.3131   XZ=              9.7424   YZ=              7.3830

 Summary of Natural Population Analysis:

                                       Natural Population
                Natural  -----------------------------------------------
    Atom  No    Charge         Core      Valence    Rydberg      Total
 -----------------------------------------------------------------------
      C    1   -0.28207      0.99965     2.27780    0.00462     3.28207
      C    2   -0.11320      0.99959     2.10422    0.00939     3.11320
      C    3   -0.28319      0.99965     2.27885    0.00469     3.28319
      C    4   -0.02819      0.99945     2.01761    0.01113     3.02819
      C    5   -0.01669      0.99948     2.00826    0.00895     3.01669
      C    6   -0.03152      0.99952     2.02338    0.00862     3.03152
      C    7   -0.07041      0.99949     2.06301    0.00792     3.07041
      C    8    0.11289      0.99934     1.87473    0.01304     2.88711
      C    9    0.16447      0.99934     1.82258    0.01361     2.83553
      C   10   -0.15683      0.99954     2.15029    0.00701     3.15683
      C   11   -0.06251      0.99954     2.05457    0.00840     3.06251
      O   12   -0.26611      0.99986     3.25687    0.00938     4.26611
      C   13   -0.06036      0.99950     2.05103    0.00983     3.06036
      C   14    0.13516      0.99966     1.84797    0.01722     2.86484
      N   15   -0.16455      0.99979     2.65338    0.01138     3.66455
      O   16   -0.28970      0.99986     3.27892    0.01092     4.28970
      C   17   -0.09627      0.99960     2.08922    0.00745     3.09627
      C   18    0.21708      0.99966     1.76283    0.02043     2.78292
      O   19   -0.26085      0.99988     3.25338    0.00759     4.26085
      H   20    0.11041      0.00000     0.38843    0.00117     0.38959
      H   21    0.09490      0.00000     0.40424    0.00086     0.40510
      H   22    0.08517      0.00000     0.41385    0.00099     0.41483
      H   23    0.08499      0.00000     0.41288    0.00213     0.41501
      H   24    0.10898      0.00000     0.38998    0.00103     0.39102
      H   25    0.09558      0.00000     0.40361    0.00081     0.40442
      H   26    0.08551      0.00000     0.41358    0.00091     0.41449
      H   27    0.08208      0.00000     0.41622    0.00170     0.41792
      H   28    0.09911      0.00000     0.39931    0.00158     0.40089
      H   29    0.09825      0.00000     0.40027    0.00148     0.40175
      H   30    0.10375      0.00000     0.39500    0.00126     0.39625
      H   31    0.10380      0.00000     0.39464    0.00156     0.39620
      H   32    0.10840      0.00000     0.39059    0.00101     0.39160
      H   33    0.08365      0.00000     0.41448    0.00187     0.41635
      H   34    0.07865      0.00000     0.41921    0.00213     0.42135
      H   35    0.08395      0.00000     0.41521    0.00084     0.41605
      H   36    0.04568      0.00000     0.45195    0.00237     0.45432
 =======================================================================
   * Total *   -0.00000     18.99238    49.79236    0.21525    69.00000

 Normal termination of Gaussian 16 at Sun Dec 13 17:13:10 2020.
