 Gaussian 16, Revision A.03,

 -----------------------------------------------------------
 # opt freq B3LYP/6-31G(d) empiricaldispersion=gd3bj scf=xqc
 -----------------------------------------------------------

 ------------------------------
 CID_87443838_JID_3023_neutraal
 ------------------------------
 Symbolic Z-matrix:
 Charge =  0 Multiplicity = 1

 SCF Done:  E(RB3LYP) =  -649.746049949     A.U. after   15 cycles
 SCF Done:  E(RB3LYP) =  -649.746855573     A.U. after   13 cycles
 SCF Done:  E(RB3LYP) =  -649.745496454     A.U. after   13 cycles
 SCF Done:  E(RB3LYP) =  -649.749073157     A.U. after   13 cycles
 SCF Done:  E(RB3LYP) =  -649.750008110     A.U. after   12 cycles
 SCF Done:  E(RB3LYP) =  -649.751351200     A.U. after   12 cycles
 SCF Done:  E(RB3LYP) =  -649.751497569     A.U. after   12 cycles
 SCF Done:  E(RB3LYP) =  -649.751649634     A.U. after   11 cycles
 SCF Done:  E(RB3LYP) =  -649.751686635     A.U. after   10 cycles
 SCF Done:  E(RB3LYP) =  -649.751687279     A.U. after    9 cycles
 SCF Done:  E(RB3LYP) =  -649.751696811     A.U. after    8 cycles
 SCF Done:  E(RB3LYP) =  -649.751697138     A.U. after    8 cycles
 SCF Done:  E(RB3LYP) =  -649.751697374     A.U. after    8 cycles
 SCF Done:  E(RB3LYP) =  -649.751697455     A.U. after    7 cycles
 SCF Done:  E(RB3LYP) =  -649.751697550     A.U. after    7 cycles
 SCF Done:  E(RB3LYP) =  -649.751697573     A.U. after    7 cycles
 Optimization completed.
    -- Stationary point found.
 Normal termination of Gaussian 16 at Wed Dec  9 22:26:17 2020.

 --------------------------------------------------------------------
 #N Geom=AllCheck Guess=TCheck SCRF=Check GenChk RB3LYP/6-31G(d) Freq
 --------------------------------------------------------------------

 Structure from the checkpoint file:  "JID_3023.chk"
 ------------------------------
 CID_87443838_JID_3023_neutraal
 ------------------------------
 Charge =  0 Multiplicity = 1

 SCF Done:  E(RB3LYP) =  -649.751697573     A.U. after    1 cycles

  Exact polarizability: 106.016   5.899 117.350   1.622   3.045  89.009
 Approx polarizability: 136.183   9.739 173.262   3.603   4.852 136.949

                      1                      2                      3
                      A                      A                      A
 Frequencies --     38.9261                44.0715                61.6508
 Red. masses --      4.9813                 4.2018                 5.5945
 Frc consts  --      0.0044                 0.0048                 0.0125
 IR Inten    --      1.4688                 0.6269                 0.5286

                      4                      5                      6
                      A                      A                      A
 Frequencies --     83.8311                94.8010               106.6405
 Red. masses --      3.8557                 6.3385                 4.1706
 Frc consts  --      0.0160                 0.0336                 0.0279
 IR Inten    --      1.2480                 1.7369                 0.6535

                      7                      8                      9
                      A                      A                      A
 Frequencies --    195.2601               233.7596               251.4673
 Red. masses --      3.3710                 1.0762                 3.7145
 Frc consts  --      0.0757                 0.0346                 0.1384
 IR Inten    --      1.0466                 0.4853                 0.5552

                     10                     11                     12
                      A                      A                      A
 Frequencies --    256.7476               276.8702               295.5056
 Red. masses --      3.2313                 1.3178                 2.1821
 Frc consts  --      0.1255                 0.0595                 0.1123
 IR Inten    --      0.5969                 1.5608                 3.5008

                     13                     14                     15
                      A                      A                      A
 Frequencies --    303.6153               329.6954               354.0280
 Red. masses --      1.1299                 2.9113                 2.0640
 Frc consts  --      0.0614                 0.1864                 0.1524
 IR Inten    --      0.6871                 2.5712                 0.9823

                     16                     17                     18
                      A                      A                      A
 Frequencies --    405.2425               420.2761               447.8205
 Red. masses --      2.3920                 1.9825                 3.4451
 Frc consts  --      0.2314                 0.2063                 0.4071
 IR Inten    --      1.7462                 0.1061                 3.2205

                     19                     20                     21
                      A                      A                      A
 Frequencies --    498.4733               514.5265               527.8297
 Red. masses --      2.3330                 1.3086                 2.6044
 Frc consts  --      0.3415                 0.2041                 0.4275
 IR Inten    --      1.0794                 0.9051                 9.4656

                     22                     23                     24
                      A                      A                      A
 Frequencies --    582.3516               588.0018               620.7473
 Red. masses --      3.0759                 1.1381                 1.8094
 Frc consts  --      0.6146                 0.2318                 0.4108
 IR Inten    --     94.9911               167.7086                89.8433

                     25                     26                     27
                      A                      A                      A
 Frequencies --    633.5519               728.3528               757.0442
 Red. masses --      2.3263                 4.1629                 3.6052
 Frc consts  --      0.5502                 1.3011                 1.2174
 IR Inten    --     54.6372                25.3318                 0.6699

                     28                     29                     30
                      A                      A                      A
 Frequencies --    763.8764               851.1503               908.9820
 Red. masses --     10.1041                 3.5742                 2.8471
 Frc consts  --      3.4737                 1.5256                 1.3860
 IR Inten    --     65.4053                 8.5718                 5.7269

                     31                     32                     33
                      A                      A                      A
 Frequencies --    917.1384               929.7109               955.7043
 Red. masses --      2.3345                 2.5908                 1.6139
 Frc consts  --      1.1569                 1.3194                 0.8685
 IR Inten    --      4.2380                 7.1210                 0.1947

                     34                     35                     36
                      A                      A                      A
 Frequencies --    959.6303               977.3021              1007.8212
 Red. masses --      1.4777                 1.2096                 2.0140
 Frc consts  --      0.8018                 0.6807                 1.2052
 IR Inten    --      2.7336                 0.6686                36.1452

                     37                     38                     39
                      A                      A                      A
 Frequencies --   1057.6676              1079.4572              1134.2432
 Red. masses --      1.4857                 1.4835                 2.6632
 Frc consts  --      0.9792                 1.0185                 2.0187
 IR Inten    --      1.2594                 2.7545                19.9960

                     40                     41                     42
                      A                      A                      A
 Frequencies --   1148.9579              1213.8798              1236.7480
 Red. masses --      2.9359                 1.4791                 1.8744
 Frc consts  --      2.2835                 1.2841                 1.6891
 IR Inten    --     47.7975               206.9983                37.4457

                     43                     44                     45
                      A                      A                      A
 Frequencies --   1256.5301              1279.0733              1291.6342
 Red. masses --      2.4497                 1.3297                 2.6537
 Frc consts  --      2.2788                 1.2817                 2.6085
 IR Inten    --      4.8774                33.7839                 4.3927

                     46                     47                     48
                      A                      A                      A
 Frequencies --   1341.2690              1363.3955              1389.1489
 Red. masses --      1.5696                 1.2879                 1.5757
 Frc consts  --      1.6637                 1.4105                 1.7915
 IR Inten    --     14.8928                18.4904                67.0896

                     49                     50                     51
                      A                      A                      A
 Frequencies --   1424.6273              1429.4992              1433.9879
 Red. masses --      1.6176                 1.2763                 1.2929
 Frc consts  --      1.9343                 1.5367                 1.5664
 IR Inten    --     50.3672                 3.0293                16.3029

                     52                     53                     54
                      A                      A                      A
 Frequencies --   1457.8668              1465.6794              1508.4080
 Red. masses --      1.7947                 1.3155                 1.6492
 Frc consts  --      2.2474                 1.6650                 2.2108
 IR Inten    --     73.3615                12.5310                42.1253

                     55                     56                     57
                      A                      A                      A
 Frequencies --   1511.0857              1514.1936              1519.5428
 Red. masses --      1.7051                 1.0532                 1.1624
 Frc consts  --      2.2939                 1.4227                 1.5814
 IR Inten    --     55.3300                 0.7753                 9.6982

                     58                     59                     60
                      A                      A                      A
 Frequencies --   1522.5087              1525.5888              1530.6557
 Red. masses --      1.0794                 1.2171                 1.1005
 Frc consts  --      1.4741                 1.6689                 1.5191
 IR Inten    --      2.2147                13.7689                 7.9120

                     61                     62                     63
                      A                      A                      A
 Frequencies --   1539.6554              1546.9259              1554.4834
 Red. masses --      1.0660                 1.0631                 1.0630
 Frc consts  --      1.4888                 1.4989                 1.5134
 IR Inten    --      2.2389                 6.1983                16.4221

                     64                     65                     66
                      A                      A                      A
 Frequencies --   1788.9221              1847.9781              3018.8381
 Red. masses --      7.6967                 7.3103                 1.0740
 Frc consts  --     14.5124                14.7089                 5.7666
 IR Inten    --    409.5554               504.9996                40.6211

                     67                     68                     69
                      A                      A                      A
 Frequencies --   3037.7868              3042.2253              3055.1803
 Red. masses --      1.0353                 1.0362                 1.0371
 Frc consts  --      5.6291                 5.6504                 5.7034
 IR Inten    --     31.7064                29.4717                12.5770

                     70                     71                     72
                      A                      A                      A
 Frequencies --   3095.6905              3102.4402              3105.3415
 Red. masses --      1.0643                 1.1025                 1.1016
 Frc consts  --      6.0094                 6.2521                 6.2590
 IR Inten    --     19.9608                17.9609                42.8754

                     73                     74                     75
                      A                      A                      A
 Frequencies --   3111.5581              3114.0437              3119.0572
 Red. masses --      1.1016                 1.1018                 1.1006
 Frc consts  --      6.2839                 6.2950                 6.3088
 IR Inten    --      8.4995                 9.5794                75.7501

                     76                     77                     78
                      A                      A                      A
 Frequencies --   3138.1591              3161.4348              3174.0666
 Red. masses --      1.1017                 1.1007                 1.0887
 Frc consts  --      6.3922                 6.4814                 6.4623
 IR Inten    --     11.9331                 4.8057                 2.4350

                     79                     80                     81
                      A                      A                      A
 Frequencies --   3590.7643              3638.8946              3736.4653
 Red. masses --      1.0749                 1.0768                 1.0648
 Frc consts  --      8.1657                 8.4005                 8.7586
 IR Inten    --     16.5573                40.1270                87.0812

 - Thermochemistry -
 -------------------
 Temperature   298.150 Kelvin.  Pressure   1.00000 Atm.
 Atom     1 has atomic number  6 and mass  12.00000

 Molecular mass:   188.11609 amu.
 Principal axes and moments of inertia in atomic units:
                           1         2         3
     Eigenvalues --  2150.694002699.547954062.87870
           X            0.99777   0.06647  -0.00572
           Y           -0.06644   0.99777   0.00605
           Z            0.00611  -0.00566   0.99997
 This molecule is an asymmetric top.
 Rotational symmetry number  1.
 Warning -- assumption of classical behavior for rotation
           may cause significant error
 Rotational temperatures (Kelvin)      0.04027     0.03208     0.02132
 Rotational constants (GHZ):           0.83914     0.66853     0.44420
 Zero-point vibrational energy     658412.4 (Joules/Mol)
                                  157.36435 (Kcal/Mol)
 Warning -- explicit consideration of  24 degrees of freedom as
           vibrations may cause significant error
 Vibrational temperatures:     56.01    63.41    88.70   120.61   136.40
          (Kelvin)            153.43   280.94   336.33   361.81   369.40
                              398.35   425.17   436.83   474.36   509.37
                              583.05   604.68   644.31   717.19   740.29
                              759.43   837.87   846.00   893.12   911.54
                             1047.94  1089.22  1099.05  1224.62  1307.82
                             1319.56  1337.65  1375.05  1380.69  1406.12
                             1450.03  1521.75  1553.10  1631.92  1653.09
                             1746.50  1779.40  1807.87  1840.30  1858.37
                             1929.79  1961.62  1998.68  2049.72  2056.73
                             2063.19  2097.55  2108.79  2170.26  2174.12
                             2178.59  2186.28  2190.55  2194.98  2202.27
                             2215.22  2225.68  2236.55  2573.86  2658.83
                             4343.43  4370.70  4377.08  4395.72  4454.01
                             4463.72  4467.89  4476.84  4480.41  4487.63
                             4515.11  4548.60  4566.77  5166.31  5235.56
                             5375.94

 Zero-point correction=                           0.250776 (Hartree/Particle)
 Thermal correction to Energy=                    0.265492
 Thermal correction to Enthalpy=                  0.266436
 Thermal correction to Gibbs Free Energy=         0.208703
 Sum of electronic and zero-point Energies=           -649.500922
 Sum of electronic and thermal Energies=              -649.486205
 Sum of electronic and thermal Enthalpies=            -649.485261
 Sum of electronic and thermal Free Energies=         -649.542994

                     E (Thermal)             CV                S
                      KCal/Mol        Cal/Mol-Kelvin    Cal/Mol-Kelvin
 Total                  166.599             54.483            121.509
 Electronic               0.000              0.000              0.000
 Translational            0.889              2.981             41.602
 Rotational               0.889              2.981             31.534
 Vibrational            164.821             48.521             48.373
 Vibration     1          0.594              1.981              5.313
 Vibration     2          0.595              1.980              5.067
 Vibration     3          0.597              1.973              4.404
 Vibration     4          0.601              1.960              3.799
 Vibration     5          0.603              1.953              3.558
 Vibration     6          0.606              1.944              3.329
 Vibration     7          0.636              1.846              2.177
 Vibration     8          0.654              1.789              1.850
 Vibration     9          0.663              1.760              1.720
 Vibration    10          0.666              1.751              1.684
 Vibration    11          0.678              1.716              1.553
 Vibration    12          0.690              1.682              1.442
 Vibration    13          0.695              1.667              1.397
 Vibration    14          0.712              1.616              1.262
 Vibration    15          0.730              1.567              1.148
 Vibration    16          0.770              1.459              0.944
 Vibration    17          0.783              1.426              0.891
 Vibration    18          0.807              1.366              0.802
 Vibration    19          0.854              1.253              0.662
 Vibration    20          0.870              1.218              0.623
 Vibration    21          0.883              1.188              0.592
 Vibration    22          0.939              1.069              0.481
 Vibration    23          0.945              1.057              0.471
 Vibration    24          0.981              0.988              0.415

                           ! Non-Optimized Parameters !
 Normal termination of Gaussian 16 at Wed Dec  9 22:34:06 2020.

 ----------------------------------------------------------------------
 # B3LYP/6-311++G(d,p) empiricaldispersion=gd3bj scf=xqc pop=npa geom=c
 heck
 ----------------------------------------------------------------------

 --------------------------------------
 CID_87443838_JID_3023_Energie_neutraal
 --------------------------------------
 Structure from the checkpoint file:  "JID_3023.chk"
 Charge =  0 Multiplicity = 1

 SCF Done:  E(RB3LYP) =  -649.960242793     A.U. after   14 cycles
 Normal termination of Gaussian 16 at Wed Dec  9 22:36:58 2020.

 ----------------------------------------------------------------------
 # B3LYP/6-311++G(d,p) empiricaldispersion=gd3bj scf=xqc pop=npa geom=c
 heck
 ----------------------------------------------------------------------

 ------------------------------------
 CID_87443838_JID_3023_Energie_kation
 ------------------------------------
 Structure from the checkpoint file:  "JID_3023.chk"
 Charge =  1 Multiplicity = 2

 SCF Done:  E(UB3LYP) =  -649.628002468     A.U. after   25 cycles
 Normal termination of Gaussian 16 at Wed Dec  9 22:43:38 2020.
 Gaussian 16:  ES64L-G16RevA.03 25-Dec-2016

 ----------------------------------------------------------------------
 # B3LYP/6-311++G(d,p) empiricaldispersion=gd3bj scf=xqc pop=npa geom=c
 heck
 ----------------------------------------------------------------------

 -----------------------------------
 CID_87443838_JID_3023_Energie_anion
 -----------------------------------
 Structure from the checkpoint file:  "JID_3023.chk"
 Charge = -1 Multiplicity = 2

                         Standard orientation:
 ---------------------------------------------------------------------
 Center     Atomic      Atomic             Coordinates (Angstroms)
 Number     Number       Type             X           Y           Z
 ---------------------------------------------------------------------
      1          6           0       -1.367827   -0.746150    1.390598
      2          6           0       -1.983943   -0.431638    0.018918
      3          6           0       -2.314007   -1.742103   -0.713587
      4          6           0       -3.271112    0.389561    0.207765
      5          6           0       -0.991196    0.352277   -0.873999
      6          7           0       -0.541855    1.611289   -0.298864
      7          6           0        0.722793    2.070380   -0.072952
      8          8           0        0.931812    3.203866    0.343612
      9          6           0        1.901845    1.121613   -0.344290
     10          7           0        1.902018   -0.041454    0.528757
     11          6           0        1.938488   -1.348828    0.168117
     12          8           0        1.903529   -2.289919    0.941593
     13          8           0        1.991790   -1.510376   -1.188815
     14          1           0       -2.105125   -1.246367    2.028996
     15          1           0       -1.053307    0.171706    1.898634
     16          1           0       -0.500269   -1.407703    1.305853
     17          1           0       -3.028270   -2.339231   -0.136112
     18          1           0       -2.756544   -1.550311   -1.698889
     19          1           0       -1.411325   -2.347842   -0.857879
     20          1           0       -3.083649    1.314658    0.766216
     21          1           0       -3.720608    0.656254   -0.756911
     22          1           0       -4.012647   -0.183210    0.775547
     23          1           0       -0.120193   -0.266676   -1.084987
     24          1           0       -1.476741    0.552882   -1.840444
     25          1           0       -1.246578    2.313080   -0.106238
     26          1           0        1.897351    0.770220   -1.376971
     27          1           0        2.802172    1.722189   -0.188095
     28          1           0        1.864762    0.106428    1.527331
     29          1           0        2.002539   -2.474155   -1.319828
 ---------------------------------------------------------------------

 SCF Done:  E(UB3LYP) =  -649.951346639     A.U. after   30 cycles

 The electronic state is 2-A.
 Alpha  occ. eigenvalues --  -19.06933 -19.00375 -18.99966 -14.25771 -14.24553
 Alpha  occ. eigenvalues --  -10.23105 -10.18532 -10.13010 -10.10895 -10.09005
 Alpha  occ. eigenvalues --  -10.06316 -10.05784 -10.05582  -1.01572  -0.95095
 Alpha  occ. eigenvalues --   -0.91993  -0.85039  -0.83141  -0.72357  -0.65216
 Alpha  occ. eigenvalues --   -0.60292  -0.59158  -0.58698  -0.55086  -0.50188
 Alpha  occ. eigenvalues --   -0.45453  -0.44065  -0.43056  -0.40085  -0.38313
 Alpha  occ. eigenvalues --   -0.38100  -0.36843  -0.36627  -0.35074  -0.33437
 Alpha  occ. eigenvalues --   -0.32942  -0.32292  -0.31584  -0.30691  -0.29177
 Alpha  occ. eigenvalues --   -0.28321  -0.27600  -0.26887  -0.24424  -0.23385
 Alpha  occ. eigenvalues --   -0.23182  -0.22858  -0.19646  -0.18621  -0.16632
 Alpha  occ. eigenvalues --   -0.15924   0.04208
 Alpha virt. eigenvalues --    0.06538   0.07604   0.07870   0.09052   0.09370
 Alpha virt. eigenvalues --    0.09499   0.09902   0.10578   0.11387   0.11979
 Alpha virt. eigenvalues --    0.12752   0.12865   0.13261   0.13914   0.14651

  Beta  occ. eigenvalues --  -19.06865 -19.00360 -18.99959 -14.25745 -14.24536
  Beta  occ. eigenvalues --  -10.23100 -10.18530 -10.12992 -10.10869 -10.09002
  Beta  occ. eigenvalues --  -10.06276 -10.05748 -10.05560  -1.01489  -0.95081
  Beta  occ. eigenvalues --   -0.91923  -0.84998  -0.83111  -0.72333  -0.65168
  Beta  occ. eigenvalues --   -0.60239  -0.59095  -0.58643  -0.54981  -0.50151
  Beta  occ. eigenvalues --   -0.45393  -0.43997  -0.43016  -0.40029  -0.38274
  Beta  occ. eigenvalues --   -0.38051  -0.36801  -0.36589  -0.35043  -0.33401
  Beta  occ. eigenvalues --   -0.32911  -0.32246  -0.31553  -0.30651  -0.29143
  Beta  occ. eigenvalues --   -0.28289  -0.27568  -0.26851  -0.24391  -0.23348
  Beta  occ. eigenvalues --   -0.23133  -0.22818  -0.19609  -0.18588  -0.16602
  Beta  occ. eigenvalues --   -0.15898
  Beta virt. eigenvalues --    0.06586   0.07580   0.08385   0.08500   0.09500
  Beta virt. eigenvalues --    0.09749   0.09897   0.10202   0.10919   0.11730
  Beta virt. eigenvalues --    0.12189   0.13048   0.13178   0.13521   0.14135

 Mulliken charges and spin densities:
               1          2
     1  C   -0.138900  -0.573055
     2  C   -0.946266   1.627038
     3  C    0.932957  -1.501384
     4  C    0.293578  -0.848270
     5  C    0.512494  -0.993944
     6  N   -0.194135   0.056506
     7  C   -0.319069   0.328245
     8  O   -0.356370   0.021122
     9  C    0.432900  -0.763160
    10  N   -0.180986   0.005590
    11  C    0.800480  -0.896350
    12  O   -0.365424   0.081888
    13  O   -0.266718   0.094434
    14  H   -0.049032   0.215125
    15  H    0.059131   0.091949
    16  H    0.030392   0.151684
    17  H   -0.060350   0.204572
    18  H   -0.184925   0.326122
    19  H   -0.299007   0.459792
    20  H   -0.035998   0.140840
    21  H   -0.266098   0.426590
    22  H   -0.217753   0.366038
    23  H    0.379568  -0.201700
    24  H   -0.449108   0.669085
    25  H    0.095606   0.222835
    26  H    0.005168   0.226659
    27  H   -0.017053   0.222200
    28  H    0.217769   0.110657
    29  H   -0.412851   0.728890
 Sum of Mulliken charges =  -1.00000   1.00000

 Dipole moment (field-independent basis, Debye):
    X=              1.3613    Y=              2.6504    Z=              2.2838  Tot=              3.7542
 Quadrupole moment (field-independent basis, Debye-Ang):
   XX=           -133.2859   YY=           -138.8963   ZZ=           -115.4829
   XY=              4.3349   XZ=             -1.9823   YZ=             -4.9515

 Summary of Natural Population Analysis:

                                       Natural Population
                Natural  -----------------------------------------------
    Atom  No    Charge         Core      Valence    Rydberg      Total
 -----------------------------------------------------------------------
      C    1   -0.28857      0.99961     2.28250    0.00645     3.28857
      C    2   -0.05313      0.99959     2.04144    0.01211     3.05313
      C    3   -0.28430      0.99962     2.27719    0.00749     3.28430
      C    4   -0.28755      0.99962     2.28044    0.00749     3.28755
      C    5   -0.08985      0.99954     2.07757    0.01273     3.08985
      N    6   -0.31152      0.99966     2.80210    0.00976     3.81152
      C    7    0.33586      0.99967     1.64272    0.02175     2.66414
      O    8   -0.32532      0.99988     3.31930    0.00615     4.32532
      C    9   -0.12937      0.99957     2.11990    0.00990     3.12937
      N   10   -0.32514      0.99966     2.81580    0.00968     3.82514
      C   11    0.45572      0.99971     1.51905    0.02553     2.54428
      O   12   -0.33158      0.99987     3.32591    0.00581     4.33158
      O   13   -0.35688      0.99988     3.34997    0.00704     4.35688
      H   14    0.09962      0.00000     0.39951    0.00087     0.40038
      H   15    0.09908      0.00000     0.39974    0.00118     0.40092
      H   16    0.10807      0.00000     0.39049    0.00145     0.39193
      H   17    0.10074      0.00000     0.39821    0.00105     0.39926
      H   18    0.10120      0.00000     0.39735    0.00145     0.39880
      H   19    0.10407      0.00000     0.39426    0.00167     0.39593
      H   20    0.09613      0.00000     0.40256    0.00131     0.40387
      H   21    0.10185      0.00000     0.39680    0.00135     0.39815
      H   22    0.10283      0.00000     0.39611    0.00106     0.39717
      H   23    0.10735      0.00000     0.38892    0.00373     0.39265
      H   24    0.09677      0.00000     0.40147    0.00177     0.40323
      H   25    0.19536      0.00000     0.30211    0.00253     0.30464
      H   26    0.11970      0.00000     0.37850    0.00180     0.38030
      H   27    0.10533      0.00000     0.39351    0.00116     0.39467
      H   28    0.20039      0.00000     0.29771    0.00190     0.29961
      H   29    0.25316      0.00000     0.23038    0.01646     0.24684
 =======================================================================
   * Total *   -0.00000     12.99589    37.82151    0.18260    51.00000

 Normal termination of Gaussian 16 at Wed Dec  9 22:51:51 2020.
