 Gaussian 16, Revision A.03,

 -----------------------------------------------------------
 # opt freq B3LYP/6-31G(d) empiricaldispersion=gd3bj scf=xqc
 -----------------------------------------------------------

 ------------------------------
 CID_45121262_JID_1161_neutraal
 ------------------------------
 Symbolic Z-matrix:
 Charge =  0 Multiplicity = 1

 SCF Done:  E(RB3LYP) =  -511.623531691     A.U. after   15 cycles
 SCF Done:  E(RB3LYP) =  -511.627880202     A.U. after   12 cycles
 SCF Done:  E(RB3LYP) =  -511.628134627     A.U. after   11 cycles
 SCF Done:  E(RB3LYP) =  -511.628162459     A.U. after    9 cycles
 SCF Done:  E(RB3LYP) =  -511.628164239     A.U. after    9 cycles
 SCF Done:  E(RB3LYP) =  -511.628169547     A.U. after    8 cycles
 SCF Done:  E(RB3LYP) =  -511.628170272     A.U. after    8 cycles
 Optimization completed.
    -- Stationary point found.
 Normal termination of Gaussian 16 at Tue Dec  8 19:11:56 2020.

 --------------------------------------------------------------------
 #N Geom=AllCheck Guess=TCheck SCRF=Check GenChk RB3LYP/6-31G(d) Freq
 --------------------------------------------------------------------

 Structure from the checkpoint file:  "JID_1161.chk"
 ------------------------------
 CID_45121262_JID_1161_neutraal
 ------------------------------
 Charge =  0 Multiplicity = 1

 SCF Done:  E(RB3LYP) =  -511.628170272     A.U. after    1 cycles

  Exact polarizability: 147.053  -1.196  81.521  -0.004  -0.002  51.265
 Approx polarizability: 194.897  -4.513 139.292  -0.009  -0.008  75.753

                      1                      2                      3
                      A                      A                      A
 Frequencies --     26.9918                41.4878               111.0198
 Red. masses --      4.6204                 2.5519                 2.7624
 Frc consts  --      0.0020                 0.0026                 0.0201
 IR Inten    --      0.0398                 0.1122                 0.1748

                      4                      5                      6
                      A                      A                      A
 Frequencies --    111.8194               160.3125               206.6570
 Red. masses --      5.5130                 3.6482                 4.3996
 Frc consts  --      0.0406                 0.0552                 0.1107
 IR Inten    --      1.1460                 0.2191                 0.1922

                      7                      8                      9
                      A                      A                      A
 Frequencies --    311.1829               317.8048               346.0527
 Red. masses --      5.5172                 4.5554                 2.3505
 Frc consts  --      0.3148                 0.2711                 0.1658
 IR Inten    --      2.6913                 0.7514                33.1787

                     10                     11                     12
                      A                      A                      A
 Frequencies --    471.8575               480.6731               518.4330
 Red. masses --      6.1362                 1.8330                 3.8166
 Frc consts  --      0.8050                 0.2495                 0.6044
 IR Inten    --     16.6305                22.6378                10.3446

                     13                     14                     15
                      A                      A                      A
 Frequencies --    610.0746               639.2715               684.4590
 Red. masses --      1.2561                 2.8047                 4.2938
 Frc consts  --      0.2754                 0.6753                 1.1852
 IR Inten    --    109.7238                 0.2868                14.0923

                     16                     17                     18
                      A                      A                      A
 Frequencies --    713.9994               767.8376               798.5925
 Red. masses --      2.2619                 1.7094                 1.0721
 Frc consts  --      0.6794                 0.5938                 0.4029
 IR Inten    --     13.6121                50.1137                 0.5810

                     19                     20                     21
                      A                      A                      A
 Frequencies --    828.0564               859.4318               913.8294
 Red. masses --      1.6145                 5.2520                 3.3157
 Frc consts  --      0.6522                 2.2856                 1.6314
 IR Inten    --      8.2917                13.1957                19.3795

                     22                     23                     24
                      A                      A                      A
 Frequencies --    919.8311              1019.6071              1039.6630
 Red. masses --      2.7727                 3.2212                 3.5691
 Frc consts  --      1.3822                 1.9730                 2.2729
 IR Inten    --      0.3304                10.8494                11.3973

                     25                     26                     27
                      A                      A                      A
 Frequencies --   1044.5024              1070.0693              1082.0670
 Red. masses --      1.5538                 1.3686                 1.3227
 Frc consts  --      0.9988                 0.9233                 0.9124
 IR Inten    --      0.2828                 7.1840                 4.0891

                     28                     29                     30
                      A                      A                      A
 Frequencies --   1089.4768              1133.6837              1156.6549
 Red. masses --      1.6873                 1.1094                 1.5100
 Frc consts  --      1.1800                 0.8401                 1.1903
 IR Inten    --      0.0283                 1.0977                 3.0250

                     31                     32                     33
                      A                      A                      A
 Frequencies --   1203.4064              1213.7844              1235.5887
 Red. masses --      3.8536                 1.3897                 2.4737
 Frc consts  --      3.2881                 1.2063                 2.2251
 IR Inten    --     15.3332                 0.5968                 5.3959

                     34                     35                     36
                      A                      A                      A
 Frequencies --   1261.5139              1310.3077              1363.4092
 Red. masses --      3.5021                 1.9904                 2.2816
 Frc consts  --      3.2837                 2.0134                 2.4989
 IR Inten    --    236.7508                58.0350                 4.7209

                     37                     38                     39
                      A                      A                      A
 Frequencies --   1385.5266              1435.9229              1479.5480
 Red. masses --      1.3801                 1.4683                 2.2373
 Frc consts  --      1.5610                 1.7838                 2.8855
 IR Inten    --      9.8916                37.9149                 4.9803

                     40                     41                     42
                      A                      A                      A
 Frequencies --   1501.0324              1535.1309              1545.2152
 Red. masses --      1.0860                 1.3196                 4.8892
 Frc consts  --      1.4416                 1.8322                 6.8781
 IR Inten    --      1.8375                 4.5383                28.6459

                     43                     44                     45
                      A                      A                      A
 Frequencies --   1589.3998              1637.8917              1817.7477
 Red. masses --      5.0435                 4.5514                 6.6169
 Frc consts  --      7.5066                 7.1939                12.8817
 IR Inten    --    253.9960               123.1756               579.8712

                     46                     47                     48
                      A                      A                      A
 Frequencies --   3057.3796              3148.6503              3152.7287
 Red. masses --      1.0892                 1.0510                 1.0593
 Frc consts  --      5.9985                 6.1393                 6.2036
 IR Inten    --     29.1798                18.2125                 7.4010

                     49                     50                     51
                      A                      A                      A
 Frequencies --   3189.3152              3224.5745              3239.6958
 Red. masses --      1.0902                 1.1197                 1.1156
 Frc consts  --      6.5333                 6.8595                 6.8986
 IR Inten    --      4.6455                 0.2598                20.3698

                     52                     53                     54
                      A                      A                      A
 Frequencies --   3273.9518              3609.0648              3678.3049
 Red. masses --      1.0973                 1.0765                 1.0807
 Frc consts  --      6.9301                 8.2617                 8.6152
 IR Inten    --      1.0080                27.2719                60.9168

 - Thermochemistry -
 -------------------
 Temperature   298.150 Kelvin.  Pressure   1.00000 Atm.
 Atom     1 has atomic number  6 and mass  12.00000

 Molecular mass:   151.07456 amu.
 Principal axes and moments of inertia in atomic units:
                           1         2         3
     Eigenvalues --   339.870603961.311684157.97353
           X            1.00000  -0.00084   0.00000
           Y            0.00084   1.00000  -0.00001
           Z           -0.00000   0.00001   1.00000
 This molecule is an asymmetric top.
 Rotational symmetry number  1.
 Rotational temperatures (Kelvin)      0.25484     0.02186     0.02083
 Rotational constants (GHZ):           5.31008     0.45559     0.43404
 Zero-point vibrational energy     422069.4 (Joules/Mol)
                                  100.87700 (Kcal/Mol)
 Warning -- explicit consideration of  13 degrees of freedom as
           vibrations may cause significant error
 Vibrational temperatures:     38.84    59.69   159.73   160.88   230.65
          (Kelvin)            297.33   447.72   457.25   497.89   678.90
                              691.58   745.91   877.76   919.77   984.78
                             1027.29  1104.75  1149.00  1191.39  1236.53
                             1314.80  1323.43  1466.99  1495.84  1502.81
                             1539.59  1556.85  1567.51  1631.12  1664.17
                             1731.43  1746.37  1777.74  1815.04  1885.24
                             1961.64  1993.46  2065.97  2128.74  2159.65
                             2208.71  2223.22  2286.79  2356.56  2615.33
                             4398.89  4530.21  4536.07  4588.71  4639.44
                             4661.20  4710.49  5192.64  5292.26

 Zero-point correction=                           0.160758 (Hartree/Particle)
 Thermal correction to Energy=                    0.171056
 Thermal correction to Enthalpy=                  0.172000
 Thermal correction to Gibbs Free Energy=         0.123236
 Sum of electronic and zero-point Energies=           -511.467413
 Sum of electronic and thermal Energies=              -511.457114
 Sum of electronic and thermal Enthalpies=            -511.456170
 Sum of electronic and thermal Free Energies=         -511.504934

                     E (Thermal)             CV                S
                      KCal/Mol        Cal/Mol-Kelvin    Cal/Mol-Kelvin
 Total                  107.339             37.345            102.632
 Electronic               0.000              0.000              0.000
 Translational            0.889              2.981             40.948
 Rotational               0.889              2.981             30.105
 Vibrational            105.562             31.384             31.579
 Vibration     1          0.593              1.984              6.039
 Vibration     2          0.594              1.981              5.187
 Vibration     3          0.607              1.940              3.251
 Vibration     4          0.607              1.940              3.237
 Vibration     5          0.622              1.891              2.546
 Vibration     6          0.641              1.830              2.073
 Vibration     7          0.700              1.652              1.356
 Vibration     8          0.704              1.640              1.321
 Vibration     9          0.724              1.583              1.184
 Vibration    10          0.829              1.312              0.732
 Vibration    11          0.837              1.293              0.708
 Vibration    12          0.873              1.209              0.614
 Vibration    13          0.969              1.010              0.433

                           ! Non-Optimized Parameters !
 Normal termination of Gaussian 16 at Tue Dec  8 19:15:21 2020.

 ----------------------------------------------------------------------
 # B3LYP/6-311++G(d,p) empiricaldispersion=gd3bj scf=xqc pop=npa geom=c
 heck
 ----------------------------------------------------------------------

 --------------------------------------
 CID_45121262_JID_1161_Energie_neutraal
 --------------------------------------
 Structure from the checkpoint file:  "JID_1161.chk"
 Charge =  0 Multiplicity = 1

 SCF Done:  E(RB3LYP) =  -511.777326211     A.U. after   15 cycles
 Normal termination of Gaussian 16 at Tue Dec  8 19:16:53 2020.

 ----------------------------------------------------------------------
 # B3LYP/6-311++G(d,p) empiricaldispersion=gd3bj scf=xqc pop=npa geom=c
 heck
 ----------------------------------------------------------------------

 ------------------------------------
 CID_45121262_JID_1161_Energie_kation
 ------------------------------------
 Structure from the checkpoint file:  "JID_1161.chk"
 Charge =  1 Multiplicity = 2

 SCF Done:  E(UB3LYP) =  -511.473687255     A.U. after   24 cycles
 Normal termination of Gaussian 16 at Tue Dec  8 19:20:21 2020.
 Gaussian 16:  ES64L-G16RevA.03 25-Dec-2016

 ----------------------------------------------------------------------
 # B3LYP/6-311++G(d,p) empiricaldispersion=gd3bj scf=xqc pop=npa geom=c
 heck
 ----------------------------------------------------------------------

 -----------------------------------
 CID_45121262_JID_1161_Energie_anion
 -----------------------------------
 Structure from the checkpoint file:  "JID_1161.chk"
 Charge = -1 Multiplicity = 2

                         Standard orientation:
 ---------------------------------------------------------------------
 Center     Atomic      Atomic             Coordinates (Angstroms)
 Number     Number       Type             X           Y           Z
 ---------------------------------------------------------------------
      1          6           0        3.624020   -0.174419    0.751497
      2          6           0        3.624499   -0.176185   -0.750292
      3          6           0        2.606807    0.664025   -0.000748
      4          6           0        1.177898    0.303140   -0.000567
      5          6           0        0.048394    1.106824   -0.000083
      6          6           0       -1.040329    0.200592   -0.000274
      7          7           0       -0.643742   -1.069125   -0.000053
      8          7           0        0.716207   -0.975683   -0.000055
      9          7           0       -2.394346    0.541851   -0.000375
     10          6           0       -3.451912   -0.335613    0.000338
     11          8           0       -4.615270    0.022628    0.000334
     12          1           0        4.422203    0.347324    1.270836
     13          1           0        3.258206   -1.054345    1.274202
     14          1           0        4.422996    0.344383   -1.270330
     15          1           0        3.259230   -1.057386   -1.271240
     16          1           0        2.772869    1.736754   -0.001962
     17          1           0        0.019587    2.186643    0.000046
     18          1           0        1.249812   -1.830259   -0.000217
     19          1           0       -2.638801    1.524077   -0.000710
     20          1           0       -3.127033   -1.387706    0.000858
 ---------------------------------------------------------------------

 SCF Done:  E(UB3LYP) =  -511.768115515     A.U. after   33 cycles
 SCF Done:  E(UB3LYP) =  -511.768115515     a.u. after    1 cycles

 The electronic state is 2-A.
 Alpha  occ. eigenvalues --  -19.01860 -14.28488 -14.27140 -14.23336 -10.19210
 Alpha  occ. eigenvalues --  -10.14549 -10.12581 -10.09505 -10.07872 -10.07844
 Alpha  occ. eigenvalues --  -10.07265  -0.96642  -0.95263  -0.85867  -0.77572
 Alpha  occ. eigenvalues --   -0.71616  -0.69080  -0.57829  -0.53977  -0.52548
 Alpha  occ. eigenvalues --   -0.50775  -0.50301  -0.42919  -0.41105  -0.40543
 Alpha  occ. eigenvalues --   -0.38486  -0.36442  -0.35663  -0.34347  -0.33425
 Alpha  occ. eigenvalues --   -0.32856  -0.28914  -0.27246  -0.24734  -0.22222
 Alpha  occ. eigenvalues --   -0.21709  -0.20996  -0.18239  -0.14693  -0.13251
 Alpha  occ. eigenvalues --    0.04245
 Alpha virt. eigenvalues --    0.06481   0.06846   0.07239   0.08595   0.09254
 Alpha virt. eigenvalues --    0.09748   0.10904   0.11604   0.11857   0.12558
 Alpha virt. eigenvalues --    0.13547   0.14057   0.15123   0.15149   0.16039

  Beta  occ. eigenvalues --  -19.01859 -14.28434 -14.27134 -14.23330 -10.19211
  Beta  occ. eigenvalues --  -10.14551 -10.12582 -10.09486 -10.07828 -10.07801
  Beta  occ. eigenvalues --  -10.07248  -0.96637  -0.95235  -0.85852  -0.77538
  Beta  occ. eigenvalues --   -0.71555  -0.69048  -0.57801  -0.53936  -0.52507
  Beta  occ. eigenvalues --   -0.50637  -0.50238  -0.42864  -0.41061  -0.40496
  Beta  occ. eigenvalues --   -0.38413  -0.36426  -0.35606  -0.34326  -0.33382
  Beta  occ. eigenvalues --   -0.32842  -0.28866  -0.27195  -0.24718  -0.22190
  Beta  occ. eigenvalues --   -0.21689  -0.20941  -0.18232  -0.14671  -0.13230
  Beta virt. eigenvalues --    0.06841   0.06996   0.07669   0.08564   0.09364
  Beta virt. eigenvalues --    0.09712   0.10233   0.10967   0.12485   0.12573
  Beta virt. eigenvalues --    0.12916   0.13775   0.13931   0.15028   0.15509

 Mulliken charges and spin densities:
               1          2
     1  C    1.925956  -2.401029
     2  C    1.925585  -2.400453
     3  C   -6.737227   6.764264
     4  C    4.405669  -4.589874
     5  C    0.559421   0.033471
     6  C    1.297726  -1.715961
     7  N   -0.018150  -0.194146
     8  N   -0.334901   0.179671
     9  N   -0.228580   0.000020
    10  C    0.158074  -0.139102
    11  O   -0.344914   0.006864
    12  H   -0.473479   0.637884
    13  H   -0.566510   0.710907
    14  H   -0.474130   0.638629
    15  H   -0.567548   0.711851
    16  H   -1.354985   1.628848
    17  H   -0.472795   0.655206
    18  H   -0.061473   0.383342
    19  H    0.223682   0.070548
    20  H    0.138579   0.019059
 Sum of Mulliken charges =  -1.00000   1.00000

 Dipole moment (field-independent basis, Debye):
    X=             -6.8219    Y=             -0.6881    Z=              0.0028  Tot=              6.8565
 Quadrupole moment (field-independent basis, Debye-Ang):
   XX=           -166.9511   YY=           -104.8564   ZZ=            -89.3621
   XY=             -4.7565   XZ=              0.0139   YZ=              0.0046

 Summary of Natural Population Analysis:

                                       Natural Population
                Natural  -----------------------------------------------
    Atom  No    Charge         Core      Valence    Rydberg      Total
 -----------------------------------------------------------------------
      C    1   -0.18714      0.99963     2.17798    0.00952     3.18714
      C    2   -0.18715      0.99963     2.17800    0.00953     3.18715
      C    3   -0.13420      0.99957     2.12284    0.01179     3.13420
      C    4    0.09710      0.99954     1.88999    0.01337     2.90290
      C    5   -0.17140      0.99948     2.16368    0.00824     3.17140
      C    6    0.15894      0.99956     1.82590    0.01560     2.84106
      N    7   -0.18382      0.99969     2.67208    0.01205     3.68382
      N    8   -0.16885      0.99965     2.65712    0.01208     3.66885
      N    9   -0.30670      0.99966     2.79884    0.00820     3.80670
      C   10    0.27096      0.99975     1.70720    0.02209     2.72904
      O   11   -0.31209      0.99988     3.30611    0.00610     4.31209
      H   12    0.10891      0.00000     0.38857    0.00252     0.39109
      H   13    0.10307      0.00000     0.39496    0.00197     0.39693
      H   14    0.10893      0.00000     0.38855    0.00252     0.39107
      H   15    0.10307      0.00000     0.39496    0.00197     0.39693
      H   16    0.11670      0.00000     0.38059    0.00271     0.38330
      H   17    0.11244      0.00000     0.38607    0.00149     0.38756
      H   18    0.20542      0.00000     0.28953    0.00505     0.29458
      H   19    0.19848      0.00000     0.29898    0.00254     0.30152
      H   20    0.06730      0.00000     0.43114    0.00156     0.43270
 =======================================================================
   * Total *    0.00000     10.99604    28.85307    0.15088    40.00000

 Normal termination of Gaussian 16 at Tue Dec  8 19:25:05 2020.
