 Gaussian 16, Revision A.03,

 -----------------------------------------------------------
 # opt freq B3LYP/6-31G(d) empiricaldispersion=gd3bj scf=xqc
 -----------------------------------------------------------

 -------------------------------
 CID_123469233_JID_3361_neutraal
 -------------------------------
 Symbolic Z-matrix:
 Charge =  0 Multiplicity = 1

 SCF Done:  E(RB3LYP) =  -628.609837258     A.U. after   15 cycles
 SCF Done:  E(RB3LYP) =  -628.615244020     A.U. after   14 cycles
 SCF Done:  E(RB3LYP) =  -628.611869953     A.U. after   14 cycles
 SCF Done:  E(RB3LYP) =  -628.615030626     A.U. after   14 cycles
 SCF Done:  E(RB3LYP) =  -628.617118734     A.U. after   11 cycles
 SCF Done:  E(RB3LYP) =  -628.618223051     A.U. after   14 cycles
 SCF Done:  E(RB3LYP) =  -628.618524698     A.U. after   13 cycles
 SCF Done:  E(RB3LYP) =  -628.618931457     A.U. after   13 cycles
 SCF Done:  E(RB3LYP) =  -628.619394135     A.U. after   12 cycles
 SCF Done:  E(RB3LYP) =  -628.619407846     A.U. after   12 cycles
 SCF Done:  E(RB3LYP) =  -628.619722883     A.U. after   11 cycles
 SCF Done:  E(RB3LYP) =  -628.619725149     A.U. after    9 cycles
 SCF Done:  E(RB3LYP) =  -628.619725685     A.U. after    8 cycles
 SCF Done:  E(RB3LYP) =  -628.619726018     A.U. after    8 cycles
 SCF Done:  E(RB3LYP) =  -628.619726156     A.U. after    7 cycles
 Optimization completed.
    -- Stationary point found.
 Normal termination of Gaussian 16 at Wed Dec  9 23:05:18 2020.

 --------------------------------------------------------------------
 #N Geom=AllCheck Guess=TCheck SCRF=Check GenChk RB3LYP/6-31G(d) Freq
 --------------------------------------------------------------------

 Structure from the checkpoint file:  "JID_3361.chk"
 -------------------------------
 CID_123469233_JID_3361_neutraal
 -------------------------------
 Charge =  0 Multiplicity = 1

 SCF Done:  E(RB3LYP) =  -628.619726156     A.U. after    1 cycles

  Exact polarizability: 129.858   4.186  97.466  -3.022   0.516  95.178
 Approx polarizability: 188.328   0.514 136.306 -13.931   4.888 150.114

                      1                      2                      3
                      A                      A                      A
 Frequencies --     37.9593                49.9841                68.1586
 Red. masses --      3.4404                 3.3623                 6.4762
 Frc consts  --      0.0029                 0.0049                 0.0177
 IR Inten    --      3.1964                 1.3665                10.9904

                      4                      5                      6
                      A                      A                      A
 Frequencies --     82.0382               108.3835               117.9980
 Red. masses --      4.7527                 3.5124                 2.9612
 Frc consts  --      0.0188                 0.0243                 0.0243
 IR Inten    --      3.3909                 0.3325                 0.3730

                      7                      8                      9
                      A                      A                      A
 Frequencies --    148.7212               189.3904               223.2521
 Red. masses --      2.6513                 1.3490                 2.7680
 Frc consts  --      0.0346                 0.0285                 0.0813
 IR Inten    --      3.9764                 0.1748                 2.7265

                     10                     11                     12
                      A                      A                      A
 Frequencies --    230.9696               253.3564               273.4080
 Red. masses --      1.3223                 2.6517                 2.2144
 Frc consts  --      0.0416                 0.1003                 0.0975
 IR Inten    --      1.1617                 0.3752                 0.4801

                     13                     14                     15
                      A                      A                      A
 Frequencies --    294.5733               312.6195               352.5537
 Red. masses --      1.2551                 3.5031                 2.4680
 Frc consts  --      0.0642                 0.2017                 0.1807
 IR Inten    --      0.1733                 1.5278                 0.2429

                     16                     17                     18
                      A                      A                      A
 Frequencies --    380.0468               425.2989               453.2879
 Red. masses --      4.6955                 3.8657                 1.2735
 Frc consts  --      0.3996                 0.4120                 0.1542
 IR Inten    --     16.1978                11.5798               139.3015

                     19                     20                     21
                      A                      A                      A
 Frequencies --    515.9309               542.4465               552.7725
 Red. masses --      3.2375                 1.1633                 3.2245
 Frc consts  --      0.5077                 0.2017                 0.5805
 IR Inten    --      3.6682                18.8923                11.6017

                     22                     23                     24
                      A                      A                      A
 Frequencies --    564.7767               597.0100               617.9810
 Red. masses --      3.1420                 2.1027                 2.4773
 Frc consts  --      0.5905                 0.4416                 0.5574
 IR Inten    --     12.9447                89.3922                13.4621

                     25                     26                     27
                      A                      A                      A
 Frequencies --    640.5512               729.8072               783.7606
 Red. masses --      3.8377                 5.1184                 2.7171
 Frc consts  --      0.9277                 1.6062                 0.9834
 IR Inten    --     16.1821                21.3911                26.9903

                     28                     29                     30
                      A                      A                      A
 Frequencies --    801.5253               816.6672               832.8147
 Red. masses --      3.6566                 1.2663                 2.8738
 Frc consts  --      1.3841                 0.4976                 1.1744
 IR Inten    --     81.4558                 1.8161                10.5940

                     31                     32                     33
                      A                      A                      A
 Frequencies --    956.4484               970.7353               977.7952
 Red. masses --      3.3085                 1.6080                 1.9489
 Frc consts  --      1.7832                 0.8928                 1.0978
 IR Inten    --     31.3495                26.6812                 0.4526

                     34                     35                     36
                      A                      A                      A
 Frequencies --   1013.5035              1039.2195              1053.0035
 Red. masses --      2.3699                 1.8459                 2.3106
 Frc consts  --      1.4342                 1.1745                 1.5095
 IR Inten    --      1.3831                 0.8223                20.9819

                     37                     38                     39
                      A                      A                      A
 Frequencies --   1078.8049              1104.0065              1125.4676
 Red. masses --      2.3585                 1.7745                 1.9562
 Frc consts  --      1.6172                 1.2743                 1.4599
 IR Inten    --     17.2029                 9.7470                 5.0027

                     40                     41                     42
                      A                      A                      A
 Frequencies --   1125.9508              1148.3978              1190.1440
 Red. masses --      1.6482                 2.0988                 2.2589
 Frc consts  --      1.2311                 1.6308                 1.8852
 IR Inten    --      4.5983                 7.9101                54.7022

                     43                     44                     45
                      A                      A                      A
 Frequencies --   1263.1521              1313.1435              1335.9818
 Red. masses --      2.4157                 1.3210                 1.4259
 Frc consts  --      2.2709                 1.3421                 1.4994
 IR Inten    --     26.9516                 8.4750                16.6070

                     46                     47                     48
                      A                      A                      A
 Frequencies --   1354.3326              1379.8808              1412.5239
 Red. masses --      1.3948                 1.5126                 3.3979
 Frc consts  --      1.5074                 1.6969                 3.9945
 IR Inten    --     11.6087                 1.7587               156.9030

                     49                     50                     51
                      A                      A                      A
 Frequencies --   1419.1163              1433.6911              1435.8934
 Red. masses --      1.3123                 1.2418                 1.2338
 Frc consts  --      1.5571                 1.5039                 1.4987
 IR Inten    --     40.6344                 6.5708                 1.7335

                     52                     53                     54
                      A                      A                      A
 Frequencies --   1442.3495              1493.6872              1502.7415
 Red. masses --      1.2217                 1.0553                 1.0521
 Frc consts  --      1.4975                 1.3872                 1.3998
 IR Inten    --      5.5354                11.1330                10.1552

                     55                     56                     57
                      A                      A                      A
 Frequencies --   1511.5751              1524.6453              1529.5778
 Red. masses --      1.0822                 1.0399                 1.0436
 Frc consts  --      1.4569                 1.4242                 1.4386
 IR Inten    --      8.3736                 8.4464                15.7907

                     58                     59                     60
                      A                      A                      A
 Frequencies --   1536.9919              1543.8598              1638.6103
 Red. masses --      1.0504                 1.0688                 1.2838
 Frc consts  --      1.4620                 1.5010                 2.0309
 IR Inten    --      6.2872                 9.0148               139.4003

                     61                     62                     63
                      A                      A                      A
 Frequencies --   1678.2071              1813.7843              1816.7463
 Red. masses --      6.4576                 9.3519                 7.5537
 Frc consts  --     10.7154                18.1268                14.6892
 IR Inten    --     27.2583                58.6216               514.4419

                     64                     65                     66
                      A                      A                      A
 Frequencies --   3050.5678              3055.8709              3060.0102
 Red. masses --      1.0431                 1.0393                 1.0356
 Frc consts  --      5.7191                 5.7180                 5.7134
 IR Inten    --      4.4420                29.2855                17.3913

                     67                     68                     69
                      A                      A                      A
 Frequencies --   3076.2418              3091.1382              3113.8115
 Red. masses --      1.0598                 1.0836                 1.0997
 Frc consts  --      5.9089                 6.1002                 6.2824
 IR Inten    --     17.5116                 1.4370                26.1077

                     70                     71                     72
                      A                      A                      A
 Frequencies --   3122.2239              3123.0660              3126.9346
 Red. masses --      1.0967                 1.0976                 1.1035
 Frc consts  --      6.2990                 6.3074                 6.3568
 IR Inten    --      9.6616                18.8673                27.7073

                     73                     74                     75
                      A                      A                      A
 Frequencies --   3147.6115              3166.0295              3174.0489
 Red. masses --      1.1027                 1.1001                 1.1043
 Frc consts  --      6.4369                 6.4973                 6.5547
 IR Inten    --     13.2021                 4.5174                 8.4766

                     76                     77                     78
                      A                      A                      A
 Frequencies --   3568.9775              3585.7780              3705.5706
 Red. masses --      1.0755                 1.0466                 1.1022
 Frc consts  --      8.0710                 7.9286                 8.9174
 IR Inten    --     34.2553                24.2851                59.2753

 - Thermochemistry -
 -------------------
 Temperature   298.150 Kelvin.  Pressure   1.00000 Atm.
 Atom     1 has atomic number  6 and mass  12.00000

 Molecular mass:   185.11643 amu.
 Principal axes and moments of inertia in atomic units:
                           1         2         3
     Eigenvalues --  1747.290232756.016303334.70023
           X            0.99904   0.04322   0.00718
           Y           -0.04261   0.99662  -0.07018
           Z           -0.01019   0.06981   0.99751
 This molecule is an asymmetric top.
 Rotational symmetry number  1.
 Warning -- assumption of classical behavior for rotation
           may cause significant error
 Rotational temperatures (Kelvin)      0.04957     0.03143     0.02597
 Rotational constants (GHZ):           1.03288     0.65484     0.54120
 Zero-point vibrational energy     624031.3 (Joules/Mol)
                                  149.14707 (Kcal/Mol)
 Warning -- explicit consideration of  24 degrees of freedom as
           vibrations may cause significant error
 Vibrational temperatures:     54.61    71.92    98.07   118.03   155.94
          (Kelvin)            169.77   213.98   272.49   321.21   332.31
                              364.52   393.37   423.83   449.79   507.25
                              546.80   611.91   652.18   742.31   780.46
                              795.32   812.59   858.96   889.14   921.61
                             1050.03  1127.66  1153.22  1175.00  1198.23
                             1376.12  1396.67  1406.83  1458.21  1495.21
                             1515.04  1552.16  1588.42  1619.30  1619.99
                             1652.29  1712.35  1817.39  1889.32  1922.18
                             1948.58  1985.34  2032.31  2041.79  2062.76
                             2065.93  2075.22  2149.08  2162.11  2174.82
                             2193.62  2200.72  2211.39  2221.27  2357.59
                             2414.57  2609.63  2613.89  4389.09  4396.72
                             4402.67  4426.03  4447.46  4480.08  4492.18
                             4493.40  4498.96  4528.71  4555.21  4566.75
                             5134.96  5159.13  5331.49

 Zero-point correction=                           0.237681 (Hartree/Particle)
 Thermal correction to Energy=                    0.252570
 Thermal correction to Enthalpy=                  0.253515
 Thermal correction to Gibbs Free Energy=         0.195651
 Sum of electronic and zero-point Energies=           -628.382045
 Sum of electronic and thermal Energies=              -628.367156
 Sum of electronic and thermal Enthalpies=            -628.366212
 Sum of electronic and thermal Free Energies=         -628.424075

                     E (Thermal)             CV                S
                      KCal/Mol        Cal/Mol-Kelvin    Cal/Mol-Kelvin
 Total                  158.490             54.251            121.785
 Electronic               0.000              0.000              0.000
 Translational            0.889              2.981             41.554
 Rotational               0.889              2.981             31.152
 Vibrational            156.713             48.289             49.079
 Vibration     1          0.594              1.982              5.363
 Vibration     2          0.595              1.978              4.818
 Vibration     3          0.598              1.969              4.206
 Vibration     4          0.600              1.961              3.842
 Vibration     5          0.606              1.943              3.298
 Vibration     6          0.608              1.934              3.133
 Vibration     7          0.618              1.904              2.689
 Vibration     8          0.633              1.854              2.234
 Vibration     9          0.649              1.806              1.933
 Vibration    10          0.653              1.794              1.871
 Vibration    11          0.665              1.757              1.707
 Vibration    12          0.676              1.722              1.575
 Vibration    13          0.689              1.684              1.448
 Vibration    14          0.701              1.650              1.348
 Vibration    15          0.729              1.570              1.155
 Vibration    16          0.750              1.513              1.039
 Vibration    17          0.787              1.415              0.874
 Vibration    18          0.812              1.354              0.786
 Vibration    19          0.871              1.215              0.619
 Vibration    20          0.898              1.156              0.560
 Vibration    21          0.908              1.134              0.538
 Vibration    22          0.921              1.107              0.514
 Vibration    23          0.955              1.038              0.455
 Vibration    24          0.978              0.994              0.420

                           ! Non-Optimized Parameters !
 Normal termination of Gaussian 16 at Wed Dec  9 23:13:07 2020.

 ----------------------------------------------------------------------
 # B3LYP/6-311++G(d,p) empiricaldispersion=gd3bj scf=xqc pop=npa geom=c
 heck
 ----------------------------------------------------------------------

 ---------------------------------------
 CID_123469233_JID_3361_Energie_neutraal
 ---------------------------------------
 Structure from the checkpoint file:  "JID_3361.chk"
 Charge =  0 Multiplicity = 1

 SCF Done:  E(RB3LYP) =  -628.813819746     A.U. after   15 cycles
 Normal termination of Gaussian 16 at Wed Dec  9 23:16:04 2020.

 ----------------------------------------------------------------------
 # B3LYP/6-311++G(d,p) empiricaldispersion=gd3bj scf=xqc pop=npa geom=c
 heck
 ----------------------------------------------------------------------

 -------------------------------------
 CID_123469233_JID_3361_Energie_kation
 -------------------------------------
 Structure from the checkpoint file:  "JID_3361.chk"
 Charge =  1 Multiplicity = 2

 SCF Done:  E(UB3LYP) =  -628.497829487     A.U. after   25 cycles
 Normal termination of Gaussian 16 at Wed Dec  9 23:22:49 2020.
 Gaussian 16:  ES64L-G16RevA.03 25-Dec-2016

 ----------------------------------------------------------------------
 # B3LYP/6-311++G(d,p) empiricaldispersion=gd3bj scf=xqc pop=npa geom=c
 heck
 ----------------------------------------------------------------------

 ------------------------------------
 CID_123469233_JID_3361_Energie_anion
 ------------------------------------
 Structure from the checkpoint file:  "JID_3361.chk"
 Charge = -1 Multiplicity = 2

                         Standard orientation:
 ---------------------------------------------------------------------
 Center     Atomic      Atomic             Coordinates (Angstroms)
 Number     Number       Type             X           Y           Z
 ---------------------------------------------------------------------
      1          6           0       -2.431302   -1.338883    1.328825
      2          6           0       -2.099753   -1.520807   -0.162590
      3          6           0       -0.815278   -0.837019   -0.568034
      4          7           0        0.202527   -1.621660   -0.671143
      5          7           0        1.430936   -0.960633   -0.993223
      6          6           0        2.305363   -0.596569    0.045001
      7          8           0        3.472961   -0.319267   -0.189018
      8          7           0        1.720757   -0.475278    1.281901
      9          6           0       -0.768813    0.658091   -0.861531
     10          6           0       -2.112257    1.230088   -1.351547
     11          6           0       -0.321970    1.515243    0.346401
     12          8           0       -0.911188    1.463853    1.408389
     13          6           0        0.803679    2.489098    0.085611
     14          1           0       -1.655129   -1.802641    1.948645
     15          1           0       -3.383911   -1.825313    1.562907
     16          1           0       -2.487241   -0.283979    1.604023
     17          1           0       -1.981654   -2.584949   -0.386271
     18          1           0       -2.928534   -1.142788   -0.769926
     19          1           0        1.942298   -1.497879   -1.685997
     20          1           0        0.903295   -1.029554    1.497499
     21          1           0        2.372174   -0.311341    2.035744
     22          1           0       -0.014318    0.781000   -1.643868
     23          1           0       -2.870035    1.190679   -0.564702
     24          1           0       -1.987172    2.278245   -1.644097
     25          1           0       -2.478016    0.682560   -2.225839
     26          1           0        1.706392    1.961811   -0.238269
     27          1           0        0.518627    3.168806   -0.728545
     28          1           0        1.011488    3.066199    0.988166
 ---------------------------------------------------------------------

 SCF Done:  E(UB3LYP) =  -628.803281673     A.U. after   33 cycles
 SCF Done:  E(UB3LYP) =  -628.803281673     a.u. after    1 cycles

 The electronic state is 2-A.
 Alpha  occ. eigenvalues --  -18.99587 -18.98447 -14.24265 -14.22967 -14.20677
 Alpha  occ. eigenvalues --  -10.19357 -10.14556 -10.09405 -10.07507 -10.06259
 Alpha  occ. eigenvalues --  -10.05927 -10.05477 -10.04109  -0.95167  -0.93146
 Alpha  occ. eigenvalues --   -0.87204  -0.80325  -0.73718  -0.67706  -0.64432
 Alpha  occ. eigenvalues --   -0.62574  -0.54604  -0.52805  -0.50745  -0.45394
 Alpha  occ. eigenvalues --   -0.44512  -0.42485  -0.38646  -0.37725  -0.36879
 Alpha  occ. eigenvalues --   -0.34965  -0.33201  -0.32719  -0.32544  -0.31125
 Alpha  occ. eigenvalues --   -0.30348  -0.29986  -0.29617  -0.27327  -0.26473
 Alpha  occ. eigenvalues --   -0.26363  -0.24548  -0.23186  -0.22756  -0.21338
 Alpha  occ. eigenvalues --   -0.20124  -0.18080  -0.16188  -0.13889  -0.12120
 Alpha  occ. eigenvalues --    0.04980
 Alpha virt. eigenvalues --    0.07183   0.07381   0.08016   0.09011   0.09637
 Alpha virt. eigenvalues --    0.09767   0.10502   0.11177   0.11587   0.11953
 Alpha virt. eigenvalues --    0.12635   0.13238   0.13726   0.14527   0.14816

  Beta  occ. eigenvalues --  -18.99497 -18.98441 -14.24264 -14.22963 -14.20422
  Beta  occ. eigenvalues --  -10.19330 -10.14449 -10.09173 -10.07526 -10.06250
  Beta  occ. eigenvalues --  -10.05884 -10.05485 -10.04052  -0.95130  -0.92972
  Beta  occ. eigenvalues --   -0.86955  -0.80282  -0.73479  -0.67555  -0.64307
  Beta  occ. eigenvalues --   -0.62494  -0.54386  -0.52679  -0.50676  -0.45303
  Beta  occ. eigenvalues --   -0.44274  -0.42341  -0.38502  -0.37643  -0.36681
  Beta  occ. eigenvalues --   -0.34844  -0.33126  -0.32613  -0.32358  -0.31055
  Beta  occ. eigenvalues --   -0.30245  -0.29872  -0.29523  -0.27174  -0.26363
  Beta  occ. eigenvalues --   -0.26164  -0.24233  -0.23050  -0.22608  -0.21198
  Beta  occ. eigenvalues --   -0.19429  -0.17967  -0.15964  -0.13760  -0.11803
  Beta virt. eigenvalues --    0.07390   0.08183   0.08403   0.08751   0.09384
  Beta virt. eigenvalues --    0.10066   0.10761   0.11013   0.11487   0.11983
  Beta virt. eigenvalues --    0.12261   0.13073   0.13357   0.13886   0.14749

 Mulliken charges and spin densities:
               1          2
     1  C    0.630212  -1.177616
     2  C   -0.349560   0.170868
     3  C    0.546875  -0.725058
     4  N   -0.213896   0.232286
     5  N   -0.128698  -0.104165
     6  C   -0.098548   0.083024
     7  O   -0.373405   0.000885
     8  N   -0.392356  -0.006809
     9  C   -0.844823   1.497398
    10  C    0.646017  -1.360166
    11  C   -0.335409   0.158679
    12  O   -0.246503   0.036786
    13  C    0.466591  -1.069987
    14  H    0.086154   0.014040
    15  H   -0.798835   0.964443
    16  H    0.104210   0.091387
    17  H   -0.094061   0.275480
    18  H   -0.204206   0.346512
    19  H    0.282965   0.029203
    20  H    0.337321  -0.038358
    21  H    0.260675   0.045625
    22  H    0.024243   0.233094
    23  H   -0.213371   0.401631
    24  H   -0.003976   0.144421
    25  H   -0.122952   0.272377
    26  H    0.246765  -0.029374
    27  H   -0.311337   0.469251
    28  H    0.099908   0.044142
 Sum of Mulliken charges =  -1.00000   1.00000

 Dipole moment (field-independent basis, Debye):
    X=              4.7276    Y=              0.0617    Z=              0.6092  Tot=              4.7671
 Quadrupole moment (field-independent basis, Debye-Ang):
   XX=           -144.8625   YY=           -117.8960   ZZ=           -102.4105
   XY=             -8.9628   XZ=              8.2799   YZ=              4.2810

 Summary of Natural Population Analysis:

                                       Natural Population
                Natural  -----------------------------------------------
    Atom  No    Charge         Core      Valence    Rydberg      Total
 -----------------------------------------------------------------------
      C    1   -0.28268      0.99965     2.27732    0.00572     3.28268
      C    2   -0.21496      0.99958     2.20475    0.01063     3.21496
      C    3    0.19918      0.99957     1.78276    0.01849     2.80082
      N    4   -0.15261      0.99963     2.64120    0.01179     3.65261
      N    5   -0.26204      0.99967     2.74982    0.01255     3.76204
      C    6    0.39471      0.99974     1.58236    0.02319     2.60529
      O    7   -0.34206      0.99987     3.33678    0.00540     4.34206
      N    8   -0.41369      0.99970     2.90642    0.00757     3.91369
      C    9   -0.19005      0.99950     2.17738    0.01318     3.19005
      C   10   -0.27660      0.99965     2.27062    0.00633     3.27660
      C   11    0.31731      0.99966     1.65910    0.02393     2.68269
      O   12   -0.28752      0.99987     3.28090    0.00675     4.28752
      C   13   -0.33562      0.99960     2.32977    0.00625     3.33562
      H   14    0.08985      0.00000     0.40904    0.00111     0.41015
      H   15    0.09940      0.00000     0.39797    0.00264     0.40060
      H   16    0.11108      0.00000     0.38755    0.00137     0.38892
      H   17    0.10594      0.00000     0.39220    0.00186     0.39406
      H   18    0.10367      0.00000     0.39424    0.00209     0.39633
      H   19    0.18968      0.00000     0.30825    0.00207     0.31032
      H   20    0.20248      0.00000     0.29581    0.00171     0.29752
      H   21    0.19301      0.00000     0.30536    0.00164     0.30699
      H   22    0.11567      0.00000     0.38200    0.00233     0.38433
      H   23    0.10525      0.00000     0.39340    0.00135     0.39475
      H   24    0.09982      0.00000     0.39905    0.00113     0.40018
      H   25    0.09959      0.00000     0.39931    0.00110     0.40041
      H   26    0.11575      0.00000     0.38315    0.00111     0.38425
      H   27    0.11053      0.00000     0.38772    0.00175     0.38947
      H   28    0.10491      0.00000     0.39403    0.00106     0.39509
 =======================================================================
   * Total *   -0.00000     12.99568    36.82825    0.17608    50.00000

 Normal termination of Gaussian 16 at Wed Dec  9 23:31:40 2020.
