 Gaussian 16, Revision A.03,

 -----------------------------------------------------------
 # opt freq B3LYP/6-31G(d) empiricaldispersion=gd3bj scf=xqc
 -----------------------------------------------------------

 -----------------------------
 CID_12215837_JID_813_neutraal
 -----------------------------
 Symbolic Z-matrix:
 Charge =  0 Multiplicity = 1

 SCF Done:  E(RB3LYP) =  -462.488941267     A.U. after   14 cycles
 SCF Done:  E(RB3LYP) =  -462.496361606     A.U. after   13 cycles
 SCF Done:  E(RB3LYP) =  -462.496961151     A.U. after   12 cycles
 SCF Done:  E(RB3LYP) =  -462.497093537     A.U. after   13 cycles
 SCF Done:  E(RB3LYP) =  -462.497399726     A.U. after   12 cycles
 SCF Done:  E(RB3LYP) =  -462.497781984     A.U. after   12 cycles
 SCF Done:  E(RB3LYP) =  -462.498082762     A.U. after   13 cycles
 SCF Done:  E(RB3LYP) =  -462.498157274     A.U. after   11 cycles
 SCF Done:  E(RB3LYP) =  -462.498413339     A.U. after   11 cycles
 SCF Done:  E(RB3LYP) =  -462.498521471     A.U. after   12 cycles
 SCF Done:  E(RB3LYP) =  -462.498572717     A.U. after    9 cycles
 SCF Done:  E(RB3LYP) =  -462.498576544     A.U. after   10 cycles
 SCF Done:  E(RB3LYP) =  -462.498577760     A.U. after    9 cycles
 SCF Done:  E(RB3LYP) =  -462.498578059     A.U. after    8 cycles
 SCF Done:  E(RB3LYP) =  -462.498578101     A.U. after    7 cycles
 Optimization completed.
    -- Stationary point found.

 1\1\GINC-NODE110\FOpt\RB3LYP\6-31G(d)\C8H12O2\VSC10255\08-Dec-2020\0\\
 # opt freq B3LYP/6-31G(d) empiricaldispersion=gd3bj scf=xqc\\CID_12215
 837_JID_813_neutraal\\0,1\C,1.1399546925,-1.1599334138,-0.5271562348\C
 ,1.773836303,-0.0164044524,0.3146024269\C,1.2773482859,1.4235778727,0.
 0215878075\C,-0.1827480297,1.415809589,-0.362990633\C,-1.1445387672,0.
 7270510072,0.5124761389\O,-1.1910897593,2.138478179,0.3626227557\C,-2.
 0712267262,-0.1904092494,-0.2181551925\O,-3.1253861378,0.1469353319,-0
 .7152937598\C,-1.4924612689,-1.597511315,-0.4134768901\C,-0.0716526987

 Normal termination of Gaussian 16 at Tue Dec  8 12:43:29 2020.

 --------------------------------------------------------------------
 #N Geom=AllCheck Guess=TCheck SCRF=Check GenChk RB3LYP/6-31G(d) Freq
 --------------------------------------------------------------------

 Structure from the checkpoint file:  "JID_813.chk"
 -----------------------------
 CID_12215837_JID_813_neutraal
 -----------------------------
 Charge =  0 Multiplicity = 1

 SCF Done:  E(RB3LYP) =  -462.498578101     A.U. after    1 cycles

  Exact polarizability:  93.352  -2.901  84.237   0.026  -1.487  68.774
 Approx polarizability: 130.344   0.743 116.358  -0.870  -2.745 110.795

                      1                      2                      3
                      A                      A                      A
 Frequencies --     47.3950               101.8773               167.9155
 Red. masses --      3.2726                 2.6795                 2.2388
 Frc consts  --      0.0043                 0.0164                 0.0372
 IR Inten    --      2.7511                 0.5608                 0.0965

                      4                      5                      6
                      A                      A                      A
 Frequencies --    207.8206               262.0252               286.4706
 Red. masses --      3.4335                 5.0283                 2.2988
 Frc consts  --      0.0874                 0.2034                 0.1112
 IR Inten    --      5.3077                 0.9939                 1.2534

                      7                      8                      9
                      A                      A                      A
 Frequencies --    296.6286               399.1944               413.5179
 Red. masses --      3.0617                 2.4369                 2.9678
 Frc consts  --      0.1587                 0.2288                 0.2990
 IR Inten    --      0.6693                 1.2072                 2.8669

                     10                     11                     12
                      A                      A                      A
 Frequencies --    469.0928               535.0812               557.7351
 Red. masses --      2.3722                 3.1991                 3.6991
 Frc consts  --      0.3075                 0.5397                 0.6780
 IR Inten    --      2.8831                 0.7865                12.0379

                     13                     14                     15
                      A                      A                      A
 Frequencies --    584.5729               717.5211               790.1157
 Red. masses --      3.0413                 2.0109                 1.8538
 Frc consts  --      0.6123                 0.6100                 0.6819
 IR Inten    --      1.0653                 4.4786                 8.1981

                     16                     17                     18
                      A                      A                      A
 Frequencies --    815.9872               866.5769               881.5834
 Red. masses --      2.7002                 3.0360                 3.2299
 Frc consts  --      1.0593                 1.3433                 1.4790
 IR Inten    --      4.9476                 7.9456                 5.7634

                     19                     20                     21
                      A                      A                      A
 Frequencies --    909.3608               941.7149               964.2135
 Red. masses --      2.2999                 3.9888                 1.7250
 Frc consts  --      1.1205                 2.0842                 0.9449
 IR Inten    --     10.1722                46.8722                 0.1006

                     22                     23                     24
                      A                      A                      A
 Frequencies --    996.2381              1036.1362              1047.9972
 Red. masses --      2.3038                 2.7459                 2.4054
 Frc consts  --      1.3471                 1.7368                 1.5565
 IR Inten    --      5.5056                15.2671                24.2275

                     25                     26                     27
                      A                      A                      A
 Frequencies --   1074.4089              1095.5577              1117.2731
 Red. masses --      1.5414                 2.8519                 1.4877
 Frc consts  --      1.0483                 2.0167                 1.0941
 IR Inten    --      9.0892                 0.5320                 1.9868

                     28                     29                     30
                      A                      A                      A
 Frequencies --   1156.5806              1174.2183              1198.4269
 Red. masses --      1.9279                 1.6614                 1.6340
 Frc consts  --      1.5195                 1.3496                 1.3827
 IR Inten    --     14.6335                17.0931                15.6620

                     31                     32                     33
                      A                      A                      A
 Frequencies --   1252.4939              1264.0330              1286.7371
 Red. masses --      1.2823                 1.1805                 1.2366
 Frc consts  --      1.1852                 1.1113                 1.2064
 IR Inten    --      2.1061                 2.1021                 0.3852

                     34                     35                     36
                      A                      A                      A
 Frequencies --   1289.2095              1308.7841              1378.8404
 Red. masses --      1.2583                 1.3739                 1.3235
 Frc consts  --      1.2322                 1.3866                 1.4826
 IR Inten    --      7.1502                 3.8705                 1.7111

                     37                     38                     39
                      A                      A                      A
 Frequencies --   1380.1449              1385.0614              1389.5711
 Red. masses --      1.3163                 1.2918                 1.2869
 Frc consts  --      1.4773                 1.4601                 1.4640
 IR Inten    --      0.3965                 5.5513                 2.2508

                     40                     41                     42
                      A                      A                      A
 Frequencies --   1397.1013              1406.6442              1472.9674
 Red. masses --      1.3960                 1.3809                 1.0837
 Frc consts  --      1.6054                 1.6098                 1.3853
 IR Inten    --      0.1384                 4.6208                 7.8048

                     43                     44                     45
                      A                      A                      A
 Frequencies --   1503.4911              1511.9085              1522.0794
 Red. masses --      2.6270                 1.0905                 1.0827
 Frc consts  --      3.4988                 1.4687                 1.4778
 IR Inten    --     27.8598                 1.2775                 4.6360

                     46                     47                     48
                      A                      A                      A
 Frequencies --   1524.5754              1535.7533              1825.3019
 Red. masses --      1.0953                 1.0906                12.3579
 Frc consts  --      1.5000                 1.5156                24.2585
 IR Inten    --      5.9007                11.1882               193.2384

                     49                     50                     51
                      A                      A                      A
 Frequencies --   3040.1860              3042.4638              3043.8925
 Red. masses --      1.0629                 1.0659                 1.0663
 Frc consts  --      5.7884                 5.8134                 5.8208
 IR Inten    --     13.4721                18.7876                 7.9505

                     52                     53                     54
                      A                      A                      A
 Frequencies --   3045.4292              3058.9922              3072.0960
 Red. masses --      1.0624                 1.0648                 1.1000
 Frc consts  --      5.8055                 5.8708                 6.1165
 IR Inten    --     15.2903                16.8856                24.9911

                     55                     56                     57
                      A                      A                      A
 Frequencies --   3079.4198              3083.8886              3090.2387
 Red. masses --      1.0994                 1.1004                 1.0944
 Frc consts  --      6.1425                 6.1661                 6.1578
 IR Inten    --     32.0210                24.8022                57.8628

                     58                     59                     60
                      A                      A                      A
 Frequencies --   3104.4340              3129.8228              3136.5937
 Red. masses --      1.1024                 1.0910                 1.0861
 Frc consts  --      6.2598                 6.2968                 6.2957
 IR Inten    --     21.3875                 9.4236                35.8330

 - Thermochemistry -
 -------------------
 Temperature   298.150 Kelvin.  Pressure   1.00000 Atm.
 Atom     1 has atomic number  6 and mass  12.00000

 Molecular mass:   140.08373 amu.
 Principal axes and moments of inertia in atomic units:
                           1         2         3
     Eigenvalues --  1017.569431320.600372129.21372
           X            0.99860  -0.05295   0.00216
           Y            0.05296   0.99857  -0.00716
           Z           -0.00178   0.00727   0.99997
 This molecule is an asymmetric top.
 Rotational symmetry number  1.
 Warning -- assumption of classical behavior for rotation
           may cause significant error
 Rotational temperatures (Kelvin)      0.08512     0.06559     0.04068
 Rotational constants (GHZ):           1.77358     1.36661     0.84761
 Zero-point vibrational energy     500490.0 (Joules/Mol)
                                  119.61998 (Kcal/Mol)
 Warning -- explicit consideration of  13 degrees of freedom as
           vibrations may cause significant error
 Vibrational temperatures:     68.19   146.58   241.59   299.01   377.00
          (Kelvin)            412.17   426.78   574.35   594.96   674.92
                              769.86   802.46   841.07  1032.35  1136.80
                             1174.02  1246.81  1268.40  1308.37  1354.92
                             1387.29  1433.36  1490.77  1507.83  1545.83
                             1576.26  1607.51  1664.06  1689.44  1724.27
                             1802.06  1818.66  1851.33  1854.88  1883.05
                             1983.84  1985.72  1992.79  1999.28  2010.12
                             2023.85  2119.27  2163.19  2175.30  2189.93
                             2193.52  2209.61  2626.20  4374.15  4377.43
                             4379.48  4381.69  4401.21  4420.06  4430.60
                             4437.03  4446.16  4466.59  4503.12  4512.86

 Zero-point correction=                           0.190627 (Hartree/Particle)
 Thermal correction to Energy=                    0.199820
 Thermal correction to Enthalpy=                  0.200764
 Thermal correction to Gibbs Free Energy=         0.156062
 Sum of electronic and zero-point Energies=           -462.307952
 Sum of electronic and thermal Energies=              -462.298758
 Sum of electronic and thermal Enthalpies=            -462.297814
 Sum of electronic and thermal Free Energies=         -462.342516

                     E (Thermal)             CV                S
                      KCal/Mol        Cal/Mol-Kelvin    Cal/Mol-Kelvin
 Total                  125.389             35.293             94.083
 Electronic               0.000              0.000              0.000
 Translational            0.889              2.981             40.723
 Rotational               0.889              2.981             29.438
 Vibrational            123.611             29.331             23.922
 Vibration     1          0.595              1.979              4.923
 Vibration     2          0.604              1.948              3.418
 Vibration     3          0.625              1.882              2.459
 Vibration     4          0.641              1.829              2.063
 Vibration     5          0.669              1.742              1.648
 Vibration     6          0.684              1.699              1.495
 Vibration     7          0.690              1.680              1.436
 Vibration     8          0.765              1.472              0.966
 Vibration     9          0.777              1.441              0.914
 Vibration    10          0.826              1.319              0.740
 Vibration    11          0.890              1.172              0.576
 Vibration    12          0.913              1.123              0.528
 Vibration    13          0.942              1.065              0.477

 Optimization completed.
    -- Stationary point found.

 1\1\GINC-NODE110\Freq\RB3LYP\6-31G(d)\C8H12O2\VSC10255\08-Dec-2020\0\\
 #N Geom=AllCheck Guess=TCheck SCRF=Check GenChk RB3LYP/6-31G(d) Freq\\
 CID_12215837_JID_813_neutraal\\0,1\C,1.1399546925,-1.1599334138,-0.527
 1562348\C,1.773836303,-0.0164044524,0.3146024269\C,1.2773482859,1.4235
 778727,0.0215878075\C,-0.1827480297,1.415809589,-0.362990633\C,-1.1445
 387672,0.7270510072,0.5124761389\O,-1.1910897593,2.138478179,0.3626227
 557\C,-2.0712267262,-0.1904092494,-0.2181551925\O,-3.1253861378,0.1469
 353319,-0.7152937598\C,-1.4924612689,-1.597511315,-0.4134768901\C,-0.0

 Normal termination of Gaussian 16 at Tue Dec  8 13:04:03 2020.

 ----------------------------------------------------------------------
 # B3LYP/6-311++G(d,p) empiricaldispersion=gd3bj scf=xqc pop=npa geom=c
 heck
 ----------------------------------------------------------------------

 -------------------------------------
 CID_12215837_JID_813_Energie_neutraal
 -------------------------------------
 Structure from the checkpoint file:  "JID_813.chk"
 Charge =  0 Multiplicity = 1

 SCF Done:  E(RB3LYP) =  -462.631411393     A.U. after   13 cycles
 Normal termination of Gaussian 16 at Tue Dec  8 13:08:24 2020.

 ----------------------------------------------------------------------
 # B3LYP/6-311++G(d,p) empiricaldispersion=gd3bj scf=xqc pop=npa geom=c
 heck
 ----------------------------------------------------------------------

 -----------------------------------
 CID_12215837_JID_813_Energie_kation
 -----------------------------------
 Structure from the checkpoint file:  "JID_813.chk"
 Charge =  1 Multiplicity = 2

 SCF Done:  E(UB3LYP) =  -462.297440235     A.U. after   21 cycles
 Normal termination of Gaussian 16 at Tue Dec  8 13:17:17 2020.
 Gaussian 16:  ES64L-G16RevA.03 25-Dec-2016

 ----------------------------------
 CID_12215837_JID_813_Energie_anion
 ----------------------------------
 Structure from the checkpoint file:  "JID_813.chk"
 Charge = -1 Multiplicity = 2

                         Standard orientation:
 ---------------------------------------------------------------------
 Center     Atomic      Atomic             Coordinates (Angstroms)
 Number     Number       Type             X           Y           Z
 ---------------------------------------------------------------------
      1          6           0        1.493579    1.317444    0.447069
      2          6           0        2.240981    0.117365   -0.200403
      3          6           0        1.760534   -1.302119    0.199777
      4          6           0        0.269966   -1.311942    0.440511
      5          6           0       -0.620367   -0.758817   -0.592559
      6          8           0       -0.639960   -2.147136   -0.294338
      7          6           0       -1.641369    0.193177   -0.058174
      8          8           0       -2.729145   -0.131397    0.370306
      9          6           0       -1.126415    1.635038    0.036249
     10          6           0        0.328853    1.947538   -0.375404
     11          1           0        2.236323    2.107723    0.600940
     12          1           0        1.141574    1.053397    1.453036
     13          1           0        2.173814    0.223595   -1.290674
     14          1           0        3.308236    0.193588    0.036695
     15          1           0        2.277058   -1.635035    1.107334
     16          1           0        2.006939   -2.018989   -0.591244
     17          1           0       -0.050301   -1.173108    1.474024
     18          1           0       -0.168752   -0.500232   -1.550907
     19          1           0       -1.295492    1.941423    1.077023
     20          1           0       -1.808571    2.254588   -0.561229
     21          1           0        0.424085    3.037580   -0.306162
     22          1           0        0.473346    1.717635   -1.438970
 ---------------------------------------------------------------------

 SCF Done:  E(UB3LYP) =  -462.618197588     A.U. after   33 cycles
 SCF Done:  E(UB3LYP) =  -462.618197588     a.u. after    1 cycles

 The electronic state is 2-A.
 Alpha  occ. eigenvalues --  -19.04428 -19.00441 -10.15117 -10.13219 -10.12704
 Alpha  occ. eigenvalues --  -10.07296 -10.07189 -10.06607 -10.06281 -10.05939
 Alpha  occ. eigenvalues --   -0.98825  -0.93613  -0.71013  -0.67412  -0.62938
 Alpha  occ. eigenvalues --   -0.58429  -0.54985  -0.50407  -0.46423  -0.44910
 Alpha  occ. eigenvalues --   -0.39756  -0.38085  -0.36010  -0.34259  -0.33783
 Alpha  occ. eigenvalues --   -0.32899  -0.31637  -0.29636  -0.29308  -0.27458
 Alpha  occ. eigenvalues --   -0.26951  -0.23932  -0.22819  -0.22295  -0.21585
 Alpha  occ. eigenvalues --   -0.19944  -0.18685  -0.14181   0.04911
 Alpha virt. eigenvalues --    0.07097   0.07584   0.07980   0.08923   0.10450
 Alpha virt. eigenvalues --    0.10727   0.11034   0.11633   0.12354   0.13457
 Alpha virt. eigenvalues --    0.14046   0.14242   0.15135   0.16452   0.17165

  Beta  occ. eigenvalues --  -19.04426 -19.00372 -10.15024 -10.13205 -10.12696
  Beta  occ. eigenvalues --  -10.07284 -10.07173 -10.06576 -10.06246 -10.05901
  Beta  occ. eigenvalues --   -0.98808  -0.93474  -0.70949  -0.67338  -0.62844
  Beta  occ. eigenvalues --   -0.58357  -0.54901  -0.50327  -0.46317  -0.44816
  Beta  occ. eigenvalues --   -0.39688  -0.38016  -0.35894  -0.34176  -0.33726
  Beta  occ. eigenvalues --   -0.32795  -0.31596  -0.29544  -0.29233  -0.27220
  Beta  occ. eigenvalues --   -0.26903  -0.23804  -0.22750  -0.22229  -0.21516
  Beta  occ. eigenvalues --   -0.19863  -0.18656  -0.14123
  Beta virt. eigenvalues --    0.07690   0.07881   0.08530   0.08698   0.09757
  Beta virt. eigenvalues --    0.10907   0.11274   0.11780   0.12095   0.12752
  Beta virt. eigenvalues --    0.13831   0.14524   0.14701   0.15351   0.16666

 Mulliken charges and spin densities:
               1          2
     1  C   -0.725034   0.629718
     2  C    1.878253  -2.203795
     3  C   -0.268483  -0.109489
     4  C   -0.001363  -0.312172
     5  C    0.377083  -0.359781
     6  O   -0.109142   0.013685
     7  C   -0.400969   0.514440
     8  O   -0.300463   0.034541
     9  C    0.877801  -1.338581
    10  C    0.368692  -0.619629
    11  H   -0.991907   1.196749
    12  H    0.003056   0.111885
    13  H   -0.121877   0.248514
    14  H   -0.639854   0.821410
    15  H   -0.403772   0.554256
    16  H    0.088779   0.074260
    17  H    0.157563   0.058199
    18  H    0.147800   0.072153
    19  H   -0.336811   0.544574
    20  H    0.181694  -0.014536
    21  H   -0.517043   0.693757
    22  H   -0.264005   0.389843
 Sum of Mulliken charges =  -1.00000   1.00000

 Dipole moment (field-independent basis, Debye):
    X=             -4.1283    Y=             -3.7394    Z=             -1.9233  Tot=              5.8928
 Quadrupole moment (field-independent basis, Debye-Ang):
   XX=           -123.8370   YY=           -108.6797   ZZ=            -84.3603
   XY=            -12.4681   XZ=             -0.9880   YZ=             -2.5038

 Summary of Natural Population Analysis:

                                       Natural Population
                Natural  -----------------------------------------------
    Atom  No    Charge         Core      Valence    Rydberg      Total
 -----------------------------------------------------------------------
      C    1   -0.19872      0.99962     2.18880    0.01030     3.19872
      C    2   -0.18623      0.99963     2.17723    0.00938     3.18623
      C    3   -0.20663      0.99961     2.19722    0.00980     3.20663
      C    4    0.05949      0.99951     1.92711    0.01389     2.94051
      C    5   -0.00427      0.99943     1.99139    0.01345     3.00427
      O    6   -0.26938      0.99992     3.26225    0.00722     4.26938
      C    7    0.29255      0.99963     1.68654    0.02128     2.70745
      O    8   -0.28131      0.99987     3.27444    0.00700     4.28131
      C    9   -0.23683      0.99958     2.22742    0.00982     3.23683
      C   10   -0.19433      0.99962     2.18530    0.00941     3.19433
      H   11    0.10920      0.00000     0.38624    0.00457     0.39080
      H   12    0.09472      0.00000     0.40349    0.00179     0.40528
      H   13    0.09241      0.00000     0.40603    0.00156     0.40759
      H   14    0.10597      0.00000     0.39043    0.00361     0.39403
      H   15    0.10227      0.00000     0.39646    0.00126     0.39773
      H   16    0.10583      0.00000     0.39293    0.00123     0.39417
      H   17    0.09201      0.00000     0.40674    0.00126     0.40799
      H   18    0.10029      0.00000     0.39846    0.00125     0.39971
      H   19    0.11343      0.00000     0.38490    0.00167     0.38657
      H   20    0.11045      0.00000     0.38855    0.00100     0.38955
      H   21    0.10590      0.00000     0.39186    0.00224     0.39410
      H   22    0.09319      0.00000     0.40524    0.00157     0.40681
 =======================================================================
   * Total *    0.00000      9.99643    27.86902    0.13456    38.00000

 Normal termination of Gaussian 16 at Tue Dec  8 13:29:30 2020.
