 Gaussian 16, Revision A.03,

 -----------------------------------------------------------
 # opt freq B3LYP/6-31G(d) empiricaldispersion=gd3bj scf=xqc
 -----------------------------------------------------------

 -------------------------------
 CID_146149872_JID_5912_neutraal
 -------------------------------
 Symbolic Z-matrix:
 Charge =  0 Multiplicity = 1

 SCF Done:  E(RB3LYP) =  -629.371152252     A.U. after   15 cycles
 SCF Done:  E(RB3LYP) =  -629.376532988     A.U. after   12 cycles
 SCF Done:  E(RB3LYP) =  -629.377829600     A.U. after   12 cycles
 SCF Done:  E(RB3LYP) =  -629.378706299     A.U. after   12 cycles
 SCF Done:  E(RB3LYP) =  -629.379176801     A.U. after   12 cycles
 SCF Done:  E(RB3LYP) =  -629.379414984     A.U. after   12 cycles
 SCF Done:  E(RB3LYP) =  -629.379446817     A.U. after   10 cycles
 SCF Done:  E(RB3LYP) =  -629.379453465     A.U. after    9 cycles
 SCF Done:  E(RB3LYP) =  -629.379454951     A.U. after    8 cycles
 SCF Done:  E(RB3LYP) =  -629.379455057     A.U. after    7 cycles
 SCF Done:  E(RB3LYP) =  -629.379455087     A.U. after    7 cycles
 Optimization completed.
    -- Stationary point found.
 Normal termination of Gaussian 16 at Thu Dec 10 17:28:35 2020.

 --------------------------------------------------------------------
 #N Geom=AllCheck Guess=TCheck SCRF=Check GenChk RB3LYP/6-31G(d) Freq
 --------------------------------------------------------------------

 Structure from the checkpoint file:  "JID_5912.chk"
 -------------------------------
 CID_146149872_JID_5912_neutraal
 -------------------------------
 Charge =  0 Multiplicity = 1

 SCF Done:  E(RB3LYP) =  -629.379455087     A.U. after    1 cycles

  Exact polarizability: 232.489 -19.367 144.116   1.761   3.017  69.593
 Approx polarizability: 344.449 -55.853 256.901  -0.675   7.309 110.760

                      1                      2                      3
                      A                      A                      A
 Frequencies --     39.0672                66.6465               119.8268
 Red. masses --      3.5071                 4.4980                 4.0492
 Frc consts  --      0.0032                 0.0118                 0.0343
 IR Inten    --      0.5487                 0.4282                 0.7536

                      4                      5                      6
                      A                      A                      A
 Frequencies --    154.8250               210.7588               228.0114
 Red. masses --      3.3068                 3.8186                 2.7008
 Frc consts  --      0.0467                 0.0999                 0.0827
 IR Inten    --      0.3603                 0.9147                 1.2859

                      7                      8                      9
                      A                      A                      A
 Frequencies --    275.0850               294.0770               351.1602
 Red. masses --      4.6534                 3.8551                 3.8420
 Frc consts  --      0.2075                 0.1964                 0.2791
 IR Inten    --      0.3083                 0.9373                 0.7502

                     10                     11                     12
                      A                      A                      A
 Frequencies --    359.3174               421.0600               457.5093
 Red. masses --      2.2431                 2.9188                 3.5595
 Frc consts  --      0.1706                 0.3049                 0.4390
 IR Inten    --      1.1776                 5.2542                 1.1033

                     13                     14                     15
                      A                      A                      A
 Frequencies --    471.7346               515.1077               539.2498
 Red. masses --      3.1279                 3.3909                 4.2559
 Frc consts  --      0.4101                 0.5301                 0.7292
 IR Inten    --      9.9785                 9.9767                 4.1434

                     16                     17                     18
                      A                      A                      A
 Frequencies --    602.6138               619.6580               671.1863
 Red. masses --      5.3815                 2.7325                 4.2300
 Frc consts  --      1.1514                 0.6182                 1.1227
 IR Inten    --      2.2109                 1.2215                14.4733

                     19                     20                     21
                      A                      A                      A
 Frequencies --    682.0275               719.1480               743.8828
 Red. masses --      3.3367                 1.8772                 1.9012
 Frc consts  --      0.9145                 0.5720                 0.6198
 IR Inten    --     29.7182                 6.7643                10.0523

                     22                     23                     24
                      A                      A                      A
 Frequencies --    756.0702               788.8451               801.9022
 Red. masses --      2.8109                 1.3756                 1.9089
 Frc consts  --      0.9467                 0.5043                 0.7232
 IR Inten    --     50.6077                 3.2938                 7.1542

                     25                     26                     27
                      A                      A                      A
 Frequencies --    815.2834               821.2970               840.6203
 Red. masses --      2.5416                 1.6698                 1.5813
 Frc consts  --      0.9954                 0.6636                 0.6584
 IR Inten    --     11.0914                27.0918                37.7480

                     28                     29                     30
                      A                      A                      A
 Frequencies --    880.5713               897.8163               931.6990
 Red. masses --      1.8628                 2.4207                 3.5950
 Frc consts  --      0.8511                 1.1496                 1.8387
 IR Inten    --     15.1077                 4.3946                35.3743

                     31                     32                     33
                      A                      A                      A
 Frequencies --    939.6254               963.9437               969.1692
 Red. masses --      3.4673                 1.4110                 2.4845
 Frc consts  --      1.8036                 0.7725                 1.3750
 IR Inten    --     11.1338                 1.8443                 6.4717

                     34                     35                     36
                      A                      A                      A
 Frequencies --    996.3346              1025.7277              1046.7845
 Red. masses --      2.1607                 2.1416                 1.9947
 Frc consts  --      1.2637                 1.3276                 1.2878
 IR Inten    --      3.9497                21.0488                 1.4834

                     37                     38                     39
                      A                      A                      A
 Frequencies --   1097.6733              1103.1463              1164.0999
 Red. masses --      1.7912                 1.6637                 1.8408
 Frc consts  --      1.2715                 1.1929                 1.4697
 IR Inten    --      3.6353                 7.0293                 8.0656

                     40                     41                     42
                      A                      A                      A
 Frequencies --   1174.0415              1186.1330              1222.6710
 Red. masses --      2.8153                 1.5499                 2.0978
 Frc consts  --      2.2863                 1.2848                 1.8477
 IR Inten    --     23.1950                 1.2340                 2.4956

                     43                     44                     45
                      A                      A                      A
 Frequencies --   1231.8080              1248.3503              1265.8517
 Red. masses --      1.1663                 1.1875                 1.5512
 Frc consts  --      1.0426                 1.0903                 1.4645
 IR Inten    --      2.7540                 1.9311                 3.3581

                     46                     47                     48
                      A                      A                      A
 Frequencies --   1297.1652              1307.7626              1326.8802
 Red. masses --      1.9633                 1.2602                 3.5395
 Frc consts  --      1.9464                 1.2699                 3.6716
 IR Inten    --     14.4677                 4.6032                 0.4708

                     49                     50                     51
                      A                      A                      A
 Frequencies --   1337.9017              1347.3620              1366.5428
 Red. masses --      2.8503                 1.2103                 2.3725
 Frc consts  --      3.0060                 1.2945                 2.6104
 IR Inten    --     11.3007                22.8795                 6.7843

                     52                     53                     54
                      A                      A                      A
 Frequencies --   1384.6600              1396.6089              1402.1263
 Red. masses --      1.4999                 2.8434                 2.0865
 Frc consts  --      1.6943                 3.2676                 2.4168
 IR Inten    --     27.9884                 1.0763                 1.3455

                     55                     56                     57
                      A                      A                      A
 Frequencies --   1448.4143              1470.2474              1493.6807
 Red. masses --      1.6158                 3.8606                 3.4763
 Frc consts  --      1.9972                 4.9169                 4.5696
 IR Inten    --      3.7877                29.1824                31.9710

                     58                     59                     60
                      A                      A                      A
 Frequencies --   1497.7871              1508.5634              1525.2886
 Red. masses --      1.1282                 1.3229                 1.1023
 Frc consts  --      1.4911                 1.7738                 1.5110
 IR Inten    --      3.2797                 1.2353                 1.7037

                     61                     62                     63
                      A                      A                      A
 Frequencies --   1539.8648              1572.3922              1595.5793
 Red. masses --      1.1303                 4.1316                 4.8848
 Frc consts  --      1.5792                 6.0186                 7.3271
 IR Inten    --      0.9334                10.0492                 0.9199

                     64                     65                     66
                      A                      A                      A
 Frequencies --   1689.1314              1722.4764              2890.7305
 Red. masses --      6.1713                 6.7662                 1.0737
 Frc consts  --     10.3742                11.8277                 5.2861
 IR Inten    --      3.3640                 5.5878                70.8518

                     67                     68                     69
                      A                      A                      A
 Frequencies --   2932.5784              3026.4946              3061.5937
 Red. masses --      1.0736                 1.0631                 1.0860
 Frc consts  --      5.4398                 5.7373                 5.9974
 IR Inten    --     93.0963                37.7481                50.9618

                     70                     71                     72
                      A                      A                      A
 Frequencies --   3062.9550              3093.4389              3182.0134
 Red. masses --      1.0975                 1.0893                 1.0890
 Frc consts  --      6.0666                 6.1416                 6.4967
 IR Inten    --     18.4983                57.4839                19.9098

                     73                     74                     75
                      A                      A                      A
 Frequencies --   3211.8826              3233.8780              3247.8914
 Red. masses --      1.0883                 1.0932                 1.0911
 Frc consts  --      6.6150                 6.7360                 6.7817
 IR Inten    --      1.9097                 9.8924                 3.3217

                     76                     77                     78
                      A                      A                      A
 Frequencies --   3264.0803              3271.8160              3510.8488
 Red. masses --      1.0947                 1.0975                 1.0748
 Frc consts  --      6.8720                 6.9222                 7.8053
 IR Inten    --      8.7479                 0.6237                 1.0053

 - Thermochemistry -
 -------------------
 Temperature   298.150 Kelvin.  Pressure   1.00000 Atm.
 Atom     1 has atomic number  6 and mass  12.00000

 Molecular mass:   199.11095 amu.
 Principal axes and moments of inertia in atomic units:
                           1         2         3
     Eigenvalues --   948.556315974.198196788.96009
           X            0.99998   0.00497   0.00398
           Y           -0.00498   0.99998   0.00261
           Z           -0.00397  -0.00263   0.99999
 This molecule is an asymmetric top.
 Rotational symmetry number  1.
 Warning -- assumption of classical behavior for rotation
           may cause significant error
 Rotational temperatures (Kelvin)      0.09131     0.01450     0.01276
 Rotational constants (GHZ):           1.90262     0.30209     0.26583
 Zero-point vibrational energy     615670.4 (Joules/Mol)
                                  147.14876 (Kcal/Mol)
 Warning -- explicit consideration of  17 degrees of freedom as
           vibrations may cause significant error
 Vibrational temperatures:     56.21    95.89   172.40   222.76   303.23
          (Kelvin)            328.06   395.79   423.11   505.24   516.98
                              605.81   658.25   678.72   741.13   775.86
                              867.03   891.55   965.69   981.29  1034.69
                             1070.28  1087.82  1134.97  1153.76  1173.01
                             1181.66  1209.47  1266.95  1291.76  1340.51
                             1351.91  1386.90  1394.42  1433.50  1475.79
                             1506.09  1579.31  1587.18  1674.88  1689.18
                             1706.58  1759.15  1772.30  1796.10  1821.28
                             1866.33  1881.58  1909.08  1924.94  1938.55
                             1966.15  1992.22  2009.41  2017.35  2083.95
                             2115.36  2149.07  2154.98  2170.49  2194.55
                             2215.52  2262.32  2295.68  2430.28  2478.26
                             4159.12  4219.33  4354.45  4404.95  4406.91
                             4450.77  4578.21  4621.18  4652.83  4672.99
                             4696.28  4707.41  5051.33

 Zero-point correction=                           0.234496 (Hartree/Particle)
 Thermal correction to Energy=                    0.246078
 Thermal correction to Enthalpy=                  0.247022
 Thermal correction to Gibbs Free Energy=         0.196231
 Sum of electronic and zero-point Energies=           -629.144959
 Sum of electronic and thermal Energies=              -629.133377
 Sum of electronic and thermal Enthalpies=            -629.132433
 Sum of electronic and thermal Free Energies=         -629.183224

                     E (Thermal)             CV                S
                      KCal/Mol        Cal/Mol-Kelvin    Cal/Mol-Kelvin
 Total                  154.416             47.151            106.899
 Electronic               0.000              0.000              0.000
 Translational            0.889              2.981             41.771
 Rotational               0.889              2.981             32.020
 Vibrational            152.639             41.189             33.108
 Vibration     1          0.594              1.981              5.306
 Vibration     2          0.598              1.970              4.250
 Vibration     3          0.609              1.933              3.103
 Vibration     4          0.620              1.897              2.612
 Vibration     5          0.643              1.824              2.037
 Vibration     6          0.651              1.798              1.895
 Vibration     7          0.677              1.719              1.564
 Vibration     8          0.689              1.685              1.450
 Vibration     9          0.728              1.573              1.161
 Vibration    10          0.734              1.556              1.125
 Vibration    11          0.784              1.424              0.888
 Vibration    12          0.816              1.344              0.773
 Vibration    13          0.829              1.313              0.733
 Vibration    14          0.870              1.217              0.621
 Vibration    15          0.894              1.163              0.567
 Vibration    16          0.961              1.026              0.445
 Vibration    17          0.980              0.990              0.417

 Optimization completed.
    -- Stationary point found.
 Normal termination of Gaussian 16 at Thu Dec 10 17:38:03 2020.

 ----------------------------------------------------------------------
 # B3LYP/6-311++G(d,p) empiricaldispersion=gd3bj scf=xqc pop=npa geom=c
 heck
 ----------------------------------------------------------------------

 ---------------------------------------
 CID_146149872_JID_5912_Energie_neutraal
 ---------------------------------------
 Structure from the checkpoint file:  "JID_5912.chk"
 Charge =  0 Multiplicity = 1

 SCF Done:  E(RB3LYP) =  -629.544076973     A.U. after   15 cycles
 Normal termination of Gaussian 16 at Thu Dec 10 17:41:31 2020.

 ----------------------------------------------------------------------
 # B3LYP/6-311++G(d,p) empiricaldispersion=gd3bj scf=xqc pop=npa geom=c
 heck
 ----------------------------------------------------------------------

 -------------------------------------
 CID_146149872_JID_5912_Energie_kation
 -------------------------------------
 Structure from the checkpoint file:  "JID_5912.chk"
 Charge =  1 Multiplicity = 2

 SCF Done:  E(UB3LYP) =  -629.277858905     A.U. after   25 cycles
 Normal termination of Gaussian 16 at Thu Dec 10 17:49:23 2020.
 Gaussian 16:  ES64L-G16RevA.03 25-Dec-2016

 ----------------------------------------------------------------------
 # B3LYP/6-311++G(d,p) empiricaldispersion=gd3bj scf=xqc pop=npa geom=c
 heck
 ----------------------------------------------------------------------

 ------------------------------------
 CID_146149872_JID_5912_Energie_anion
 ------------------------------------
 Structure from the checkpoint file:  "JID_5912.chk"
 Charge = -1 Multiplicity = 2

                         Standard orientation:
 ---------------------------------------------------------------------
 Center     Atomic      Atomic             Coordinates (Angstroms)
 Number     Number       Type             X           Y           Z
 ---------------------------------------------------------------------
      1          6           0       -3.854780    1.007087   -0.277325
      2          6           0       -4.242700   -0.467599   -0.385145
      3          7           0       -3.482008   -1.211246    0.615303
      4          6           0       -2.057353   -1.238262    0.302727
      5          6           0       -1.515404    0.155142    0.043988
      6          6           0       -2.360933    1.167344   -0.214266
      7          6           0       -0.048060    0.329612    0.060118
      8          6           0        0.780120   -0.752109   -0.085474
      9          7           0        2.149544   -0.593527   -0.087053
     10          6           0        3.162190   -1.509790   -0.221853
     11          7           0        4.350260   -0.931954   -0.169554
     12          6           0        4.126052    0.403437    0.004401
     13          6           0        2.763318    0.667427    0.061175
     14          6           0        1.912621    1.789210    0.229379
     15          6           0        0.557019    1.629666    0.230139
     16          1           0       -4.254418    1.567253   -1.133049
     17          1           0       -4.310715    1.444278    0.622875
     18          1           0       -4.049228   -0.818127   -1.417831
     19          1           0       -5.311066   -0.600427   -0.186335
     20          1           0       -3.826713   -2.165457    0.682375
     21          1           0       -1.526378   -1.680970    1.154486
     22          1           0       -1.826541   -1.873517   -0.578541
     23          1           0       -1.970819    2.162550   -0.411444
     24          1           0        0.432790   -1.767689   -0.222813
     25          1           0        2.967498   -2.564790   -0.354084
     26          1           0        4.939058    1.112019    0.081203
     27          1           0        2.362072    2.766823    0.370057
     28          1           0       -0.082651    2.488151    0.395034
 ---------------------------------------------------------------------

 SCF Done:  E(UB3LYP) =  -629.542937905     A.U. after   30 cycles

 The electronic state is 2-A.
 Alpha  occ. eigenvalues --  -14.25999 -14.18730 -14.17887 -10.09884 -10.08554
 Alpha  occ. eigenvalues --  -10.08105 -10.08011 -10.06908 -10.06204 -10.05690
 Alpha  occ. eigenvalues --  -10.05365 -10.05297 -10.05246 -10.05202 -10.03645
 Alpha  occ. eigenvalues --   -0.90489  -0.80377  -0.78300  -0.70385  -0.67690
 Alpha  occ. eigenvalues --   -0.65719  -0.62468  -0.59305  -0.54176  -0.52362
 Alpha  occ. eigenvalues --   -0.49919  -0.48786  -0.47788  -0.41465  -0.40301
 Alpha  occ. eigenvalues --   -0.39433  -0.37111  -0.35070  -0.34107  -0.33556
 Alpha  occ. eigenvalues --   -0.33199  -0.32951  -0.31723  -0.29765  -0.29394
 Alpha  occ. eigenvalues --   -0.28845  -0.26890  -0.26303  -0.24331  -0.22975
 Alpha  occ. eigenvalues --   -0.22494  -0.20390  -0.19047  -0.16396  -0.15960
 Alpha  occ. eigenvalues --   -0.11854  -0.10909  -0.07728   0.04482
 Alpha virt. eigenvalues --    0.06643   0.08282   0.08439   0.09232   0.09532
 Alpha virt. eigenvalues --    0.09757   0.09939   0.11004   0.11631   0.12026
 Alpha virt. eigenvalues --    0.12445   0.13365   0.13593   0.14642   0.14932

  Beta  occ. eigenvalues --  -14.25960 -14.18710 -14.17789 -10.09897 -10.08552
  Beta  occ. eigenvalues --  -10.08078 -10.07996 -10.06518 -10.06205 -10.05698
  Beta  occ. eigenvalues --  -10.05347 -10.05294 -10.05184 -10.05027 -10.03457
  Beta  occ. eigenvalues --   -0.90324  -0.80338  -0.78069  -0.70157  -0.67457
  Beta  occ. eigenvalues --   -0.65528  -0.62299  -0.59081  -0.53928  -0.52126
  Beta  occ. eigenvalues --   -0.49733  -0.48727  -0.47695  -0.41336  -0.40199
  Beta  occ. eigenvalues --   -0.39188  -0.36981  -0.34958  -0.33993  -0.33202
  Beta  occ. eigenvalues --   -0.33034  -0.32769  -0.31631  -0.29720  -0.29297
  Beta  occ. eigenvalues --   -0.28776  -0.26744  -0.26191  -0.24217  -0.22638
  Beta  occ. eigenvalues --   -0.22042  -0.20307  -0.18295  -0.15902  -0.15737
  Beta  occ. eigenvalues --   -0.11799  -0.10250  -0.06816
  Beta virt. eigenvalues --    0.07136   0.08412   0.08570   0.09167   0.09486
  Beta virt. eigenvalues --    0.09704   0.10002   0.10166   0.11070   0.11964
  Beta virt. eigenvalues --    0.12056   0.12485   0.13456   0.13651   0.14709

 Mulliken charges and spin densities:
               1          2
     1  C   -0.890816   0.041916
     2  C    0.574171  -0.844843
     3  N   -0.233106   0.141368
     4  C   -0.089676  -0.590938
     5  C    0.399472   0.087186
     6  C    0.294673  -0.159167
     7  C    0.154253   0.140767
     8  C   -0.376492   0.415176
     9  N    0.209473  -0.005315
    10  C    0.080317  -0.033031
    11  N   -0.151977   0.052579
    12  C   -0.648074  -0.014806
    13  C    0.617261  -0.059975
    14  C   -0.723853   0.193290
    15  C   -0.352065  -0.018603
    16  H    0.056836   0.052750
    17  H    0.063991   0.085134
    18  H   -0.064604   0.159703
    19  H   -0.333138   0.488369
    20  H   -0.092228   0.327348
    21  H    0.200976  -0.031905
    22  H   -0.344164   0.484787
    23  H    0.096614   0.013648
    24  H    0.148689   0.028707
    25  H    0.071233   0.046241
    26  H    0.102266  -0.001094
    27  H    0.133090   0.002662
    28  H    0.096879  -0.001956
 Sum of Mulliken charges =  -1.00000   1.00000

 Dipole moment (field-independent basis, Debye):
    X=              0.5515    Y=              2.5816    Z=              0.6030  Tot=              2.7078
 Quadrupole moment (field-independent basis, Debye-Ang):
   XX=           -172.7815   YY=           -104.8866   ZZ=           -108.6003
   XY=             -1.7129   XZ=              3.4018   YZ=             -1.7611

 Summary of Natural Population Analysis:

                                       Natural Population
                Natural  -----------------------------------------------
    Atom  No    Charge         Core      Valence    Rydberg      Total
 -----------------------------------------------------------------------
      C    1   -0.20515      0.99962     2.19759    0.00794     3.20515
      C    2   -0.08565      0.99963     2.07351    0.01251     3.08565
      N    3   -0.33852      0.99974     2.82635    0.01243     3.83852
      C    4   -0.09610      0.99958     2.08471    0.01181     3.09610
      C    5   -0.02318      0.99946     2.01311    0.01061     3.02318
      C    6   -0.05444      0.99948     2.04743    0.00753     3.05444
      C    7   -0.04540      0.99949     2.03565    0.01026     3.04540
      C    8    0.08685      0.99951     1.90278    0.01086     2.91315
      N    9   -0.17797      0.99962     2.67004    0.00831     3.67797
      C   10    0.07308      0.99966     1.90825    0.01901     2.92692
      N   11   -0.23688      0.99973     2.72632    0.01084     3.73688
      C   12   -0.05088      0.99955     2.03690    0.01442     3.05088
      C   13    0.05123      0.99955     1.93884    0.01038     2.94877
      C   14   -0.08054      0.99954     2.07354    0.00746     3.08054
      C   15   -0.09140      0.99955     2.08265    0.00921     3.09140
      H   16    0.09531      0.00000     0.40345    0.00124     0.40469
      H   17    0.10001      0.00000     0.39844    0.00155     0.39999
      H   18    0.07716      0.00000     0.42090    0.00193     0.42284
      H   19    0.09226      0.00000     0.40642    0.00132     0.40774
      H   20    0.17363      0.00000     0.32341    0.00296     0.32637
      H   21    0.09686      0.00000     0.40178    0.00136     0.40314
      H   22    0.08538      0.00000     0.41226    0.00236     0.41462
      H   23    0.08930      0.00000     0.40954    0.00115     0.41070
      H   24    0.09332      0.00000     0.40562    0.00105     0.40668
      H   25    0.08785      0.00000     0.41023    0.00192     0.41215
      H   26    0.09074      0.00000     0.40831    0.00095     0.40926
      H   27    0.09677      0.00000     0.40240    0.00083     0.40323
      H   28    0.09632      0.00000     0.40221    0.00147     0.40368
 =======================================================================
   * Total *    0.00000     14.99371    37.82263    0.18365    53.00000

 Normal termination of Gaussian 16 at Thu Dec 10 17:58:43 2020.
