 Gaussian 16, Revision A.03,

 -----------------------------------------------------------
 # opt freq B3LYP/6-31G(d) empiricaldispersion=gd3bj scf=xqc
 -----------------------------------------------------------

 ------------------------------
 CID_83618322_JID_3604_neutraal
 ------------------------------
 Symbolic Z-matrix:
 Charge =  0 Multiplicity = 1

 SCF Done:  E(RB3LYP) =  -648.507861262     A.U. after   14 cycles
 SCF Done:  E(RB3LYP) =  -648.510995261     A.U. after   13 cycles
 SCF Done:  E(RB3LYP) =  -648.511014707     A.U. after   13 cycles
 SCF Done:  E(RB3LYP) =  -648.512767104     A.U. after   12 cycles
 SCF Done:  E(RB3LYP) =  -648.513500994     A.U. after   13 cycles
 SCF Done:  E(RB3LYP) =  -648.513963727     A.U. after   15 cycles
 SCF Done:  E(RB3LYP) =  -648.515008212     A.U. after   12 cycles
 SCF Done:  E(RB3LYP) =  -648.515498255     A.U. after   12 cycles
 SCF Done:  E(RB3LYP) =  -648.515731667     A.U. after   12 cycles
 SCF Done:  E(RB3LYP) =  -648.515788479     A.U. after   10 cycles
 SCF Done:  E(RB3LYP) =  -648.515991853     A.U. after   11 cycles
 SCF Done:  E(RB3LYP) =  -648.515992541     A.U. after    9 cycles
 SCF Done:  E(RB3LYP) =  -648.515993244     A.U. after    9 cycles
 SCF Done:  E(RB3LYP) =  -648.515993412     A.U. after    9 cycles
 SCF Done:  E(RB3LYP) =  -648.515993434     A.U. after    7 cycles
 Optimization completed.
    -- Stationary point found.
 Normal termination of Gaussian 16 at Mon Dec 14 16:37:22 2020.

 --------------------------------------------------------------------
 #N Geom=AllCheck Guess=TCheck SCRF=Check GenChk RB3LYP/6-31G(d) Freq
 --------------------------------------------------------------------

 Structure from the checkpoint file:  "JID_3604.chk"
 ------------------------------
 CID_83618322_JID_3604_neutraal
 ------------------------------
 Charge =  0 Multiplicity = 1

 SCF Done:  E(RB3LYP) =  -648.515993434     A.U. after    1 cycles

  Exact polarizability: 128.340  -0.205  98.444   0.735  -4.670  84.220
 Approx polarizability: 171.374 -10.857 136.085  10.777 -11.948 131.484

                      1                      2                      3
                      A                      A                      A
 Frequencies --     16.7680                38.6430                55.7997
 Red. masses --      6.7718                 5.0926                 5.9933
 Frc consts  --      0.0011                 0.0045                 0.0110
 IR Inten    --      1.5230                 1.3202                 1.0798

                      4                      5                      6
                      A                      A                      A
 Frequencies --     83.6487               112.0005               172.6529
 Red. masses --      3.6212                 3.4529                 3.1346
 Frc consts  --      0.0149                 0.0255                 0.0551
 IR Inten    --      0.2518                 1.7056                 0.4398

                      7                      8                      9
                      A                      A                      A
 Frequencies --    181.6666               217.4685               255.1253
 Red. masses --      1.0654                 3.6212                 1.6608
 Frc consts  --      0.0207                 0.1009                 0.0637
 IR Inten    --      0.3008                 2.9236                 1.3505

                     10                     11                     12
                      A                      A                      A
 Frequencies --    268.4046               292.4901               334.9354
 Red. masses --      1.6434                 3.3656                 6.7312
 Frc consts  --      0.0698                 0.1696                 0.4449
 IR Inten    --      1.3689                 1.9589                 6.4493

                     13                     14                     15
                      A                      A                      A
 Frequencies --    358.0988               390.7113               423.8041
 Red. masses --      2.3196                 3.5897                 3.6120
 Frc consts  --      0.1753                 0.3229                 0.3822
 IR Inten    --      2.3394                 7.0171                 1.9448

                     16                     17                     18
                      A                      A                      A
 Frequencies --    471.0715               534.0986               544.6157
 Red. masses --      2.9552                 1.5540                 3.3564
 Frc consts  --      0.3864                 0.2612                 0.5865
 IR Inten    --      9.4491                21.2887                 6.6354

                     19                     20                     21
                      A                      A                      A
 Frequencies --    587.1019               626.9248               642.8642
 Red. masses --      2.7404                 1.8020                 1.7197
 Frc consts  --      0.5565                 0.4173                 0.4187
 IR Inten    --     47.3037                45.8574                62.3198

                     22                     23                     24
                      A                      A                      A
 Frequencies --    655.0938               687.6075               745.9884
 Red. masses --      3.2712                 2.7365                 3.3910
 Frc consts  --      0.8271                 0.7623                 1.1118
 IR Inten    --     31.6060                57.1389                21.4472

                     25                     26                     27
                      A                      A                      A
 Frequencies --    836.2375               856.9966               898.5766
 Red. masses --      3.2160                 3.4781                 3.7156
 Frc consts  --      1.3250                 1.5051                 1.7676
 IR Inten    --      0.3753                 2.2042                21.9594

                     28                     29                     30
                      A                      A                      A
 Frequencies --    937.0566              1018.8265              1023.4812
 Red. masses --      2.3357                 1.9279                 1.7223
 Frc consts  --      1.2084                 1.1791                 1.0630
 IR Inten    --      3.0119                 1.8837                15.1159

                     31                     32                     33
                      A                      A                      A
 Frequencies --   1058.3511              1069.7450              1070.2288
 Red. masses --      2.4230                 1.8135                 1.7263
 Frc consts  --      1.5990                 1.2227                 1.1650
 IR Inten    --     15.5685                10.7117                 6.5251

                     34                     35                     36
                      A                      A                      A
 Frequencies --   1092.5581              1114.5133              1159.8050
 Red. masses --      2.6254                 1.9423                 1.5936
 Frc consts  --      1.8464                 1.4214                 1.2630
 IR Inten    --     39.9965                16.6832                21.2637

                     37                     38                     39
                      A                      A                      A
 Frequencies --   1166.5520              1176.0664              1198.3604
 Red. masses --      2.5226                 2.0781                 1.5953
 Frc consts  --      2.0226                 1.6935                 1.3498
 IR Inten    --     30.9066               141.7624                38.9205

                     40                     41                     42
                      A                      A                      A
 Frequencies --   1215.3740              1261.5434              1283.3454
 Red. masses --      1.4937                 1.6293                 1.7880
 Frc consts  --      1.3000                 1.5278                 1.7351
 IR Inten    --     16.7309                53.4207                11.3478

                     43                     44                     45
                      A                      A                      A
 Frequencies --   1299.9198              1313.2922              1332.7310
 Red. masses --      1.7520                 1.4106                 1.3533
 Frc consts  --      1.7443                 1.4334                 1.4163
 IR Inten    --     17.6682                10.6385                 2.2247

                     46                     47                     48
                      A                      A                      A
 Frequencies --   1351.9028              1360.6347              1388.2148
 Red. masses --      1.3379                 2.0258                 1.5090
 Frc consts  --      1.4407                 2.2097                 1.7134
 IR Inten    --     11.6857               163.5767                 9.7317

                     49                     50                     51
                      A                      A                      A
 Frequencies --   1411.3783              1417.5646              1424.8668
 Red. masses --      1.7332                 1.9624                 1.5233
 Frc consts  --      2.0342                 2.3233                 1.8222
 IR Inten    --      1.1971               109.6956                65.7063

                     52                     53                     54
                      A                      A                      A
 Frequencies --   1482.6760              1508.8144              1514.9697
 Red. masses --      1.1889                 1.1699                 1.5415
 Frc consts  --      1.5399                 1.5692                 2.0845
 IR Inten    --      1.8726                 7.2613               106.4056

                     55                     56                     57
                      A                      A                      A
 Frequencies --   1517.6725              1520.7950              1528.3055
 Red. masses --      1.0487                 1.0702                 1.0748
 Frc consts  --      1.4231                 1.4583                 1.4791
 IR Inten    --     15.6521                 8.1249                 3.5297

                     58                     59                     60
                      A                      A                      A
 Frequencies --   1534.5152              1548.8522              1799.4547
 Red. masses --      1.0607                 1.1085                 7.8547
 Frc consts  --      1.4715                 1.5667                14.9851
 IR Inten    --      1.0257                14.0398               458.3038

                     61                     62                     63
                      A                      A                      A
 Frequencies --   1849.3757              2892.1803              2932.6209
 Red. masses --      9.7754                 1.0730                 1.0696
 Frc consts  --     19.6985                 5.2880                 5.4199
 IR Inten    --    245.9745                63.7964                23.0164

                     64                     65                     66
                      A                      A                      A
 Frequencies --   2941.9242              3065.1915              3083.0806
 Red. masses --      1.0663                 1.0400                 1.0703
 Frc consts  --      5.4372                 5.7571                 5.9942
 IR Inten    --    159.4836                 5.8901                39.6854

                     67                     68                     69
                      A                      A                      A
 Frequencies --   3088.5655              3097.9762              3124.9979
 Red. masses --      1.0845                 1.0877                 1.0887
 Frc consts  --      6.0951                 6.1506                 6.2640
 IR Inten    --      8.3592                23.6619                 8.0909

                     70                     71                     72
                      A                      A                      A
 Frequencies --   3127.1802              3133.4952              3147.2328
 Red. masses --      1.1043                 1.0981                 1.0857
 Frc consts  --      6.3629                 6.3524                 6.3361
 IR Inten    --     25.9717                 6.6256                 9.3197

                     73                     74                     75
                      A                      A                      A
 Frequencies --   3181.1337              3575.9366              3683.2528
 Red. masses --      1.1016                 1.0753                 1.0641
 Frc consts  --      6.5682                 8.1012                 8.5051
 IR Inten    --      8.1900                11.9756                55.7915

 - Thermochemistry -
 -------------------
 Temperature   298.150 Kelvin.  Pressure   1.00000 Atm.
 Atom     1 has atomic number  6 and mass  12.00000

 Molecular mass:   186.10044 amu.
 Principal axes and moments of inertia in atomic units:
                           1         2         3
     Eigenvalues --  1716.149143156.461864357.69752
           X            0.99828   0.05563  -0.01832
           Y           -0.05554   0.99844   0.00538
           Z            0.01859  -0.00435   0.99982
 This molecule is an asymmetric top.
 Rotational symmetry number  1.
 Warning -- assumption of classical behavior for rotation
           may cause significant error
 Rotational temperatures (Kelvin)      0.05047     0.02744     0.01988
 Rotational constants (GHZ):           1.05162     0.57176     0.41415
 Zero-point vibrational energy     600022.4 (Joules/Mol)
                                  143.40879 (Kcal/Mol)
 Warning -- explicit consideration of  19 degrees of freedom as
           vibrations may cause significant error
 Vibrational temperatures:     24.13    55.60    80.28   120.35   161.14
          (Kelvin)            248.41   261.38   312.89   367.07   386.17
                              420.83   481.90   515.22   562.15   609.76
                              677.77   768.45   783.58   844.71   902.01
                              924.94   942.53   989.31  1073.31  1203.16
                             1233.03  1292.85  1348.22  1465.86  1472.56
                             1522.73  1539.12  1539.82  1571.95  1603.54
                             1668.70  1678.41  1692.10  1724.17  1748.65
                             1815.08  1846.45  1870.29  1889.53  1917.50
                             1945.09  1957.65  1997.33  2030.66  2039.56
                             2050.07  2133.24  2170.85  2179.70  2183.59
                             2188.08  2198.89  2207.83  2228.45  2589.01
                             2660.84  4161.20  4219.39  4232.77  4410.13
                             4435.87  4443.76  4457.30  4496.17  4499.31
                             4508.40  4528.17  4576.94  5144.98  5299.38

 Zero-point correction=                           0.228536 (Hartree/Particle)
 Thermal correction to Energy=                    0.241974
 Thermal correction to Enthalpy=                  0.242918
 Thermal correction to Gibbs Free Energy=         0.186612
 Sum of electronic and zero-point Energies=           -648.287457
 Sum of electronic and thermal Energies=              -648.274020
 Sum of electronic and thermal Enthalpies=            -648.273076
 Sum of electronic and thermal Free Energies=         -648.329381

                     E (Thermal)             CV                S
                      KCal/Mol        Cal/Mol-Kelvin    Cal/Mol-Kelvin
 Total                  151.841             49.132            118.506
 Electronic               0.000              0.000              0.000
 Translational            0.889              2.981             41.569
 Rotational               0.889              2.981             31.535
 Vibrational            150.063             43.170             45.401
 Vibration     1          0.593              1.986              6.984
 Vibration     2          0.594              1.981              5.327
 Vibration     3          0.596              1.975              4.600
 Vibration     4          0.601              1.960              3.803
 Vibration     5          0.607              1.940              3.234
 Vibration     6          0.626              1.876              2.406
 Vibration     7          0.630              1.865              2.311
 Vibration     8          0.646              1.814              1.980
 Vibration     9          0.665              1.754              1.695
 Vibration    10          0.673              1.731              1.606
 Vibration    11          0.688              1.688              1.460
 Vibration    12          0.716              1.606              1.236
 Vibration    13          0.733              1.559              1.130
 Vibration    14          0.758              1.490              0.997
 Vibration    15          0.786              1.418              0.879
 Vibration    16          0.828              1.314              0.735
 Vibration    17          0.889              1.175              0.578
 Vibration    18          0.900              1.151              0.555
 Vibration    19          0.944              1.059              0.472

 Optimization completed.
    -- Stationary point found.
 Normal termination of Gaussian 16 at Mon Dec 14 16:44:05 2020.

 ----------------------------------------------------------------------
 # B3LYP/6-311++G(d,p) empiricaldispersion=gd3bj scf=xqc pop=npa geom=c
 heck
 ----------------------------------------------------------------------

 --------------------------------------
 CID_83618322_JID_3604_Energie_neutraal
 --------------------------------------
 Structure from the checkpoint file:  "JID_3604.chk"
 Charge =  0 Multiplicity = 1

 SCF Done:  E(RB3LYP) =  -648.717914883     A.U. after   15 cycles
 Normal termination of Gaussian 16 at Mon Dec 14 16:47:08 2020.

 ----------------------------------------------------------------------
 # B3LYP/6-311++G(d,p) empiricaldispersion=gd3bj scf=xqc pop=npa geom=c
 heck
 ----------------------------------------------------------------------

 ------------------------------------
 CID_83618322_JID_3604_Energie_kation
 ------------------------------------
 Structure from the checkpoint file:  "JID_3604.chk"
 Charge =  1 Multiplicity = 2

 SCF Done:  E(UB3LYP) =  -648.405145443     A.U. after   33 cycles
 SCF Done:  E(UB3LYP) =  -648.405145604     a.u. after    3 cycles
 Normal termination of Gaussian 16 at Mon Dec 14 17:09:37 2020.
 Gaussian 16:  ES64L-G16RevA.03 25-Dec-2016

 ----------------------------------------------------------------------
 # B3LYP/6-311++G(d,p) empiricaldispersion=gd3bj scf=xqc pop=npa geom=c
 heck
 ----------------------------------------------------------------------

 -----------------------------------
 CID_83618322_JID_3604_Energie_anion
 -----------------------------------
 Structure from the checkpoint file:  "JID_3604.chk"
 Charge = -1 Multiplicity = 2

                         Standard orientation:
 ---------------------------------------------------------------------
 Center     Atomic      Atomic             Coordinates (Angstroms)
 Number     Number       Type             X           Y           Z
 ---------------------------------------------------------------------
      1          6           0       -2.817204    0.164534    1.288926
      2          6           0       -2.609038    0.815708   -0.067510
      3          8           0       -3.540894    1.192863   -0.763819
      4          7           0       -1.310397    0.991952   -0.488264
      5          6           0       -0.088711    0.520861    0.112479
      6          6           0        0.998032    1.600427    0.225376
      7          7           0        2.209957    0.818441    0.376496
      8          6           0        2.135502   -0.213902   -0.657540
      9          6           0        0.650600   -0.615068   -0.692492
     10          6           0        0.383530   -1.981464   -0.104074
     11          8           0        1.193411   -2.722455    0.404249
     12          8           0       -0.934615   -2.303095   -0.199235
     13          6           0        3.439493    1.583356    0.357895
     14          1           0       -3.888867    0.151917    1.488644
     15          1           0       -2.310017    0.720008    2.085937
     16          1           0       -2.433887   -0.860219    1.290358
     17          1           0       -1.248355    1.409023   -1.410432
     18          1           0       -0.318607    0.158665    1.114125
     19          1           0        0.839646    2.266217    1.079875
     20          1           0        0.998209    2.224121   -0.694736
     21          1           0        2.436297    0.180054   -1.647424
     22          1           0        2.785327   -1.056428   -0.409218
     23          1           0        0.256766   -0.618874   -1.713689
     24          1           0       -1.028104   -3.186071    0.205782
     25          1           0        4.291333    0.911829    0.507428
     26          1           0        3.592582    2.127416   -0.595236
     27          1           0        3.434320    2.314361    1.173044
 ---------------------------------------------------------------------

 SCF Done:  E(UB3LYP) =  -648.708181031     A.U. after   32 cycles

 The electronic state is 2-A.
 Alpha  occ. eigenvalues --  -19.07560 -19.02523 -18.99123 -14.24162 -14.21573
 Alpha  occ. eigenvalues --  -10.21469 -10.17996 -10.13381 -10.10451 -10.10273
 Alpha  occ. eigenvalues --  -10.10172 -10.09508 -10.07500  -1.01749  -0.94311
 Alpha  occ. eigenvalues --   -0.92946  -0.85816  -0.82604  -0.70655  -0.65243
 Alpha  occ. eigenvalues --   -0.64011  -0.60323  -0.55554  -0.50846  -0.49260
 Alpha  occ. eigenvalues --   -0.47958  -0.42752  -0.42665  -0.39822  -0.38489
 Alpha  occ. eigenvalues --   -0.37531  -0.36472  -0.35866  -0.34881  -0.34559
 Alpha  occ. eigenvalues --   -0.32092  -0.31459  -0.30612  -0.30120  -0.29693
 Alpha  occ. eigenvalues --   -0.28326  -0.27811  -0.26926  -0.26092  -0.25504
 Alpha  occ. eigenvalues --   -0.23541  -0.19484  -0.16327  -0.15897  -0.13219
 Alpha  occ. eigenvalues --    0.04144
 Alpha virt. eigenvalues --    0.05996   0.06901   0.07572   0.08503   0.08909
 Alpha virt. eigenvalues --    0.09297   0.10164   0.10410   0.10982   0.11573
 Alpha virt. eigenvalues --    0.12090   0.12594   0.13470   0.13689   0.13934

  Beta  occ. eigenvalues --  -19.07504 -19.02509 -18.99120 -14.24147 -14.21558
  Beta  occ. eigenvalues --  -10.21462 -10.17995 -10.13371 -10.10421 -10.10253
  Beta  occ. eigenvalues --  -10.10152 -10.09477 -10.07466  -1.01677  -0.94303
  Beta  occ. eigenvalues --   -0.92885  -0.85789  -0.82580  -0.70613  -0.65199
  Beta  occ. eigenvalues --   -0.63961  -0.60255  -0.55481  -0.50763  -0.49214
  Beta  occ. eigenvalues --   -0.47875  -0.42710  -0.42606  -0.39787  -0.38457
  Beta  occ. eigenvalues --   -0.37489  -0.36434  -0.35814  -0.34847  -0.34516
  Beta  occ. eigenvalues --   -0.32047  -0.31426  -0.30581  -0.30087  -0.29655
  Beta  occ. eigenvalues --   -0.28287  -0.27767  -0.26877  -0.26063  -0.25465
  Beta  occ. eigenvalues --   -0.23495  -0.19455  -0.16313  -0.15882  -0.13132
  Beta virt. eigenvalues --    0.06507   0.07275   0.07648   0.08285   0.08755
  Beta virt. eigenvalues --    0.09474   0.09732   0.10614   0.10711   0.11248
  Beta virt. eigenvalues --    0.11847   0.12384   0.13006   0.13627   0.13886

 Mulliken charges and spin densities:
               1          2
     1  C    0.424285  -0.908144
     2  C   -0.377734   0.466021
     3  O   -0.349377  -0.000448
     4  N   -0.006326   0.060928
     5  C   -1.181466   0.370879
     6  C    0.618883  -0.898699
     7  N   -0.087543   0.252495
     8  C    0.269785  -0.984242
     9  C    0.560406  -0.046986
    10  C    0.286255  -0.496449
    11  O   -0.271844  -0.000256
    12  O   -0.193521   0.043539
    13  C    0.724949  -0.998210
    14  H   -0.073451   0.261407
    15  H   -0.147359   0.311880
    16  H   -0.056350   0.246108
    17  H    0.107799   0.186025
    18  H    0.252194   0.010336
    19  H   -0.308199   0.517822
    20  H   -0.039091   0.140437
    21  H   -0.226580   0.350633
    22  H    0.166619   0.052833
    23  H   -0.105220   0.382478
    24  H   -0.313105   0.616946
    25  H   -0.171014   0.306410
    26  H   -0.254002   0.367493
    27  H   -0.248993   0.388764
 Sum of Mulliken charges =  -1.00000   1.00000

 Dipole moment (field-independent basis, Debye):
    X=              0.8647    Y=              0.1133    Z=             -0.3048  Tot=              0.9238
 Quadrupole moment (field-independent basis, Debye-Ang):
   XX=           -144.0610   YY=           -130.2259   ZZ=           -111.0132
   XY=             -4.4986   XZ=             -3.6746   YZ=              2.5180

 Summary of Natural Population Analysis:

                                       Natural Population
                Natural  -----------------------------------------------
    Atom  No    Charge         Core      Valence    Rydberg      Total
 -----------------------------------------------------------------------
      C    1   -0.33844      0.99962     2.33372    0.00510     3.33844
      C    2    0.35026      0.99970     1.62904    0.02101     2.64974
      O    3   -0.32429      0.99988     3.31828    0.00614     4.32429
      N    4   -0.32099      0.99965     2.81073    0.01060     3.82099
      C    5   -0.00552      0.99955     1.99243    0.01353     3.00552
      C    6   -0.08218      0.99960     2.07017    0.01242     3.08218
      N    7   -0.27572      0.99971     2.76359    0.01241     3.77572
      C    8   -0.08379      0.99961     2.07195    0.01222     3.08379
      C    9   -0.16233      0.99952     2.15107    0.01174     3.16233
      C   10    0.41122      0.99968     1.56330    0.02580     2.58878
      O   11   -0.30179      0.99987     3.29588    0.00603     4.30179
      O   12   -0.34712      0.99988     3.34020    0.00704     4.34712
      C   13   -0.17288      0.99965     2.16599    0.00723     3.17288
      H   14    0.11219      0.00000     0.38695    0.00085     0.38781
      H   15    0.10813      0.00000     0.39074    0.00113     0.39187
      H   16    0.11736      0.00000     0.38114    0.00150     0.38264
      H   17    0.19381      0.00000     0.30356    0.00263     0.30619
      H   18    0.10812      0.00000     0.38895    0.00293     0.39188
      H   19    0.10342      0.00000     0.39489    0.00169     0.39658
      H   20    0.07974      0.00000     0.41809    0.00217     0.42026
      H   21    0.08372      0.00000     0.41463    0.00164     0.41628
      H   22    0.10941      0.00000     0.38904    0.00155     0.39059
      H   23    0.11861      0.00000     0.37966    0.00173     0.38139
      H   24    0.24510      0.00000     0.24235    0.01256     0.25490
      H   25    0.09591      0.00000     0.40279    0.00130     0.40409
      H   26    0.08085      0.00000     0.41689    0.00226     0.41915
      H   27    0.09720      0.00000     0.40133    0.00147     0.40280
 =======================================================================
   * Total *   -0.00000     12.99593    36.81738    0.18670    50.00000

 Normal termination of Gaussian 16 at Mon Dec 14 17:18:48 2020.
