 Gaussian 16, Revision A.03,

 -----------------------------------------------------------
 # opt freq B3LYP/6-31G(d) empiricaldispersion=gd3bj scf=xqc
 -----------------------------------------------------------

 ------------------------------
 CID_79618558_JID_5098_neutraal
 ------------------------------
 Symbolic Z-matrix:
 Charge =  0 Multiplicity = 1

 SCF Done:  E(RB3LYP) =  -640.435665091     A.U. after   12 cycles
 SCF Done:  E(RB3LYP) =  -640.441289274     A.U. after   11 cycles
 SCF Done:  E(RB3LYP) =  -640.442879617     A.U. after   11 cycles
 SCF Done:  E(RB3LYP) =  -640.443102507     A.U. after   11 cycles
 SCF Done:  E(RB3LYP) =  -640.444006334     A.U. after   10 cycles
 SCF Done:  E(RB3LYP) =  -640.444094766     A.U. after   10 cycles
 SCF Done:  E(RB3LYP) =  -640.444171864     A.U. after   10 cycles
 SCF Done:  E(RB3LYP) =  -640.444204473     A.U. after   10 cycles
 SCF Done:  E(RB3LYP) =  -640.444208578     A.U. after    9 cycles
 SCF Done:  E(RB3LYP) =  -640.444214486     A.U. after    8 cycles
 SCF Done:  E(RB3LYP) =  -640.444215259     A.U. after    7 cycles
 SCF Done:  E(RB3LYP) =  -640.444215345     A.U. after    7 cycles
 SCF Done:  E(RB3LYP) =  -640.444215365     A.U. after    6 cycles
 Optimization completed.
    -- Stationary point found.
 Normal termination of Gaussian 16 at Thu Dec 10 14:48:18 2020.

 --------------------------------------------------------------------
 #N Geom=AllCheck Guess=TCheck SCRF=Check GenChk RB3LYP/6-31G(d) Freq
 --------------------------------------------------------------------

 Structure from the checkpoint file:  "JID_5098.chk"
 ------------------------------
 CID_79618558_JID_5098_neutraal
 ------------------------------
 Charge =  0 Multiplicity = 1

 SCF Done:  E(RB3LYP) =  -640.444215365     A.U. after    1 cycles

  Exact polarizability: 157.088   1.538 142.412   1.917  -0.138 127.724
 Approx polarizability: 195.997  -0.267 196.117   1.136  -5.136 195.240

                      1                      2                      3
                      A                      A                      A
 Frequencies --     41.9664                52.3297                68.7631
 Red. masses --      3.8040                 3.4183                 2.8134
 Frc consts  --      0.0039                 0.0055                 0.0078
 IR Inten    --      0.4055                 0.1841                 0.0418

                      4                      5                      6
                      A                      A                      A
 Frequencies --     92.7386               100.3756               116.9498
 Red. masses --      3.0578                 2.1645                 2.4576
 Frc consts  --      0.0155                 0.0128                 0.0198
 IR Inten    --      0.2241                 0.0313                 0.5620

                      7                      8                      9
                      A                      A                      A
 Frequencies --    161.6630               168.9388               183.6991
 Red. masses --      2.4470                 2.6147                 2.9002
 Frc consts  --      0.0377                 0.0440                 0.0577
 IR Inten    --      1.0376                 1.3745                 0.4312

                     10                     11                     12
                      A                      A                      A
 Frequencies --    217.1660               244.3381               281.7607
 Red. masses --      2.3791                 1.4856                 1.4549
 Frc consts  --      0.0661                 0.0523                 0.0681
 IR Inten    --      2.2440                 0.1844                39.2306

                     13                     14                     15
                      A                      A                      A
 Frequencies --    290.7170               303.6202               314.1975
 Red. masses --      2.0429                 2.2275                 2.0726
 Frc consts  --      0.1017                 0.1210                 0.1205
 IR Inten    --      2.4504                14.2711                25.4937

                     16                     17                     18
                      A                      A                      A
 Frequencies --    352.8100               385.4207               410.6457
 Red. masses --      2.6628                 1.9125                 3.7552
 Frc consts  --      0.1953                 0.1674                 0.3731
 IR Inten    --     34.4978                 0.8680                 3.0910

                     19                     20                     21
                      A                      A                      A
 Frequencies --    425.7959               447.7055               466.7352
 Red. masses --      3.2607                 2.9573                 2.0226
 Frc consts  --      0.3483                 0.3492                 0.2596
 IR Inten    --      6.3158                 3.0889                 1.1200

                     22                     23                     24
                      A                      A                      A
 Frequencies --    481.0716               513.3849               548.2116
 Red. masses --      1.9254                 2.6737                 2.3213
 Frc consts  --      0.2625                 0.4152                 0.4110
 IR Inten    --      0.7386                 3.0796                 2.5775

                     25                     26                     27
                      A                      A                      A
 Frequencies --    645.4825               731.0054               777.0039
 Red. masses --      2.8667                 1.5318                 1.2795
 Frc consts  --      0.7037                 0.4823                 0.4551
 IR Inten    --      2.9855                12.3084                 2.8862

                     28                     29                     30
                      A                      A                      A
 Frequencies --    797.0512               813.7485               825.4565
 Red. masses --      1.6379                 1.4711                 2.4089
 Frc consts  --      0.6131                 0.5740                 0.9671
 IR Inten    --      0.3061                 3.2324                 4.2140

                     31                     32                     33
                      A                      A                      A
 Frequencies --    841.7135               861.3388               881.8306
 Red. masses --      1.4085                 2.0076                 1.6464
 Frc consts  --      0.5879                 0.8776                 0.7543
 IR Inten    --      9.6256                 3.2371                 3.7399

                     34                     35                     36
                      A                      A                      A
 Frequencies --    895.3458               912.5088               933.9615
 Red. masses --      1.8299                 1.7051                 1.8630
 Frc consts  --      0.8643                 0.8365                 0.9575
 IR Inten    --      4.6078                 4.7683                 2.5682

                     37                     38                     39
                      A                      A                      A
 Frequencies --    949.4269               962.0372               976.7022
 Red. masses --      2.0393                 2.4333                 1.9692
 Frc consts  --      1.0831                 1.3269                 1.1068
 IR Inten    --      9.8505                 1.5220                 4.9632

                     40                     41                     42
                      A                      A                      A
 Frequencies --    985.0819              1008.6669              1041.7854
 Red. masses --      2.4087                 1.8164                 1.8551
 Frc consts  --      1.3772                 1.0888                 1.1863
 IR Inten    --      1.1061                21.8872                 4.1704

                     43                     44                     45
                      A                      A                      A
 Frequencies --   1045.7059              1067.6360              1075.1873
 Red. masses --      1.8560                 1.4360                 2.6304
 Frc consts  --      1.1957                 0.9644                 1.7916
 IR Inten    --      0.4150                23.3213               120.9679

                     46                     47                     48
                      A                      A                      A
 Frequencies --   1086.2070              1092.8991              1097.6731
 Red. masses --      1.4059                 1.0494                 1.9860
 Frc consts  --      0.9773                 0.7385                 1.4099
 IR Inten    --      8.1301                 1.7602                 8.6984

                     49                     50                     51
                      A                      A                      A
 Frequencies --   1102.4341              1124.4240              1142.6592
 Red. masses --      2.6616                 1.9523                 1.4374
 Frc consts  --      1.9059                 1.4543                 1.1058
 IR Inten    --      1.3699                16.4572                 6.2642

                     52                     53                     54
                      A                      A                      A
 Frequencies --   1150.3097              1155.6162              1170.0287
 Red. masses --      1.9335                 1.7208                 2.3218
 Frc consts  --      1.5074                 1.3540                 1.8727
 IR Inten    --      1.4152                 9.1222                 8.8604

                     55                     56                     57
                      A                      A                      A
 Frequencies --   1188.6356              1209.1265              1211.1868
 Red. masses --      2.0829                 2.0324                 1.3524
 Frc consts  --      1.7338                 1.7507                 1.1689
 IR Inten    --     15.0444                21.4267                 0.1853

                     58                     59                     60
                      A                      A                      A
 Frequencies --   1238.7952              1250.9532              1255.0596
 Red. masses --      1.8377                 1.3891                 1.6979
 Frc consts  --      1.6616                 1.2808                 1.5758
 IR Inten    --     17.0337                 0.2655                 3.1117

                     61                     62                     63
                      A                      A                      A
 Frequencies --   1286.2887              1301.9091              1310.3424
 Red. masses --      1.3050                 1.3229                 1.3083
 Frc consts  --      1.2721                 1.3211                 1.3235
 IR Inten    --      0.7500                 5.8169                21.3245

                     64                     65                     66
                      A                      A                      A
 Frequencies --   1316.0891              1339.6138              1351.4260
 Red. masses --      1.4822                 1.3306                 1.1734
 Frc consts  --      1.5126                 1.4068                 1.2626
 IR Inten    --     16.4846                 5.6790                 6.3998

                     67                     68                     69
                      A                      A                      A
 Frequencies --   1363.7778              1380.8351              1388.2160
 Red. masses --      1.3982                 1.3671                 1.3405
 Frc consts  --      1.5322                 1.5358                 1.5221
 IR Inten    --      3.7391                 5.5680                13.4103

                     70                     71                     72
                      A                      A                      A
 Frequencies --   1393.5241              1399.3224              1403.7512
 Red. masses --      1.3276                 1.4442                 1.4736
 Frc consts  --      1.5190                 1.6661                 1.7108
 IR Inten    --      1.8500                23.6822                 5.7899

                     73                     74                     75
                      A                      A                      A
 Frequencies --   1409.8596              1415.1945              1438.9919
 Red. masses --      1.4927                 1.3803                 1.3335
 Frc consts  --      1.7482                 1.6288                 1.6269
 IR Inten    --      8.7173                15.6391                 3.9022

                     76                     77                     78
                      A                      A                      A
 Frequencies --   1442.6464              1445.4224              1447.7549
 Red. masses --      1.3247                 1.3746                 1.2517
 Frc consts  --      1.6244                 1.6921                 1.5458
 IR Inten    --      9.4495                14.2013                57.1332

                     79                     80                     81
                      A                      A                      A
 Frequencies --   1483.2936              1511.2347              1513.0331
 Red. masses --      1.0934                 1.0914                 1.0786
 Frc consts  --      1.4174                 1.4686                 1.4548
 IR Inten    --      0.4071                 0.3172                 1.9454

                     82                     83                     84
                      A                      A                      A
 Frequencies --   1515.1868              1518.1612              1522.0113
 Red. masses --      1.0910                 1.0840                 1.0869
 Frc consts  --      1.4757                 1.4721                 1.4834
 IR Inten    --      1.4511                 3.1053                 6.8704

                     85                     86                     87
                      A                      A                      A
 Frequencies --   1524.8342              1531.5716              1533.7671
 Red. masses --      1.1816                 1.1102                 1.2085
 Frc consts  --      1.6187                 1.5344                 1.6750
 IR Inten    --      1.3803                 3.6799                13.4602

                     88                     89                     90
                      A                      A                      A
 Frequencies --   1535.9224              1543.3649              2950.0325
 Red. masses --      1.1025                 1.0634                 1.0745
 Frc consts  --      1.5324                 1.4924                 5.5093
 IR Inten    --      7.6072                 3.1784                57.3572

                     91                     92                     93
                      A                      A                      A
 Frequencies --   3005.2795              3017.9788              3030.0097
 Red. masses --      1.0704                 1.0679                 1.0681
 Frc consts  --      5.6958                 5.7307                 5.7777
 IR Inten    --     16.3426                17.2067                15.6250

                     94                     95                     96
                      A                      A                      A
 Frequencies --   3034.3590              3036.0826              3040.5385
 Red. masses --      1.0686                 1.0677                 1.0847
 Frc consts  --      5.7970                 5.7987                 5.9083
 IR Inten    --     34.1352                19.4488                47.7800

                     97                     98                     99
                      A                      A                      A
 Frequencies --   3042.8479              3044.8833              3048.0356
 Red. masses --      1.0607                 1.0441                 1.0803
 Frc consts  --      5.7862                 5.7036                 5.9136
 IR Inten    --     35.1289                26.7391                10.9240

                    100                    101                    102
                      A                      A                      A
 Frequencies --   3055.0633              3082.9781              3084.9265
 Red. masses --      1.0800                 1.0964                 1.0955
 Frc consts  --      5.9388                 6.1400                 6.1428
 IR Inten    --     64.3626                45.8909                17.4575

                    103                    104                    105
                      A                      A                      A
 Frequencies --   3088.0341              3089.7726              3092.4462
 Red. masses --      1.0913                 1.0938                 1.0963
 Frc consts  --      6.1312                 6.1526                 6.1773
 IR Inten    --     13.9782                37.0049                34.5970

                    106                    107                    108
                      A                      A                      A
 Frequencies --   3096.3875              3108.4249              3111.6675
 Red. masses --      1.0989                 1.0999                 1.0913
 Frc consts  --      6.2077                 6.2616                 6.2254
 IR Inten    --     38.3011                41.4932                85.4504

                    109                    110                    111
                      A                      A                      A
 Frequencies --   3124.3272              3151.7669              3157.3559
 Red. masses --      1.0987                 1.0516                 1.0593
 Frc consts  --      6.3192                 6.1547                 6.2220
 IR Inten    --     52.3953                16.6378                11.4423

                    112                    113                    114
                      A                      A                      A
 Frequencies --   3231.5512              3247.5704              3721.8790
 Red. masses --      1.1189                 1.1156                 1.0657
 Frc consts  --      6.8845                 6.9320                 8.6979
 IR Inten    --      3.0088                18.6244                 6.4107

 - Thermochemistry -
 -------------------
 Temperature   298.150 Kelvin.  Pressure   1.00000 Atm.
 Atom     1 has atomic number  6 and mass  12.00000

 Molecular mass:   211.19361 amu.
 Principal axes and moments of inertia in atomic units:
                           1         2         3
     Eigenvalues --  2277.414864963.166666002.12571
           X            0.99997  -0.00169   0.00749
           Y            0.00170   1.00000  -0.00140
           Z           -0.00749   0.00141   0.99997
 This molecule is an asymmetric top.
 Rotational symmetry number  1.
 Warning -- assumption of classical behavior for rotation
           may cause significant error
 Rotational temperatures (Kelvin)      0.03803     0.01745     0.01443
 Rotational constants (GHZ):           0.79245     0.36363     0.30068
 Zero-point vibrational energy     971590.4 (Joules/Mol)
                                  232.21568 (Kcal/Mol)
 Warning -- explicit consideration of  24 degrees of freedom as
           vibrations may cause significant error
 Vibrational temperatures:     60.38    75.29    98.93   133.43   144.42
          (Kelvin)            168.26   232.60   243.07   264.30   312.45
                              351.55   405.39   418.28   436.84   452.06
                              507.61   554.53   590.83   612.63   644.15
                              671.53   692.15   738.65   788.75   928.71
                             1051.75  1117.94  1146.78  1170.80  1187.65
                             1211.04  1239.27  1268.76  1288.20  1312.90
                             1343.76  1366.01  1384.16  1405.26  1417.31
                             1451.25  1498.90  1504.54  1536.09  1546.95
                             1562.81  1572.44  1579.31  1586.16  1617.80
                             1644.03  1655.04  1662.67  1683.41  1710.18
                             1739.66  1742.63  1782.35  1799.84  1805.75
                             1850.68  1873.16  1885.29  1893.56  1927.41
                             1944.40  1962.17  1986.71  1997.33  2004.97
                             2013.31  2019.68  2028.47  2036.15  2070.39
                             2075.65  2079.64  2083.00  2134.13  2174.33
                             2176.92  2180.02  2184.30  2189.83  2193.90
                             2203.59  2206.75  2209.85  2220.56  4244.44
                             4323.93  4342.20  4359.51  4365.77  4368.25
                             4374.66  4377.98  4380.91  4385.44  4395.55
                             4435.72  4438.52  4442.99  4445.49  4449.34
                             4455.01  4472.33  4477.00  4495.21  4534.69
                             4542.73  4649.48  4672.53  5354.95

 Zero-point correction=                           0.370059 (Hartree/Particle)
 Thermal correction to Energy=                    0.386228
 Thermal correction to Enthalpy=                  0.387172
 Thermal correction to Gibbs Free Energy=         0.326668
 Sum of electronic and zero-point Energies=           -640.074156
 Sum of electronic and thermal Energies=              -640.057987
 Sum of electronic and thermal Enthalpies=            -640.057043
 Sum of electronic and thermal Free Energies=         -640.117547

                     E (Thermal)             CV                S
                      KCal/Mol        Cal/Mol-Kelvin    Cal/Mol-Kelvin
 Total                  242.362             62.949            127.341
 Electronic               0.000              0.000              0.000
 Translational            0.889              2.981             41.946
 Rotational               0.889              2.981             32.584
 Vibrational            240.584             56.988             52.811
 Vibration     1          0.595              1.980              5.164
 Vibration     2          0.596              1.977              4.727
 Vibration     3          0.598              1.969              4.188
 Vibration     4          0.602              1.954              3.601
 Vibration     5          0.604              1.949              3.447
 Vibration     6          0.608              1.935              3.150
 Vibration     7          0.622              1.889              2.530
 Vibration     8          0.625              1.881              2.447
 Vibration     9          0.631              1.862              2.290
 Vibration    10          0.646              1.815              1.983
 Vibration    11          0.660              1.772              1.771
 Vibration    12          0.681              1.707              1.523
 Vibration    13          0.687              1.691              1.470
 Vibration    14          0.695              1.667              1.397
 Vibration    15          0.702              1.647              1.340
 Vibration    16          0.729              1.569              1.154
 Vibration    17          0.754              1.501              1.018
 Vibration    18          0.775              1.447              0.924
 Vibration    19          0.788              1.414              0.873
 Vibration    20          0.807              1.366              0.803
 Vibration    21          0.824              1.324              0.747
 Vibration    22          0.837              1.292              0.707
 Vibration    23          0.868              1.220              0.625
 Vibration    24          0.903              1.144              0.548

 Optimization completed.
    -- Stationary point found.
 Normal termination of Gaussian 16 at Thu Dec 10 15:02:01 2020.

 ----------------------------------------------------------------------
 # B3LYP/6-311++G(d,p) empiricaldispersion=gd3bj scf=xqc pop=npa geom=c
 heck
 ----------------------------------------------------------------------

 --------------------------------------
 CID_79618558_JID_5098_Energie_neutraal
 --------------------------------------
 Structure from the checkpoint file:  "JID_5098.chk"
 Charge =  0 Multiplicity = 1

 SCF Done:  E(RB3LYP) =  -640.629913032     A.U. after   14 cycles
 Normal termination of Gaussian 16 at Thu Dec 10 15:08:32 2020.

 ----------------------------------------------------------------------
 # B3LYP/6-311++G(d,p) empiricaldispersion=gd3bj scf=xqc pop=npa geom=c
 heck
 ----------------------------------------------------------------------

 ------------------------------------
 CID_79618558_JID_5098_Energie_kation
 ------------------------------------
 Structure from the checkpoint file:  "JID_5098.chk"
 Charge =  1 Multiplicity = 2

 SCF Done:  E(UB3LYP) =  -640.346209905     A.U. after   19 cycles
 Normal termination of Gaussian 16 at Thu Dec 10 15:20:08 2020.
 Gaussian 16:  ES64L-G16RevA.03 25-Dec-2016

 ----------------------------------------------------------------------
 # B3LYP/6-311++G(d,p) empiricaldispersion=gd3bj scf=xqc pop=npa geom=c
 heck
 ----------------------------------------------------------------------

 -----------------------------------
 CID_79618558_JID_5098_Energie_anion
 -----------------------------------
 Structure from the checkpoint file:  "JID_5098.chk"
 Charge = -1 Multiplicity = 2

                         Standard orientation:
 ---------------------------------------------------------------------
 Center     Atomic      Atomic             Coordinates (Angstroms)
 Number     Number       Type             X           Y           Z
 ---------------------------------------------------------------------
      1          6           0       -2.757610    2.735767    0.091654
      2          6           0       -3.274530    1.295840    0.017926
      3          6           0       -2.761434    0.513182   -1.197432
      4          6           0       -1.249285    0.255023   -1.186708
      5          7           0       -0.794825   -0.477542    0.000275
      6          6           0       -1.120833   -1.877136   -0.069255
      7          6           0       -1.191966   -2.658643    1.215538
      8          6           0       -2.454843   -2.356878    0.449370
      9          6           0        0.611538   -0.240341    0.371993
     10          6           0        0.817391    1.157152    0.973407
     11          6           0        2.257186    1.334067    1.474825
     12          6           0        3.277991    1.060241    0.361509
     13          6           0        3.076425   -0.328211   -0.252598
     14          6           0        1.637871   -0.501212   -0.750516
     15          8           0        4.031631   -0.605714   -1.275679
     16          1           0       -1.670754    2.768389    0.221544
     17          1           0       -3.203081    3.272315    0.936953
     18          1           0       -3.001875    3.291702   -0.822485
     19          1           0       -2.983592    0.760954    0.929240
     20          1           0       -4.372056    1.308284   -0.008479
     21          1           0       -3.290464   -0.443303   -1.267562
     22          1           0       -2.999513    1.064739   -2.118191
     23          1           0       -0.972374   -0.275387   -2.116291
     24          1           0       -0.726588    1.214982   -1.214943
     25          1           0       -0.733679   -2.421439   -0.939282
     26          1           0       -0.808947   -3.674808    1.223614
     27          1           0       -1.031523   -2.104640    2.135668
     28          1           0       -3.120048   -1.611651    0.871245
     29          1           0       -2.950910   -3.164226   -0.082274
     30          1           0        0.818855   -0.960825    1.173056
     31          1           0        0.096375    1.303344    1.785167
     32          1           0        0.609107    1.928197    0.219345
     33          1           0        2.438765    0.641197    2.308922
     34          1           0        2.396841    2.344980    1.875042
     35          1           0        4.304796    1.147519    0.733913
     36          1           0        3.159520    1.813317   -0.434073
     37          1           0        3.277004   -1.085222    0.516615
     38          1           0        1.467736    0.206565   -1.576030
     39          1           0        1.518122   -1.510193   -1.160975
     40          1           0        3.881605    0.040612   -1.984501
 ---------------------------------------------------------------------

 SCF Done:  E(UB3LYP) =  -640.614163415     A.U. after   31 cycles

 The electronic state is 2-A.
 Alpha  occ. eigenvalues --  -19.02375 -14.20896 -10.12347 -10.10953 -10.10283
 Alpha  occ. eigenvalues --  -10.09064 -10.08403 -10.08150 -10.07383 -10.06787
 Alpha  occ. eigenvalues --  -10.06678 -10.06532 -10.06373 -10.06343 -10.05710
 Alpha  occ. eigenvalues --   -0.92588  -0.84030  -0.75572  -0.72442  -0.69015
 Alpha  occ. eigenvalues --   -0.64387  -0.63771  -0.60816  -0.54663  -0.52812
 Alpha  occ. eigenvalues --   -0.51926  -0.51202  -0.48696  -0.47809  -0.44943
 Alpha  occ. eigenvalues --   -0.41739  -0.40252  -0.39130  -0.36908  -0.36888
 Alpha  occ. eigenvalues --   -0.35949  -0.35782  -0.34444  -0.33673  -0.31476
 Alpha  occ. eigenvalues --   -0.31412  -0.29812  -0.29190  -0.28872  -0.28120
 Alpha  occ. eigenvalues --   -0.27888  -0.27601  -0.25191  -0.24776  -0.24278
 Alpha  occ. eigenvalues --   -0.23798  -0.23162  -0.22600  -0.22455  -0.21742
 Alpha  occ. eigenvalues --   -0.20710  -0.19995  -0.17688  -0.12210   0.04457
 Alpha virt. eigenvalues --    0.06236   0.06603   0.06627   0.08153   0.08218
 Alpha virt. eigenvalues --    0.08426   0.09079   0.09254   0.10253   0.10882
 Alpha virt. eigenvalues --    0.11020   0.11567   0.11642   0.11696   0.12231

  Beta  occ. eigenvalues --  -19.02348 -14.20887 -10.12346 -10.10946 -10.10282
  Beta  occ. eigenvalues --  -10.09052 -10.08398 -10.08139 -10.07370 -10.06761
  Beta  occ. eigenvalues --  -10.06667 -10.06514 -10.06363 -10.06330 -10.05683
  Beta  occ. eigenvalues --   -0.92536  -0.84013  -0.75556  -0.72416  -0.68988
  Beta  occ. eigenvalues --   -0.64357  -0.63740  -0.60781  -0.54619  -0.52778
  Beta  occ. eigenvalues --   -0.51888  -0.51163  -0.48656  -0.47763  -0.44909
  Beta  occ. eigenvalues --   -0.41699  -0.40215  -0.39101  -0.36879  -0.36861
  Beta  occ. eigenvalues --   -0.35914  -0.35753  -0.34412  -0.33648  -0.31446
  Beta  occ. eigenvalues --   -0.31391  -0.29782  -0.29167  -0.28839  -0.28105
  Beta  occ. eigenvalues --   -0.27857  -0.27568  -0.25157  -0.24739  -0.24246
  Beta  occ. eigenvalues --   -0.23766  -0.23135  -0.22573  -0.22429  -0.21711
  Beta  occ. eigenvalues --   -0.20696  -0.19980  -0.17662  -0.12164
  Beta virt. eigenvalues --    0.06336   0.06978   0.07049   0.07378   0.08517
  Beta virt. eigenvalues --    0.08634   0.08762   0.09390   0.09599   0.10557
  Beta virt. eigenvalues --    0.11198   0.11374   0.11773   0.11959   0.11968

 Mulliken charges and spin densities:
               1          2
     1  C    0.973636  -1.568137
     2  C   -0.504263   0.416058
     3  C    0.118719  -0.574304
     4  C    0.115784  -0.239305
     5  N    0.410450   0.067161
     6  C   -0.448540   0.392886
     7  C   -0.180442  -0.197673
     8  C    0.460391  -0.889719
     9  C    0.046607  -1.013973
    10  C   -0.501665   0.816288
    11  C    0.203876  -0.733587
    12  C    0.138701  -0.432069
    13  C   -0.358690  -0.048912
    14  C    0.123787  -0.250027
    15  O   -0.213955   0.041419
    16  H   -0.604849   0.759898
    17  H   -0.155044   0.287965
    18  H   -0.088756   0.217458
    19  H    0.285280  -0.167436
    20  H   -0.209811   0.368489
    21  H    0.032349   0.117070
    22  H   -0.300709   0.462554
    23  H   -0.158114   0.305554
    24  H   -0.043503   0.184296
    25  H   -0.016084   0.188724
    26  H    0.074074   0.073883
    27  H    0.077449   0.058987
    28  H    0.026252   0.103415
    29  H   -0.127532   0.277269
    30  H    0.173632  -0.094177
    31  H    0.011074   0.176286
    32  H    0.565283  -0.492215
    33  H    0.071758   0.043745
    34  H   -0.414894   0.609629
    35  H   -0.000143   0.173737
    36  H   -0.508798   0.669558
    37  H    0.118208   0.071324
    38  H   -0.206627   0.401095
    39  H   -0.019890   0.195688
    40  H    0.035001   0.221097
 Sum of Mulliken charges =  -1.00000   1.00000

 Dipole moment (field-independent basis, Debye):
    X=             -0.8900    Y=             -4.6003    Z=              3.6729  Tot=              5.9536
 Quadrupole moment (field-independent basis, Debye-Ang):
   XX=           -175.3588   YY=           -152.6824   ZZ=           -135.3868
   XY=             -0.0209   XZ=              3.8863   YZ=             -3.4173

 Summary of Natural Population Analysis:

                                       Natural Population
                Natural  -----------------------------------------------
    Atom  No    Charge         Core      Valence    Rydberg      Total
 -----------------------------------------------------------------------
      C    1   -0.28639      0.99966     2.28172    0.00501     3.28639
      C    2   -0.19287      0.99964     2.18475    0.00848     3.19287
      C    3   -0.19137      0.99962     2.18323    0.00852     3.19137
      C    4   -0.08625      0.99960     2.07451    0.01214     3.08625
      N    5   -0.28567      0.99968     2.77183    0.01416     3.78567
      C    6   -0.01311      0.99955     2.00085    0.01270     3.01311
      C    7   -0.20301      0.99961     2.19680    0.00660     3.20301
      C    8   -0.20086      0.99961     2.19171    0.00955     3.20086
      C    9    0.00198      0.99956     1.98680    0.01166     2.99802
      C   10   -0.19330      0.99960     2.18437    0.00933     3.19330
      C   11   -0.18849      0.99963     2.18003    0.00883     3.18849
      C   12   -0.20065      0.99961     2.19155    0.00949     3.20065
      C   13    0.06767      0.99953     1.92023    0.01257     2.93233
      C   14   -0.21217      0.99958     2.20302    0.00957     3.21217
      O   15   -0.37124      0.99990     3.36491    0.00643     4.37124
      H   16    0.09800      0.00000     0.40067    0.00134     0.40200
      H   17    0.09747      0.00000     0.40160    0.00093     0.40253
      H   18    0.09502      0.00000     0.40384    0.00114     0.40498
      H   19    0.09725      0.00000     0.40107    0.00168     0.40275
      H   20    0.09252      0.00000     0.40650    0.00098     0.40748
      H   21    0.09751      0.00000     0.40106    0.00143     0.40249
      H   22    0.09637      0.00000     0.40260    0.00102     0.40363
      H   23    0.08623      0.00000     0.41216    0.00162     0.41377
      H   24    0.09725      0.00000     0.40062    0.00213     0.40275
      H   25    0.09030      0.00000     0.40816    0.00154     0.40970
      H   26    0.10080      0.00000     0.39834    0.00085     0.39920
      H   27    0.10428      0.00000     0.39463    0.00108     0.39572
      H   28    0.10641      0.00000     0.39231    0.00128     0.39359
      H   29    0.10095      0.00000     0.39800    0.00105     0.39905
      H   30    0.09385      0.00000     0.40412    0.00202     0.40615
      H   31    0.10315      0.00000     0.39546    0.00139     0.39685
      H   32    0.09684      0.00000     0.40113    0.00203     0.40316
      H   33    0.09017      0.00000     0.40869    0.00114     0.40983
      H   34    0.10282      0.00000     0.39609    0.00108     0.39718
      H   35    0.10161      0.00000     0.39737    0.00102     0.39839
      H   36    0.09684      0.00000     0.40094    0.00221     0.40316
      H   37    0.08000      0.00000     0.41810    0.00189     0.42000
      H   38    0.09866      0.00000     0.39938    0.00196     0.40134
      H   39    0.10367      0.00000     0.39500    0.00133     0.39633
      H   40    0.22773      0.00000     0.26866    0.00360     0.27227
 =======================================================================
   * Total *   -0.00000     14.99437    43.82280    0.18283    59.00000

 Normal termination of Gaussian 16 at Thu Dec 10 15:41:32 2020.
