 Gaussian 16, Revision A.03,

 -----------------------------------------------------------
 # opt freq B3LYP/6-31G(d) empiricaldispersion=gd3bj scf=xqc
 -----------------------------------------------------------

 -------------------------------
 CID_108941730_JID_9270_neutraal
 -------------------------------
 Symbolic Z-matrix:
 Charge =  0 Multiplicity = 1

 SCF Done:  E(RB3LYP) =  -858.516532301     A.U. after   15 cycles
 SCF Done:  E(RB3LYP) =  -858.513681216     A.U. after   14 cycles
 SCF Done:  E(RB3LYP) =  -858.522275774     A.U. after   13 cycles
 SCF Done:  E(RB3LYP) =  -858.521396685     A.U. after   14 cycles
 SCF Done:  E(RB3LYP) =  -858.523757479     A.U. after   12 cycles
 SCF Done:  E(RB3LYP) =  -858.524450044     A.U. after   12 cycles
 SCF Done:  E(RB3LYP) =  -858.525098956     A.U. after   13 cycles
 SCF Done:  E(RB3LYP) =  -858.525511690     A.U. after   15 cycles
 SCF Done:  E(RB3LYP) =  -858.526404198     A.U. after   12 cycles
 SCF Done:  E(RB3LYP) =  -858.526728483     A.U. after   12 cycles
 SCF Done:  E(RB3LYP) =  -858.526928468     A.U. after   11 cycles
 SCF Done:  E(RB3LYP) =  -858.526937062     A.U. after   10 cycles
 SCF Done:  E(RB3LYP) =  -858.526946215     A.U. after   10 cycles
 SCF Done:  E(RB3LYP) =  -858.526948664     A.U. after    9 cycles
 SCF Done:  E(RB3LYP) =  -858.526949704     A.U. after    8 cycles
 SCF Done:  E(RB3LYP) =  -858.526949870     A.U. after    8 cycles
 Optimization completed.
    -- Stationary point found.
 Normal termination of Gaussian 16 at Sun Dec 13 12:42:48 2020.

 --------------------------------------------------------------------
 #N Geom=AllCheck Guess=TCheck SCRF=Check GenChk RB3LYP/6-31G(d) Freq
 --------------------------------------------------------------------

 Structure from the checkpoint file:  "JID_9270.chk"
 -------------------------------
 CID_108941730_JID_9270_neutraal
 -------------------------------
 Charge =  0 Multiplicity = 1

 SCF Done:  E(RB3LYP) =  -858.526949870     A.U. after    1 cycles

  Exact polarizability: 283.154  20.519 156.322   3.524   1.758  95.527
 Approx polarizability: 385.820  47.648 262.036   8.712   4.621 145.189

                      1                      2                      3
                      A                      A                      A
 Frequencies --     19.3201                39.3480                45.1254
 Red. masses --      5.6918                 4.9251                 2.6771
 Frc consts  --      0.0013                 0.0045                 0.0032
 IR Inten    --      0.1048                 1.4654                 0.5381

                      4                      5                      6
                      A                      A                      A
 Frequencies --     54.6300                71.6170                76.6008
 Red. masses --      5.3976                 5.3819                 7.3030
 Frc consts  --      0.0095                 0.0163                 0.0252
 IR Inten    --      1.6601                 3.0193                 1.1841

                      7                      8                      9
                      A                      A                      A
 Frequencies --     84.2282               118.5274               143.7352
 Red. masses --      4.8275                 7.6153                 5.4846
 Frc consts  --      0.0202                 0.0630                 0.0668
 IR Inten    --      1.2702                 5.3932                11.9155

                     10                     11                     12
                      A                      A                      A
 Frequencies --    163.5103               174.7982               223.1880
 Red. masses --      5.7516                 6.5322                 2.3773
 Frc consts  --      0.0906                 0.1176                 0.0698
 IR Inten    --      0.1769                 0.6301                 1.0711

                     13                     14                     15
                      A                      A                      A
 Frequencies --    229.5437               253.7682               285.0871
 Red. masses --      1.1244                 1.5140                 2.6022
 Frc consts  --      0.0349                 0.0574                 0.1246
 IR Inten    --      0.3129                 0.0787                 2.2711

                     16                     17                     18
                      A                      A                      A
 Frequencies --    307.1444               338.7331               344.3021
 Red. masses --      4.2627                 5.6139                 3.5008
 Frc consts  --      0.2369                 0.3795                 0.2445
 IR Inten    --      1.8098                 3.9256                 0.5304

                     19                     20                     21
                      A                      A                      A
 Frequencies --    371.5683               419.3239               423.1056
 Red. masses --      3.5487                 2.2942                 2.5877
 Frc consts  --      0.2887                 0.2377                 0.2729
 IR Inten    --     14.1613                 1.3233                 0.9154

                     22                     23                     24
                      A                      A                      A
 Frequencies --    436.3776               472.7616               491.4226
 Red. masses --      3.0224                 4.4503                 4.2175
 Frc consts  --      0.3391                 0.5860                 0.6001
 IR Inten    --      2.7107                 2.0754                 2.5615

                     25                     26                     27
                      A                      A                      A
 Frequencies --    526.6757               545.8066               556.6539
 Red. masses --      2.4232                 4.2885                 3.9113
 Frc consts  --      0.3960                 0.7527                 0.7141
 IR Inten    --      1.3256                24.8129                25.1405

                     28                     29                     30
                      A                      A                      A
 Frequencies --    564.7845               582.9686               593.5728
 Red. masses --      4.0004                 3.1199                 3.0494
 Frc consts  --      0.7518                 0.6247                 0.6330
 IR Inten    --      6.8623                12.5873                41.7989

                     31                     32                     33
                      A                      A                      A
 Frequencies --    656.0032               667.3713               697.0116
 Red. masses --      1.9004                 3.2860                 2.2050
 Frc consts  --      0.4818                 0.8623                 0.6312
 IR Inten    --     79.0129                48.9917                37.3565

                     34                     35                     36
                      A                      A                      A
 Frequencies --    711.2151               738.6282               781.8621
 Red. masses --      3.1529                 4.3576                 5.5514
 Frc consts  --      0.9396                 1.4007                 1.9995
 IR Inten    --     37.5086                 2.8575                 3.9942

                     37                     38                     39
                      A                      A                      A
 Frequencies --    832.3732               838.9662               853.4209
 Red. masses --      2.7289                 1.6836                 2.3634
 Frc consts  --      1.1140                 0.6982                 1.0142
 IR Inten    --      7.5640                23.8532                 3.7992

                     40                     41                     42
                      A                      A                      A
 Frequencies --    886.1651               890.3259               911.9517
 Red. masses --      1.9870                 1.7633                 2.2201
 Frc consts  --      0.9193                 0.8235                 1.0878
 IR Inten    --      6.7915                20.2339                21.6293

                     43                     44                     45
                      A                      A                      A
 Frequencies --    941.0054               945.7467               961.3870
 Red. masses --      1.3189                 3.4180                 1.3368
 Frc consts  --      0.6881                 1.8012                 0.7280
 IR Inten    --      0.6436                 8.5441                 0.2139

                     46                     47                     48
                      A                      A                      A
 Frequencies --    965.1418               980.3670               996.8023
 Red. masses --      1.8319                 1.4390                 1.9022
 Frc consts  --      1.0054                 0.8148                 1.1136
 IR Inten    --      3.5842                 1.3012                21.4218

                     49                     50                     51
                      A                      A                      A
 Frequencies --   1023.3375              1045.1777              1097.5511
 Red. masses --      1.3891                 2.3778                 2.3380
 Frc consts  --      0.8571                 1.5304                 1.6594
 IR Inten    --     11.3206                 2.7360                14.9072

                     52                     53                     54
                      A                      A                      A
 Frequencies --   1158.0847              1166.0513              1171.3428
 Red. masses --      1.4203                 1.9228                 1.4169
 Frc consts  --      1.1223                 1.5404                 1.1454
 IR Inten    --     14.6693                 4.6748                12.4811

                     55                     56                     57
                      A                      A                      A
 Frequencies --   1190.9145              1209.2232              1218.9898
 Red. masses --      2.1223                 1.7888                 1.6604
 Frc consts  --      1.7735                 1.5411                 1.4537
 IR Inten    --      1.5480                26.3097                12.2614

                     58                     59                     60
                      A                      A                      A
 Frequencies --   1250.1116              1260.7720              1295.3804
 Red. masses --      1.9237                 2.4077                 1.4162
 Frc consts  --      1.7713                 2.2549                 1.4002
 IR Inten    --      3.1267                10.3155                83.7628

                     61                     62                     63
                      A                      A                      A
 Frequencies --   1300.8570              1345.8440              1350.6879
 Red. masses --      1.4661                 3.7978                 1.2495
 Frc consts  --      1.4618                 4.0529                 1.3431
 IR Inten    --     66.4684                 4.1599                 4.8550

                     64                     65                     66
                      A                      A                      A
 Frequencies --   1364.3494              1372.8590              1388.3026
 Red. masses --      1.7039                 2.8590                 1.3756
 Frc consts  --      1.8688                 3.1748                 1.5621
 IR Inten    --      6.9688               657.1616                 3.7323

                     67                     68                     69
                      A                      A                      A
 Frequencies --   1402.6615              1428.0361              1432.2730
 Red. masses --      1.6345                 1.3904                 1.4892
 Frc consts  --      1.8947                 1.6706                 1.7999
 IR Inten    --      8.0525                16.2101                 5.6580

                     70                     71                     72
                      A                      A                      A
 Frequencies --   1450.7011              1453.2582              1505.5879
 Red. masses --      1.2539                 2.2761                 1.8014
 Frc consts  --      1.5548                 2.8322                 2.4059
 IR Inten    --      5.8382                 9.1051                52.2791

                     73                     74                     75
                      A                      A                      A
 Frequencies --   1509.2577              1512.7905              1519.5102
 Red. masses --      1.3274                 1.5122                 1.0711
 Frc consts  --      1.7815                 2.0390                 1.4570
 IR Inten    --      2.0485                12.0586                 3.5639

                     76                     77                     78
                      A                      A                      A
 Frequencies --   1528.0376              1532.9276              1534.6996
 Red. masses --      1.0581                 1.1708                 1.0626
 Frc consts  --      1.4556                 1.6209                 1.4745
 IR Inten    --      6.4772                17.1697                 0.6276

                     79                     80                     81
                      A                      A                      A
 Frequencies --   1544.8177              1567.0724              1623.5121
 Red. masses --      1.0477                 2.4503                 5.6142
 Frc consts  --      1.4731                 3.5453                 8.7187
 IR Inten    --     15.0801               102.5790                 3.2698

                     82                     83                     84
                      A                      A                      A
 Frequencies --   1669.2623              1765.6669              1771.8814
 Red. masses --      5.4350                 7.7232                 6.9844
 Frc consts  --      8.9227                14.1862                12.9196
 IR Inten    --    101.9840              1036.9205                64.3782

                     85                     86                     87
                      A                      A                      A
 Frequencies --   2349.5715              3035.1446              3036.3152
 Red. masses --     12.6779                 1.0645                 1.0404
 Frc consts  --     41.2360                 5.7775                 5.6513
 IR Inten    --     52.4190                22.7686                25.4256

                     88                     89                     90
                      A                      A                      A
 Frequencies --   3041.9763              3074.4222              3100.2913
 Red. masses --      1.0443                 1.0840                 1.0998
 Frc consts  --      5.6936                 6.0367                 6.2283
 IR Inten    --     50.7702                 7.5973                26.3277

                     91                     92                     93
                      A                      A                      A
 Frequencies --   3108.2657              3114.4259              3115.4933
 Red. masses --      1.0990                 1.0645                 1.0974
 Frc consts  --      6.2556                 6.0837                 6.2758
 IR Inten    --     44.4355                 5.0624                43.3949

                     94                     95                     96
                      A                      A                      A
 Frequencies --   3123.8309              3169.2527              3176.4167
 Red. masses --      1.1027                 1.0914                 1.1017
 Frc consts  --      6.3401                 6.4589                 6.5492
 IR Inten    --     32.2118                10.2768                 2.5879

                     97                     98                     99
                      A                      A                      A
 Frequencies --   3193.9626              3196.8977              3222.6239
 Red. masses --      1.0904                 1.0935                 1.0930
 Frc consts  --      6.5536                 6.5848                 6.6877
 IR Inten    --     16.0866                91.3400                 4.5728

                    100                    101                    102
                      A                      A                      A
 Frequencies --   3224.1781              3572.1125              3586.6010
 Red. masses --      1.0943                 1.0752                 1.0749
 Frc consts  --      6.7021                 8.0834                 8.1466
 IR Inten    --      5.0228                30.2122                23.5010

 - Thermochemistry -
 -------------------
 Temperature   298.150 Kelvin.  Pressure   1.00000 Atm.
 Atom     1 has atomic number  6 and mass  12.00000

 Molecular mass:   259.13208 amu.
 Principal axes and moments of inertia in atomic units:
                           1         2         3
     Eigenvalues --  1721.21448********************
           X            0.99999  -0.00303  -0.00363
           Y            0.00305   0.99998   0.00595
           Z            0.00361  -0.00596   0.99998
 This molecule is an asymmetric top.
 Rotational symmetry number  1.
 Warning -- assumption of classical behavior for rotation
           may cause significant error
 Rotational temperatures (Kelvin)      0.05032     0.00707     0.00647
 Rotational constants (GHZ):           1.04853     0.14732     0.13481
 Zero-point vibrational energy     781266.4 (Joules/Mol)
                                  186.72716 (Kcal/Mol)
 Warning -- explicit consideration of  30 degrees of freedom as
           vibrations may cause significant error
 Vibrational temperatures:     27.80    56.61    64.93    78.60   103.04
          (Kelvin)            110.21   121.19   170.53   206.80   235.25
                              251.50   321.12   330.26   365.12   410.18
                              441.91   487.36   495.37   534.60   603.31
                              608.75   627.85   680.20   707.05   757.77
                              785.29   800.90   812.60   838.76   854.02
                              943.84   960.20  1002.84  1023.28  1062.72
                             1124.93  1197.60  1207.09  1227.88  1274.99
                             1280.98  1312.10  1353.90  1360.72  1383.22
                             1388.62  1410.53  1434.18  1472.35  1503.78
                             1579.13  1666.23  1677.69  1685.30  1713.46
                             1739.80  1753.85  1798.63  1813.97  1863.76
                             1871.64  1936.37  1943.34  1962.99  1975.24
                             1997.46  2018.12  2054.63  2060.72  2087.24
                             2090.91  2166.21  2171.49  2176.57  2186.24
                             2198.51  2205.54  2208.09  2222.65  2254.67
                             2335.87  2401.70  2540.40  2549.34  3380.51
                             4366.90  4368.58  4376.73  4423.41  4460.63
                             4472.10  4480.96  4482.50  4494.50  4559.85
                             4570.16  4595.40  4599.62  4636.64  4638.87
                             5139.47  5160.32

 Zero-point correction=                           0.297569 (Hartree/Particle)
 Thermal correction to Energy=                    0.316271
 Thermal correction to Enthalpy=                  0.317216
 Thermal correction to Gibbs Free Energy=         0.248698
 Sum of electronic and zero-point Energies=           -858.229381
 Sum of electronic and thermal Energies=              -858.210678
 Sum of electronic and thermal Enthalpies=            -858.209734
 Sum of electronic and thermal Free Energies=         -858.278252

                     E (Thermal)             CV                S
                      KCal/Mol        Cal/Mol-Kelvin    Cal/Mol-Kelvin
 Total                  198.463             69.713            144.208
 Electronic               0.000              0.000              0.000
 Translational            0.889              2.981             42.556
 Rotational               0.889              2.981             34.000
 Vibrational            196.686             63.752             67.651
 Vibration     1          0.593              1.986              6.703
 Vibration     2          0.594              1.981              5.292
 Vibration     3          0.595              1.979              5.020
 Vibration     4          0.596              1.976              4.642
 Vibration     5          0.598              1.968              4.108
 Vibration     6          0.599              1.965              3.976
 Vibration     7          0.601              1.960              3.790
 Vibration     8          0.609              1.934              3.124
 Vibration     9          0.616              1.909              2.754
 Vibration    10          0.623              1.887              2.509
 Vibration    11          0.627              1.873              2.383
 Vibration    12          0.649              1.806              1.933
 Vibration    13          0.652              1.796              1.883
 Vibration    14          0.665              1.756              1.704
 Vibration    15          0.683              1.701              1.503
 Vibration    16          0.697              1.660              1.378
 Vibration    17          0.719              1.598              1.218
 Vibration    18          0.723              1.587              1.192
 Vibration    19          0.743              1.531              1.073
 Vibration    20          0.782              1.428              0.894
 Vibration    21          0.785              1.420              0.881
 Vibration    22          0.797              1.391              0.838
 Vibration    23          0.830              1.310              0.730
 Vibration    24          0.847              1.269              0.680
 Vibration    25          0.882              1.191              0.595
 Vibration    26          0.901              1.149              0.553
 Vibration    27          0.912              1.125              0.531
 Vibration    28          0.921              1.107              0.514
 Vibration    29          0.940              1.068              0.480
 Vibration    30          0.951              1.045              0.461

                           ! Non-Optimized Parameters !
 Normal termination of Gaussian 16 at Sun Dec 13 12:59:11 2020.

 ----------------------------------------------------------------------
 # B3LYP/6-311++G(d,p) empiricaldispersion=gd3bj scf=xqc pop=npa geom=c
 heck
 ----------------------------------------------------------------------

 ---------------------------------------
 CID_108941730_JID_9270_Energie_neutraal
 ---------------------------------------
 Structure from the checkpoint file:  "JID_9270.chk"
 Charge =  0 Multiplicity = 1

 SCF Done:  E(RB3LYP) =  -858.770172246     A.U. after   16 cycles
 Normal termination of Gaussian 16 at Sun Dec 13 13:07:09 2020.

 ----------------------------------------------------------------------
 # B3LYP/6-311++G(d,p) empiricaldispersion=gd3bj scf=xqc pop=npa geom=c
 heck
 ----------------------------------------------------------------------

 -------------------------------------
 CID_108941730_JID_9270_Energie_kation
 -------------------------------------
 Structure from the checkpoint file:  "JID_9270.chk"
 Charge =  1 Multiplicity = 2

 SCF Done:  E(UB3LYP) =  -858.454366391     A.U. after   30 cycles
 Normal termination of Gaussian 16 at Sun Dec 13 13:28:20 2020.
 Gaussian 16:  ES64L-G16RevA.03 25-Dec-2016

 ----------------------------------------------------------------------
 # B3LYP/6-311++G(d,p) empiricaldispersion=gd3bj scf=xqc pop=npa geom=c
 heck
 ----------------------------------------------------------------------

 ------------------------------------
 CID_108941730_JID_9270_Energie_anion
 ------------------------------------
 Structure from the checkpoint file:  "JID_9270.chk"
 Charge = -1 Multiplicity = 2

                         Standard orientation:
 ---------------------------------------------------------------------
 Center     Atomic      Atomic             Coordinates (Angstroms)
 Number     Number       Type             X           Y           Z
 ---------------------------------------------------------------------
      1          6           0       -5.101799    0.846273    1.347491
      2          6           0       -4.368741   -0.173375    0.468908
      3          6           0       -5.309613   -1.287130   -0.001428
      4          6           0       -3.716625    0.488884   -0.756670
      5          7           0       -2.687358    1.464015   -0.411948
      6          6           0       -1.334409    1.360054   -0.465983
      7          8           0       -0.605972    2.209190    0.045296
      8          6           0       -0.729957    0.164019   -1.217021
      9          6           0       -0.667983   -1.084959   -0.349800
     10          8           0       -1.652406   -1.794790   -0.178871
     11          7           0        0.529841   -1.440858    0.232110
     12          6           0        1.821908   -0.875394    0.185066
     13          6           0        2.047049    0.507598    0.243335
     14          6           0        3.349665    0.992277    0.205213
     15          6           0        4.441925    0.113361    0.145464
     16          6           0        4.212010   -1.272223    0.120609
     17          6           0        2.913245   -1.757762    0.134359
     18          6           0        5.779788    0.620504    0.119471
     19          7           0        6.868527    1.029877    0.096742
     20          1           0       -5.904150    1.344848    0.787476
     21          1           0       -4.426190    1.618581    1.734087
     22          1           0       -5.558386    0.355405    2.213765
     23          1           0       -3.558683   -0.630528    1.048400
     24          1           0       -6.107231   -0.889211   -0.642694
     25          1           0       -4.759781   -2.046788   -0.567281
     26          1           0       -5.786708   -1.781158    0.851907
     27          1           0       -3.266399   -0.287280   -1.373935
     28          1           0       -4.484473    0.995196   -1.357846
     29          1           0       -2.984311    2.279748    0.111222
     30          1           0       -1.337273   -0.099497   -2.085376
     31          1           0        0.255214    0.474387   -1.562614
     32          1           0        0.460151   -2.352564    0.671590
     33          1           0        1.217649    1.202889    0.330916
     34          1           0        3.524420    2.062139    0.245031
     35          1           0        5.052371   -1.956716    0.079056
     36          1           0        2.734956   -2.828659    0.092475
 ---------------------------------------------------------------------

 SCF Done:  E(UB3LYP) =  -858.785786461     A.U. after   31 cycles

 The electronic state is 2-A.
 Alpha  occ. eigenvalues --  -18.99330 -18.97217 -14.25041 -14.23332 -14.16138
 Alpha  occ. eigenvalues --  -10.18355 -10.15527 -10.12299 -10.09508 -10.09073
 Alpha  occ. eigenvalues --  -10.08505 -10.08385 -10.07861 -10.06397 -10.05628
 Alpha  occ. eigenvalues --  -10.05541 -10.05100 -10.04690 -10.04056  -0.94680
 Alpha  occ. eigenvalues --   -0.92887  -0.83835  -0.81876  -0.76575  -0.72632
 Alpha  occ. eigenvalues --   -0.72492  -0.66427  -0.63311  -0.62718  -0.61822
 Alpha  occ. eigenvalues --   -0.60997  -0.53308  -0.51079  -0.49803  -0.48874
 Alpha  occ. eigenvalues --   -0.45663  -0.42376  -0.42050  -0.41541  -0.40085
 Alpha  occ. eigenvalues --   -0.38154  -0.37889  -0.36053  -0.34247  -0.33775
 Alpha  occ. eigenvalues --   -0.32721  -0.32560  -0.31690  -0.31291  -0.30485
 Alpha  occ. eigenvalues --   -0.30234  -0.29774  -0.28980  -0.28525  -0.27134
 Alpha  occ. eigenvalues --   -0.26529  -0.26510  -0.25846  -0.25232  -0.23165
 Alpha  occ. eigenvalues --   -0.22592  -0.22272  -0.19354  -0.17647  -0.16835
 Alpha  occ. eigenvalues --   -0.16738  -0.15095  -0.13980  -0.10911   0.03690
 Alpha virt. eigenvalues --    0.05198   0.07135   0.07253   0.08023   0.08564
 Alpha virt. eigenvalues --    0.09393   0.09803   0.10064   0.10269   0.10624
 Alpha virt. eigenvalues --    0.11168   0.11260   0.11813   0.12031   0.12531

  Beta  occ. eigenvalues --  -18.99298 -18.96996 -14.25037 -14.23452 -14.15879
  Beta  occ. eigenvalues --  -10.18313 -10.15261 -10.12293 -10.09505 -10.09070
  Beta  occ. eigenvalues --  -10.08527 -10.08382 -10.07464 -10.06405 -10.05571
  Beta  occ. eigenvalues --  -10.05267 -10.05096 -10.04540 -10.04088  -0.94612
  Beta  occ. eigenvalues --   -0.92495  -0.83812  -0.81681  -0.76182  -0.72525
  Beta  occ. eigenvalues --   -0.72249  -0.66267  -0.62775  -0.62436  -0.61809
  Beta  occ. eigenvalues --   -0.60980  -0.52812  -0.50782  -0.49719  -0.48798
  Beta  occ. eigenvalues --   -0.45441  -0.42286  -0.41955  -0.41330  -0.39907
  Beta  occ. eigenvalues --   -0.37992  -0.37865  -0.35968  -0.34085  -0.33573
  Beta  occ. eigenvalues --   -0.32621  -0.32425  -0.31651  -0.31122  -0.30329
  Beta  occ. eigenvalues --   -0.30153  -0.29651  -0.28717  -0.28162  -0.26987
  Beta  occ. eigenvalues --   -0.26421  -0.25874  -0.25515  -0.24997  -0.22950
  Beta  occ. eigenvalues --   -0.22194  -0.21105  -0.19207  -0.17091  -0.16683
  Beta  occ. eigenvalues --   -0.16490  -0.14909  -0.13131  -0.09574
  Beta virt. eigenvalues --    0.05139   0.07077   0.07149   0.07883   0.08674
  Beta virt. eigenvalues --    0.08994   0.09639   0.09854   0.10026   0.10423
  Beta virt. eigenvalues --    0.10732   0.11115   0.11417   0.11709   0.12229

 Mulliken charges and spin densities:
               1          2
     1  C   -0.522687  -0.072224
     2  C    0.213184   0.126401
     3  C   -0.546978  -0.088962
     4  C   -0.285670  -0.108045
     5  N   -0.120867   0.016692
     6  C   -0.043008   0.007556
     7  O   -0.328855   0.007656
     8  C   -0.027141  -0.186069
     9  C   -0.119805   0.188323
    10  O   -0.363414   0.082721
    11  N   -0.132203  -0.053082
    12  C   -0.129615   0.118842
    13  C    0.457066  -0.180359
    14  C   -0.234418   0.169915
    15  C    1.880151   0.183665
    16  C   -0.525796   0.074673
    17  C   -0.691929   0.231220
    18  C   -1.719254  -0.098671
    19  N   -0.304261   0.138923
    20  H    0.113422   0.023855
    21  H    0.119071  -0.000438
    22  H    0.103246   0.026984
    23  H    0.232758  -0.007647
    24  H    0.087563   0.028352
    25  H    0.126570   0.036840
    26  H    0.110077   0.018822
    27  H    0.170179  -0.002452
    28  H    0.089324   0.074644
    29  H    0.266962   0.007271
    30  H    0.040800   0.164028
    31  H    0.200878  -0.014303
    32  H    0.232354   0.066563
    33  H    0.253717   0.004216
    34  H    0.168311  -0.006870
    35  H    0.142639   0.000426
    36  H    0.087628   0.020534
 Sum of Mulliken charges =  -1.00000   1.00000

 Dipole moment (field-independent basis, Debye):
    X=            -13.7596    Y=             -1.5316    Z=             -0.6064  Tot=             13.8579
 Quadrupole moment (field-independent basis, Debye-Ang):
   XX=           -237.0515   YY=           -133.5385   ZZ=           -122.8173
   XY=            -22.0563   XZ=             -3.1602   YZ=             -1.7751

 Summary of Natural Population Analysis:

                                       Natural Population
                Natural  -----------------------------------------------
    Atom  No    Charge         Core      Valence    Rydberg      Total
 -----------------------------------------------------------------------
      C    1   -0.28734      0.99966     2.28293    0.00475     3.28734
      C    2   -0.12380      0.99961     2.11697    0.00722     3.12380
      C    3   -0.28509      0.99965     2.28067    0.00478     3.28509
      C    4   -0.09016      0.99959     2.07787    0.01270     3.09016
      N    5   -0.31679      0.99966     2.80714    0.01000     3.81679
      C    6    0.35410      0.99967     1.62445    0.02178     2.64590
      O    7   -0.32380      0.99987     3.31783    0.00609     4.32380
      C    8   -0.27888      0.99955     2.27146    0.00787     3.27888
      C    9    0.37817      0.99968     1.60091    0.02124     2.62183
      O   10   -0.31929      0.99987     3.31331    0.00610     4.31929
      N   11   -0.31814      0.99965     2.80926    0.00923     3.81814
      C   12    0.13709      0.99947     1.85219    0.01125     2.86291
      C   13   -0.13503      0.99953     2.12758    0.00793     3.13503
      C   14   -0.04274      0.99955     2.03565    0.00753     3.04274
      C   15   -0.06426      0.99942     2.05437    0.01047     3.06426
      C   16   -0.06650      0.99955     2.05918    0.00777     3.06650
      C   17   -0.12110      0.99954     2.11342    0.00815     3.12110
      C   18    0.14903      0.99964     1.83306    0.01826     2.85097
      N   19   -0.17384      0.99979     2.66281    0.01124     3.67384
      H   20    0.09264      0.00000     0.40641    0.00095     0.40736
      H   21    0.09767      0.00000     0.40142    0.00091     0.40233
      H   22    0.09937      0.00000     0.39976    0.00087     0.40063
      H   23    0.11104      0.00000     0.38692    0.00203     0.38896
      H   24    0.09117      0.00000     0.40784    0.00099     0.40883
      H   25    0.10822      0.00000     0.39093    0.00085     0.39178
      H   26    0.09750      0.00000     0.40168    0.00083     0.40250
      H   27    0.11413      0.00000     0.38449    0.00138     0.38587
      H   28    0.08650      0.00000     0.41250    0.00099     0.41350
      H   29    0.18986      0.00000     0.30763    0.00251     0.31014
      H   30    0.11294      0.00000     0.38577    0.00129     0.38706
      H   31    0.12409      0.00000     0.37478    0.00113     0.37591
      H   32    0.19489      0.00000     0.30246    0.00265     0.30511
      H   33    0.12007      0.00000     0.37841    0.00152     0.37993
      H   34    0.09756      0.00000     0.40162    0.00082     0.40244
      H   35    0.09724      0.00000     0.40188    0.00089     0.40276
      H   36    0.09348      0.00000     0.40518    0.00134     0.40652
 =======================================================================
   * Total *    0.00000     18.99294    49.79074    0.21631    69.00000

 Normal termination of Gaussian 16 at Sun Dec 13 13:50:11 2020.
