 Gaussian 16, Revision A.03,

 -----------------------------------------------------------
 # opt freq B3LYP/6-31G(d) empiricaldispersion=gd3bj scf=xqc
 -----------------------------------------------------------

 -------------------------------
 CID_142996171_JID_2403_neutraal
 -------------------------------
 Symbolic Z-matrix:
 Charge =  0 Multiplicity = 1

 SCF Done:  E(RB3LYP) =  -589.273630626     A.U. after   14 cycles
 SCF Done:  E(RB3LYP) =  -589.278181547     A.U. after   13 cycles
 SCF Done:  E(RB3LYP) =  -589.278000234     A.U. after   14 cycles
 SCF Done:  E(RB3LYP) =  -589.282527731     A.U. after   14 cycles
 SCF Done:  E(RB3LYP) =  -589.283170027     A.U. after   12 cycles
 SCF Done:  E(RB3LYP) =  -589.283394997     A.U. after   13 cycles
 SCF Done:  E(RB3LYP) =  -589.283500817     A.U. after   12 cycles
 SCF Done:  E(RB3LYP) =  -589.283514083     A.U. after   11 cycles
 SCF Done:  E(RB3LYP) =  -589.283571496     A.U. after   11 cycles
 SCF Done:  E(RB3LYP) =  -589.283579016     A.U. after   10 cycles
 SCF Done:  E(RB3LYP) =  -589.283582445     A.U. after   10 cycles
 SCF Done:  E(RB3LYP) =  -589.283583388     A.U. after    9 cycles
 SCF Done:  E(RB3LYP) =  -589.283583799     A.U. after    8 cycles
 SCF Done:  E(RB3LYP) =  -589.283583970     A.U. after    8 cycles
 SCF Done:  E(RB3LYP) =  -589.283584005     A.U. after    8 cycles
 Optimization completed.
    -- Stationary point found.
 Normal termination of Gaussian 16 at Wed Dec  9 19:07:43 2020.

 --------------------------------------------------------------------
 #N Geom=AllCheck Guess=TCheck SCRF=Check GenChk RB3LYP/6-31G(d) Freq
 --------------------------------------------------------------------

 Structure from the checkpoint file:  "JID_2403.chk"
 -------------------------------
 CID_142996171_JID_2403_neutraal
 -------------------------------
 Charge =  0 Multiplicity = 1

 SCF Done:  E(RB3LYP) =  -589.283584005     A.U. after    1 cycles

  Exact polarizability: 149.496 -17.744 107.344 -13.414   4.467  65.403
 Approx polarizability: 214.406 -50.330 174.793 -30.382  16.949 103.003

                      1                      2                      3
                      A                      A                      A
 Frequencies --     29.9190                35.2446                58.4050
 Red. masses --      6.5296                 4.4517                 6.9986
 Frc consts  --      0.0034                 0.0033                 0.0141
 IR Inten    --      0.9873                 0.9900                 1.0185

                      4                      5                      6
                      A                      A                      A
 Frequencies --     81.9098               134.8200               154.7905
 Red. masses --      2.9452                 4.1529                 1.9887
 Frc consts  --      0.0116                 0.0445                 0.0281
 IR Inten    --      0.8279                 0.0701                 1.6221

                      7                      8                      9
                      A                      A                      A
 Frequencies --    200.4125               225.7751               259.1616
 Red. masses --      2.0085                 3.6027                 2.8409
 Frc consts  --      0.0475                 0.1082                 0.1124
 IR Inten    --      4.3590                 1.5056                 8.8311

                     10                     11                     12
                      A                      A                      A
 Frequencies --    286.3174               345.2072               380.6144
 Red. masses --      3.6149                 3.8135                 2.4160
 Frc consts  --      0.1746                 0.2678                 0.2062
 IR Inten    --      1.5603                 0.9770                 6.7518

                     13                     14                     15
                      A                      A                      A
 Frequencies --    402.2105               423.3220               472.5255
 Red. masses --      3.7833                 2.8623                 2.4489
 Frc consts  --      0.3606                 0.3022                 0.3222
 IR Inten    --      5.8622                 0.8015                17.8103

                     16                     17                     18
                      A                      A                      A
 Frequencies --    500.8723               553.9783               594.8157
 Red. masses --      1.2231                 2.2141                 4.3640
 Frc consts  --      0.1808                 0.4003                 0.9097
 IR Inten    --    206.3634                23.9592                40.4446

                     19                     20                     21
                      A                      A                      A
 Frequencies --    643.6545               677.4251               684.3905
 Red. masses --      2.8199                 1.6779                 1.7039
 Frc consts  --      0.6883                 0.4537                 0.4702
 IR Inten    --     23.7752               127.4445                 2.8869

                     22                     23                     24
                      A                      A                      A
 Frequencies --    738.2186               772.4594               774.4973
 Red. masses --      1.7519                 1.5423                 1.6423
 Frc consts  --      0.5625                 0.5422                 0.5804
 IR Inten    --     90.7664                 9.5112               129.9008

                     25                     26                     27
                      A                      A                      A
 Frequencies --    779.8632               827.9352               860.5997
 Red. masses --      2.6812                 3.5308                 2.1032
 Frc consts  --      0.9608                 1.4260                 0.9178
 IR Inten    --     44.9556                12.5164                 6.0233

                     28                     29                     30
                      A                      A                      A
 Frequencies --    883.3889               932.9332               978.0857
 Red. masses --      2.3670                 1.3344                 2.8678
 Frc consts  --      1.0883                 0.6843                 1.6164
 IR Inten    --     43.8541               100.5343                13.0470

                     31                     32                     33
                      A                      A                      A
 Frequencies --   1010.3736              1041.5918              1096.4118
 Red. masses --      1.7090                 1.8649                 2.4012
 Frc consts  --      1.0279                 1.1920                 1.7007
 IR Inten    --      0.6740                43.4281                37.9883

                     34                     35                     36
                      A                      A                      A
 Frequencies --   1138.3971              1166.8398              1190.0562
 Red. masses --      1.7345                 1.3767                 1.6440
 Frc consts  --      1.3244                 1.1044                 1.3717
 IR Inten    --      1.2128                12.2370                37.0882

                     37                     38                     39
                      A                      A                      A
 Frequencies --   1209.1647              1217.0953              1244.6059
 Red. masses --      1.9810                 2.0912                 1.3265
 Frc consts  --      1.7065                 1.8251                 1.2106
 IR Inten    --     50.8085               363.4644                 9.6679

                     40                     41                     42
                      A                      A                      A
 Frequencies --   1307.2430              1322.8330              1356.1835
 Red. masses --      1.5125                 1.4947                 1.6356
 Frc consts  --      1.5229                 1.5410                 1.7724
 IR Inten    --     23.1941                17.8807               105.8210

                     43                     44                     45
                      A                      A                      A
 Frequencies --   1375.0196              1404.7488              1470.3410
 Red. masses --      1.2820                 1.2716                 2.0311
 Frc consts  --      1.4281                 1.4784                 2.5871
 IR Inten    --     12.2253                26.7999                87.0692

                     46                     47                     48
                      A                      A                      A
 Frequencies --   1480.0692              1483.8097              1508.3257
 Red. masses --      1.5411                 1.8022                 1.1055
 Frc consts  --      1.9891                 2.3378                 1.4818
 IR Inten    --      2.1481                 3.1870                 3.5475

                     49                     50                     51
                      A                      A                      A
 Frequencies --   1513.4546              1527.8472              1532.4110
 Red. masses --      1.1061                 1.0985                 1.1390
 Frc consts  --      1.4927                 1.5109                 1.5759
 IR Inten    --      7.2717                 3.5621                19.1220

                     52                     53                     54
                      A                      A                      A
 Frequencies --   1553.6149              1623.4489              1656.0621
 Red. masses --      1.0971                 6.3766                 2.2802
 Frc consts  --      1.5602                 9.9019                 3.6845
 IR Inten    --     15.9489                69.6114               150.6604

                     55                     56                     57
                      A                      A                      A
 Frequencies --   1712.8838              1796.3453              2926.7457
 Red. masses --      1.9367                 6.7391                 1.0640
 Frc consts  --      3.3478                12.8125                 5.3697
 IR Inten    --    448.0065               183.5987               101.8922

                     58                     59                     60
                      A                      A                      A
 Frequencies --   3044.9960              3048.6720              3072.1561
 Red. masses --      1.0606                 1.0673                 1.0683
 Frc consts  --      5.7940                 5.8448                 5.9406
 IR Inten    --     38.7293                27.9901                58.6255

                     61                     62                     63
                      A                      A                      A
 Frequencies --   3093.8769              3112.3669              3122.3500
 Red. masses --      1.1036                 1.0978                 1.1026
 Frc consts  --      6.2241                 6.2654                 6.3332
 IR Inten    --     37.8342                21.6796                26.2927

                     64                     65                     66
                      A                      A                      A
 Frequencies --   3163.8795              3404.3820              3480.3763
 Red. masses --      1.0865                 1.0738                 1.0557
 Frc consts  --      6.4082                 7.3324                 7.5341
 IR Inten    --     10.0759                 9.0696               188.4488

                     67                     68                     69
                      A                      A                      A
 Frequencies --   3508.9827              3646.2147              3680.1252
 Red. masses --      1.0737                 1.0931                 1.0639
 Frc consts  --      7.7890                 8.5624                 8.4890
 IR Inten    --      1.5334                78.2294                52.2865

 - Thermochemistry -
 -------------------
 Temperature   298.150 Kelvin.  Pressure   1.00000 Atm.
 Atom     1 has atomic number  6 and mass  12.00000

 Molecular mass:   171.10078 amu.
 Principal axes and moments of inertia in atomic units:
                           1         2         3
     Eigenvalues --   969.577174140.209714635.42031
           X            0.99998  -0.00595  -0.00318
           Y            0.00594   0.99997  -0.00434
           Z            0.00320   0.00432   0.99999
 This molecule is an asymmetric top.
 Rotational symmetry number  1.
 Warning -- assumption of classical behavior for rotation
           may cause significant error
 Rotational temperatures (Kelvin)      0.08933     0.02092     0.01869
 Rotational constants (GHZ):           1.86137     0.43591     0.38934
 Zero-point vibrational energy     555893.0 (Joules/Mol)
                                  132.86162 (Kcal/Mol)
 Warning -- explicit consideration of  18 degrees of freedom as
           vibrations may cause significant error
 Vibrational temperatures:     43.05    50.71    84.03   117.85   193.98
          (Kelvin)            222.71   288.35   324.84   372.88   411.95
                              496.68   547.62   578.69   609.07   679.86
                              720.64   797.05   855.81   926.08   974.66
                              984.69  1062.13  1111.40  1114.33  1122.05
                             1191.21  1238.21  1271.00  1342.28  1407.25
                             1453.70  1498.62  1577.49  1637.90  1678.82
                             1712.23  1739.72  1751.13  1790.71  1880.83
                             1903.26  1951.25  1978.35  2021.12  2115.49
                             2129.49  2134.87  2170.14  2177.52  2198.23
                             2204.80  2235.31  2335.78  2382.70  2464.46
                             2584.54  4210.93  4381.07  4386.36  4420.15
                             4451.40  4478.00  4492.37  4552.12  4898.15
                             5007.49  5048.64  5246.09  5294.88

 Zero-point correction=                           0.211728 (Hartree/Particle)
 Thermal correction to Energy=                    0.224600
 Thermal correction to Enthalpy=                  0.225544
 Thermal correction to Gibbs Free Energy=         0.170964
 Sum of electronic and zero-point Energies=           -589.071856
 Sum of electronic and thermal Energies=              -589.058984
 Sum of electronic and thermal Enthalpies=            -589.058040
 Sum of electronic and thermal Free Energies=         -589.112620

                     E (Thermal)             CV                S
                      KCal/Mol        Cal/Mol-Kelvin    Cal/Mol-Kelvin
 Total                  140.938             47.133            114.873
 Electronic               0.000              0.000              0.000
 Translational            0.889              2.981             41.319
 Rotational               0.889              2.981             31.298
 Vibrational            139.161             41.171             42.256
 Vibration     1          0.594              1.984              5.835
 Vibration     2          0.594              1.982              5.510
 Vibration     3          0.596              1.974              4.510
 Vibration     4          0.600              1.962              3.845
 Vibration     5          0.613              1.919              2.876
 Vibration     6          0.620              1.897              2.612
 Vibration     7          0.638              1.839              2.129
 Vibration     8          0.650              1.802              1.912
 Vibration     9          0.668              1.747              1.667
 Vibration    10          0.684              1.699              1.496
 Vibration    11          0.724              1.585              1.188
 Vibration    12          0.750              1.512              1.037
 Vibration    13          0.768              1.465              0.955
 Vibration    14          0.785              1.420              0.881
 Vibration    15          0.829              1.311              0.731
 Vibration    16          0.856              1.248              0.656
 Vibration    17          0.909              1.131              0.536
 Vibration    18          0.953              1.043              0.459

 Optimization completed.
    -- Stationary point found.
 Normal termination of Gaussian 16 at Wed Dec  9 19:28:02 2020.

 ----------------------------------------------------------------------
 # B3LYP/6-311++G(d,p) empiricaldispersion=gd3bj scf=xqc pop=npa geom=c
 heck
 ----------------------------------------------------------------------

 ---------------------------------------
 CID_142996171_JID_2403_Energie_neutraal
 ---------------------------------------
 Structure from the checkpoint file:  "JID_2403.chk"
 Charge =  0 Multiplicity = 1

 SCF Done:  E(RB3LYP) =  -589.475580601     A.U. after   15 cycles
 Normal termination of Gaussian 16 at Wed Dec  9 19:32:34 2020.

 ----------------------------------------------------------------------
 # B3LYP/6-311++G(d,p) empiricaldispersion=gd3bj scf=xqc pop=npa geom=c
 heck
 ----------------------------------------------------------------------

 -------------------------------------
 CID_142996171_JID_2403_Energie_kation
 -------------------------------------
 Structure from the checkpoint file:  "JID_2403.chk"
 Charge =  1 Multiplicity = 2

 SCF Done:  E(UB3LYP) =  -589.193410686     A.U. after   22 cycles
 Normal termination of Gaussian 16 at Wed Dec  9 19:40:10 2020.
 Gaussian 16:  ES64L-G16RevA.03 25-Dec-2016

 ----------------------------------------------------------------------
 # B3LYP/6-311++G(d,p) empiricaldispersion=gd3bj scf=xqc pop=npa geom=c
 heck
 ----------------------------------------------------------------------

 ------------------------------------
 CID_142996171_JID_2403_Energie_anion
 ------------------------------------
 Structure from the checkpoint file:  "JID_2403.chk"
 Charge = -1 Multiplicity = 2

                         Standard orientation:
 ---------------------------------------------------------------------
 Center     Atomic      Atomic             Coordinates (Angstroms)
 Number     Number       Type             X           Y           Z
 ---------------------------------------------------------------------
      1          6           0        4.000202   -0.998232    0.160398
      2          7           0        3.060553   -0.312503    1.033281
      3          6           0        2.634448    0.997399    0.568315
      4          6           0        1.797828    1.052850   -0.743278
      5          6           0        0.473325    0.340585   -0.603736
      6          6           0       -0.644452    1.081766   -0.321833
      7          6           0       -2.031198    0.768534   -0.013725
      8          7           0       -2.950054    1.651996    0.196572
      9          6           0       -2.547291   -0.654945    0.061604
     10          8           0       -2.105962   -1.609451   -0.561458
     11          8           0       -3.599600   -0.787007    0.878333
     12          7           0        0.564894   -1.023202   -0.667926
     13          1           0        4.908834   -0.392992    0.060409
     14          1           0        3.637438   -1.209673   -0.864847
     15          1           0        4.283432   -1.953613    0.613395
     16          1           0        2.242837   -0.897926    1.189575
     17          1           0        2.044104    1.464665    1.364954
     18          1           0        3.531757    1.613247    0.425362
     19          1           0        1.628661    2.102668   -0.999990
     20          1           0        2.373345    0.612519   -1.568165
     21          1           0       -0.465468    2.153909   -0.288034
     22          1           0       -2.550753    2.591170    0.081565
     23          1           0       -3.867282   -1.723427    0.811792
     24          1           0        1.361216   -1.396074   -1.166000
     25          1           0       -0.308544   -1.534594   -0.774976
 ---------------------------------------------------------------------

 SCF Done:  E(UB3LYP) =  -589.483688569     A.U. after   28 cycles

 The electronic state is 2-A.
 Alpha  occ. eigenvalues --  -19.02895 -18.96687 -14.18890 -14.18217 -14.11672
 Alpha  occ. eigenvalues --  -10.14726 -10.08670 -10.08285 -10.07383 -10.05490
 Alpha  occ. eigenvalues --  -10.05377 -10.01797  -0.97244  -0.87669  -0.80321
 Alpha  occ. eigenvalues --   -0.78373  -0.74209  -0.65178  -0.59965  -0.56573
 Alpha  occ. eigenvalues --   -0.53272  -0.50425  -0.45204  -0.41921  -0.40256
 Alpha  occ. eigenvalues --   -0.38982  -0.36077  -0.35329  -0.33946  -0.32096
 Alpha  occ. eigenvalues --   -0.31963  -0.30984  -0.30004  -0.28159  -0.27394
 Alpha  occ. eigenvalues --   -0.26992  -0.24695  -0.24260  -0.22211  -0.21526
 Alpha  occ. eigenvalues --   -0.18987  -0.17989  -0.15081  -0.12311  -0.10833
 Alpha  occ. eigenvalues --   -0.07186   0.04364
 Alpha virt. eigenvalues --    0.06710   0.08449   0.09243   0.09497   0.10010
 Alpha virt. eigenvalues --    0.11407   0.11937   0.12643   0.12910   0.13752
 Alpha virt. eigenvalues --    0.14175   0.15215   0.15592   0.16876   0.17210

  Beta  occ. eigenvalues --  -19.02845 -18.96472 -14.18886 -14.18168 -14.11077
  Beta  occ. eigenvalues --  -10.14495 -10.08643 -10.08255 -10.07159 -10.05499
  Beta  occ. eigenvalues --  -10.05249 -10.01871  -0.97001  -0.87352  -0.80252
  Beta  occ. eigenvalues --   -0.78242  -0.73315  -0.65049  -0.59785  -0.56419
  Beta  occ. eigenvalues --   -0.52640  -0.50314  -0.44874  -0.41703  -0.40165
  Beta  occ. eigenvalues --   -0.38940  -0.35866  -0.35141  -0.33750  -0.31900
  Beta  occ. eigenvalues --   -0.31595  -0.30552  -0.29496  -0.28114  -0.27300
  Beta  occ. eigenvalues --   -0.26849  -0.24625  -0.24100  -0.22044  -0.20930
  Beta  occ. eigenvalues --   -0.18166  -0.16337  -0.14739  -0.12190  -0.10133
  Beta  occ. eigenvalues --   -0.05996
  Beta virt. eigenvalues --    0.06951   0.08646   0.09387   0.09585   0.10083
  Beta virt. eigenvalues --    0.10759   0.11418   0.12032   0.12827   0.12937
  Beta virt. eigenvalues --    0.14209   0.14496   0.15446   0.15982   0.16912

 Mulliken charges and spin densities:
               1          2
     1  C    0.209255  -0.622302
     2  N   -0.248433   0.068693
     3  C   -0.236094  -0.286207
     4  C   -0.294478  -0.042487
     5  C    0.174077   0.370616
     6  C    0.333927  -0.439122
     7  C   -0.385569   0.003117
     8  N   -0.337173   0.320757
     9  C   -0.139097   0.135081
    10  O   -0.406434   0.066846
    11  O   -0.143998   0.004952
    12  N   -0.504994   0.052055
    13  H   -0.141438   0.284321
    14  H   -0.142365   0.224364
    15  H    0.049396   0.087733
    16  H    0.258983   0.007664
    17  H    0.152425   0.022907
    18  H   -0.103532   0.225297
    19  H   -0.043963   0.215187
    20  H   -0.071297   0.222030
    21  H    0.138942  -0.026051
    22  H    0.149819   0.001865
    23  H    0.245329  -0.000306
    24  H    0.143718   0.102738
    25  H    0.342996   0.000254
 Sum of Mulliken charges =  -1.00000   1.00000

 Dipole moment (field-independent basis, Debye):
    X=              2.3866    Y=             -2.0163    Z=              0.1721  Tot=              3.1291
 Quadrupole moment (field-independent basis, Debye-Ang):
   XX=           -135.9721   YY=            -87.4736   ZZ=            -90.2569
   XY=              7.5720   XZ=              0.6743   YZ=             -3.3163

 Summary of Natural Population Analysis:

                                       Natural Population
                Natural  -----------------------------------------------
    Atom  No    Charge         Core      Valence    Rydberg      Total
 -----------------------------------------------------------------------
      C    1   -0.18056      0.99966     2.17170    0.00920     3.18056
      N    2   -0.34468      0.99976     2.83324    0.01168     3.84468
      C    3   -0.08232      0.99963     2.06914    0.01355     3.08232
      C    4   -0.21434      0.99960     2.20538    0.00936     3.21434
      C    5    0.13923      0.99953     1.84768    0.01357     2.86077
      C    6   -0.20067      0.99948     2.19084    0.01035     3.20067
      C    7    0.07480      0.99957     1.91073    0.01490     2.92520
      N    8   -0.22188      0.99973     2.71380    0.00835     3.72188
      C    9    0.43007      0.99969     1.54456    0.02568     2.56993
      O   10   -0.32884      0.99986     3.32200    0.00699     4.32884
      O   11   -0.32957      0.99987     3.32325    0.00645     4.32957
      N   12   -0.40650      0.99968     2.89654    0.01028     3.90650
      H   13    0.09062      0.00000     0.40821    0.00117     0.40938
      H   14    0.07509      0.00000     0.42316    0.00175     0.42491
      H   15    0.09119      0.00000     0.40784    0.00097     0.40881
      H   16    0.18116      0.00000     0.31632    0.00252     0.31884
      H   17    0.09475      0.00000     0.40412    0.00113     0.40525
      H   18    0.08737      0.00000     0.41123    0.00140     0.41263
      H   19    0.10370      0.00000     0.39506    0.00124     0.39630
      H   20    0.09538      0.00000     0.40303    0.00159     0.40462
      H   21    0.08962      0.00000     0.40825    0.00213     0.41038
      H   22    0.14043      0.00000     0.35729    0.00228     0.35957
      H   23    0.22581      0.00000     0.26963    0.00456     0.27419
      H   24    0.18020      0.00000     0.31836    0.00144     0.31980
      H   25    0.20994      0.00000     0.28757    0.00249     0.29006
 =======================================================================
   * Total *    0.00000     11.99606    33.83891    0.16503    46.00000

 Normal termination of Gaussian 16 at Wed Dec  9 19:51:52 2020.
