 Gaussian 16, Revision A.03,

 -----------------------------------------------------------
 # opt freq B3LYP/6-31G(d) empiricaldispersion=gd3bj scf=xqc
 -----------------------------------------------------------

 ------------------------------
 CID_149039804_JID_571_neutraal
 ------------------------------
 Symbolic Z-matrix:
 Charge =  0 Multiplicity = 1

 SCF Done:  E(RB3LYP) =  -461.142259924     A.U. after   16 cycles
 SCF Done:  E(RB3LYP) =  -461.170548263     A.U. after   14 cycles
 SCF Done:  E(RB3LYP) =  -461.190369574     A.U. after   13 cycles
 SCF Done:  E(RB3LYP) =  -461.201519724     A.U. after   13 cycles
 SCF Done:  E(RB3LYP) =  -461.206042929     A.U. after   14 cycles
 SCF Done:  E(RB3LYP) =  -461.207883881     A.U. after   12 cycles
 SCF Done:  E(RB3LYP) =  -461.209297030     A.U. after   12 cycles
 SCF Done:  E(RB3LYP) =  -461.210568866     A.U. after   12 cycles
 SCF Done:  E(RB3LYP) =  -461.211199696     A.U. after   12 cycles
 SCF Done:  E(RB3LYP) =  -461.211351162     A.U. after   11 cycles
 SCF Done:  E(RB3LYP) =  -461.211469924     A.U. after    8 cycles
 SCF Done:  E(RB3LYP) =  -461.211470595     A.U. after    8 cycles
 SCF Done:  E(RB3LYP) =  -461.211470659     A.U. after    7 cycles
 SCF Done:  E(RB3LYP) =  -461.211470700     A.U. after    7 cycles
 SCF Done:  E(RB3LYP) =  -461.211470738     A.U. after    7 cycles
 Optimization completed.
    -- Stationary point found.

 1\1\GINC-NODE375\FOpt\RB3LYP\6-31G(d)\C8H10O2\VSC10255\08-Dec-2020\0\\
 # opt freq B3LYP/6-31G(d) empiricaldispersion=gd3bj scf=xqc\\CID_14903
 9804_JID_571_neutraal\\0,1\C,-1.8714202874,0.8244120297,0.2292122466\C
 ,-1.5151360756,-0.6417186475,-0.1652039341\C,-0.4661020463,-1.30823588
 02,0.6953474969\C,0.6489900609,-0.6484476587,1.0800579487\C,0.60416922
 11,0.7453305146,0.6984446151\C,0.6264766639,1.7337033243,-0.1571537526
 \C,-0.6332997227,1.615102476,0.6559409802\C,1.3089650528,2.4120729941,
 -1.2852867403\O,2.4391803557,1.7029850877,-1.7722514067\O,-0.717576074

 Normal termination of Gaussian 16 at Tue Dec  8 14:13:50 2020.

 --------------------------------------------------------------------
 #N Geom=AllCheck Guess=TCheck SCRF=Check GenChk RB3LYP/6-31G(d) Freq
 --------------------------------------------------------------------

 Structure from the checkpoint file:  "JID_571.chk"
 ------------------------------
 CID_149039804_JID_571_neutraal
 ------------------------------
 Charge =  0 Multiplicity = 1

 SCF Done:  E(RB3LYP) =  -461.211470738     A.U. after    1 cycles

  Exact polarizability: 107.560  -5.848  84.388   3.133   6.073  66.282
 Approx polarizability: 158.899 -10.737 124.406   5.160  12.838 105.570

                      1                      2                      3
                      A                      A                      A
 Frequencies --     41.3932                74.6488               115.6322
 Red. masses --      5.0271                 2.8231                 2.6168
 Frc consts  --      0.0051                 0.0093                 0.0206
 IR Inten    --      0.3866                 3.0297                 2.5535

                      4                      5                      6
                      A                      A                      A
 Frequencies --    166.2402               195.4830               272.1912
 Red. masses --      2.5375                 2.8896                 1.3639
 Frc consts  --      0.0413                 0.0651                 0.0595
 IR Inten    --      9.4279                 2.9190               104.4161

                      7                      8                      9
                      A                      A                      A
 Frequencies --    358.8976               405.5111               413.5038
 Red. masses --      2.6506                 4.0607                 3.9967
 Frc consts  --      0.2012                 0.3934                 0.4026
 IR Inten    --     40.4570                19.4470                 2.8773

                     10                     11                     12
                      A                      A                      A
 Frequencies --    432.2672               469.3331               491.8565
 Red. masses --      2.1035                 1.5692                 3.2816
 Frc consts  --      0.2316                 0.2037                 0.4678
 IR Inten    --     30.0580                74.0600                21.2696

                     13                     14                     15
                      A                      A                      A
 Frequencies --    504.7345               578.1188               673.3132
 Red. masses --      2.4639                 3.7358                 3.2699
 Frc consts  --      0.3698                 0.7356                 0.8734
 IR Inten    --      4.4620                21.0993                27.7387

                     16                     17                     18
                      A                      A                      A
 Frequencies --    748.9044               787.4222               800.2562
 Red. masses --      1.8864                 2.2849                 4.4779
 Frc consts  --      0.6233                 0.8347                 1.6896
 IR Inten    --     25.3495                 2.8148                 8.2748

                     19                     20                     21
                      A                      A                      A
 Frequencies --    847.6678               858.4686               958.2888
 Red. masses --      3.1004                 4.0514                 2.3163
 Frc consts  --      1.3125                 1.7592                 1.2532
 IR Inten    --      9.1161                 6.6852                14.3711

                     22                     23                     24
                      A                      A                      A
 Frequencies --    978.7638              1003.1767              1026.6219
 Red. masses --      1.5368                 2.0671                 1.6207
 Frc consts  --      0.8674                 1.2257                 1.0064
 IR Inten    --     14.8097                 1.4545                 9.9511

                     25                     26                     27
                      A                      A                      A
 Frequencies --   1067.2067              1074.0689              1153.5752
 Red. masses --      3.9560                 2.3738                 3.5525
 Frc consts  --      2.6546                 1.6134                 2.7853
 IR Inten    --     68.8691                24.2241                11.9769

                     28                     29                     30
                      A                      A                      A
 Frequencies --   1185.2932              1197.8115              1220.6059
 Red. masses --      1.4857                 2.0089                 1.1894
 Frc consts  --      1.2298                 1.6982                 1.0441
 IR Inten    --     97.1701                97.2777                17.3261

                     31                     32                     33
                      A                      A                      A
 Frequencies --   1223.5099              1246.2023              1286.8364
 Red. masses --      1.2031                 1.5704                 1.9833
 Frc consts  --      1.0611                 1.4370                 1.9350
 IR Inten    --      1.5729                16.4682                29.0524

                     34                     35                     36
                      A                      A                      A
 Frequencies --   1346.4000              1365.5363              1371.7346
 Red. masses --      1.2055                 1.4278                 1.2778
 Frc consts  --      1.2875                 1.5687                 1.4166
 IR Inten    --      1.2553                15.3889                 3.4027

                     37                     38                     39
                      A                      A                      A
 Frequencies --   1397.2953              1431.2645              1447.9802
 Red. masses --      1.3468                 1.3025                 2.0670
 Frc consts  --      1.5493                 1.5720                 2.5534
 IR Inten    --     15.1891                87.6464                 1.7268

                     40                     41                     42
                      A                      A                      A
 Frequencies --   1504.4741              1516.7229              1520.8600
 Red. masses --      1.1018                 1.0799                 1.0957
 Frc consts  --      1.4693                 1.4637                 1.4932
 IR Inten    --      4.2819                 0.8611                 1.6083

                     43                     44                     45
                      A                      A                      A
 Frequencies --   1677.4146              1916.5535              2966.3251
 Red. masses --      6.9246                11.1682                 1.0736
 Frc consts  --     11.4796                24.1699                 5.5660
 IR Inten    --    186.9785                19.6218                78.4783

                     46                     47                     48
                      A                      A                      A
 Frequencies --   3030.1717              3035.9347              3058.2922
 Red. masses --      1.0701                 1.0619                 1.0865
 Frc consts  --      5.7889                 5.7667                 5.9873
 IR Inten    --     12.9903                35.1566                65.8492

                     49                     50                     51
                      A                      A                      A
 Frequencies --   3074.9808              3076.3086              3110.9273
 Red. masses --      1.0879                 1.0993                 1.0940
 Frc consts  --      6.0608                 6.1298                 6.2382
 IR Inten    --     13.1790                63.3388                22.3314

                     52                     53                     54
                      A                      A                      A
 Frequencies --   3178.1937              3723.7705              3742.4858
 Red. masses --      1.0915                 1.0653                 1.0661
 Frc consts  --      6.4958                 8.7036                 8.7973
 IR Inten    --     38.2426                28.4414                11.3181

 - Thermochemistry -
 -------------------
 Temperature   298.150 Kelvin.  Pressure   1.00000 Atm.
 Atom     1 has atomic number  6 and mass  12.00000

 Molecular mass:   138.06808 amu.
 Principal axes and moments of inertia in atomic units:
                           1         2         3
     Eigenvalues --   759.502732100.201822455.90674
           X            1.00000  -0.00059   0.00296
           Y            0.00047   0.99915   0.04113
           Z           -0.00299  -0.04113   0.99915
 This molecule is an asymmetric top.
 Rotational symmetry number  1.
 Warning -- assumption of classical behavior for rotation
           may cause significant error
 Rotational temperatures (Kelvin)      0.11404     0.04124     0.03527
 Rotational constants (GHZ):           2.37621     0.85932     0.73486
 Zero-point vibrational energy     432757.7 (Joules/Mol)
                                  103.43156 (Kcal/Mol)
 Warning -- explicit consideration of  14 degrees of freedom as
           vibrations may cause significant error
 Vibrational temperatures:     59.56   107.40   166.37   239.18   281.26
          (Kelvin)            391.62   516.37   583.44   594.94   621.94
                              675.27   707.67   726.20   831.78   968.75
                             1077.51  1132.92  1151.39  1219.60  1235.14
                             1378.76  1408.22  1443.35  1477.08  1535.47
                             1545.35  1659.74  1705.37  1723.38  1756.18
                             1760.36  1793.01  1851.47  1937.17  1964.70
                             1973.62  2010.40  2059.27  2083.32  2164.60
                             2182.23  2188.18  2413.43  2757.49  4267.88
                             4359.74  4368.03  4400.20  4424.21  4426.12
                             4475.93  4572.71  5357.68  5384.60

 Zero-point correction=                           0.164829 (Hartree/Particle)
 Thermal correction to Energy=                    0.174637
 Thermal correction to Enthalpy=                  0.175581
 Thermal correction to Gibbs Free Energy=         0.129135
 Sum of electronic and zero-point Energies=           -461.046642
 Sum of electronic and thermal Energies=              -461.036834
 Sum of electronic and thermal Enthalpies=            -461.035890
 Sum of electronic and thermal Free Energies=         -461.082336

                     E (Thermal)             CV                S
                      KCal/Mol        Cal/Mol-Kelvin    Cal/Mol-Kelvin
 Total                  109.586             36.593             97.754
 Electronic               0.000              0.000              0.000
 Translational            0.889              2.981             40.680
 Rotational               0.889              2.981             29.750
 Vibrational            107.809             30.632             27.324
 Vibration     1          0.594              1.981              5.191
 Vibration     2          0.599              1.966              4.027
 Vibration     3          0.608              1.936              3.172
 Vibration     4          0.624              1.884              2.478
 Vibration     5          0.636              1.846              2.175
 Vibration     6          0.675              1.725              1.582
 Vibration     7          0.734              1.557              1.127
 Vibration     8          0.770              1.458              0.943
 Vibration     9          0.777              1.441              0.914
 Vibration    10          0.793              1.400              0.851
 Vibration    11          0.826              1.318              0.739
 Vibration    12          0.848              1.268              0.679
 Vibration    13          0.860              1.240              0.646
 Vibration    14          0.935              1.079              0.489

 Optimization completed.
    -- Stationary point found.

 1\1\GINC-NODE375\Freq\RB3LYP\6-31G(d)\C8H10O2\VSC10255\08-Dec-2020\0\\
 #N Geom=AllCheck Guess=TCheck SCRF=Check GenChk RB3LYP/6-31G(d) Freq\\
 CID_149039804_JID_571_neutraal\\0,1\C,-1.8714202874,0.8244120297,0.229
 2122466\C,-1.5151360756,-0.6417186475,-0.1652039341\C,-0.4661020463,-1
 .3082358802,0.6953474969\C,0.6489900609,-0.6484476587,1.0800579487\C,0
 .6041692211,0.7453305146,0.6984446151\C,0.6264766639,1.7337033243,-0.1
 571537526\C,-0.6332997227,1.615102476,0.6559409802\C,1.3089650528,2.41
 20729941,-1.2852867403\O,2.4391803557,1.7029850877,-1.7722514067\O,-0.

 Normal termination of Gaussian 16 at Tue Dec  8 14:16:56 2020.

 ----------------------------------------------------------------------
 # B3LYP/6-311++G(d,p) empiricaldispersion=gd3bj scf=xqc pop=npa geom=c
 heck
 ----------------------------------------------------------------------

 --------------------------------------
 CID_149039804_JID_571_Energie_neutraal
 --------------------------------------
 Structure from the checkpoint file:  "JID_571.chk"
 Charge =  0 Multiplicity = 1

 SCF Done:  E(RB3LYP) =  -461.358472641     A.U. after   15 cycles
 Normal termination of Gaussian 16 at Tue Dec  8 14:18:36 2020.

 ----------------------------------------------------------------------
 # B3LYP/6-311++G(d,p) empiricaldispersion=gd3bj scf=xqc pop=npa geom=c
 heck
 ----------------------------------------------------------------------

 ------------------------------------
 CID_149039804_JID_571_Energie_kation
 ------------------------------------
 Structure from the checkpoint file:  "JID_571.chk"
 Charge =  1 Multiplicity = 2

 SCF Done:  E(UB3LYP) =  -461.069177336     A.U. after   22 cycles
 Normal termination of Gaussian 16 at Tue Dec  8 14:24:09 2020.
 Gaussian 16:  ES64L-G16RevA.03 25-Dec-2016

 -----------------------------------
 CID_149039804_JID_571_Energie_anion
 -----------------------------------
 Structure from the checkpoint file:  "JID_571.chk"
 Charge = -1 Multiplicity = 2

                         Standard orientation:
 ---------------------------------------------------------------------
 Center     Atomic      Atomic             Coordinates (Angstroms)
 Number     Number       Type             X           Y           Z
 ---------------------------------------------------------------------
      1          6           0        0.717136    1.837810    0.170373
      2          6           0        1.489038    0.689748    0.890210
      3          6           0        1.789357   -0.523020    0.039171
      4          6           0        0.861781   -1.041604   -0.795949
      5          6           0       -0.322634   -0.214919   -0.859268
      6          6           0       -1.421106    0.308075   -0.380454
      7          6           0       -0.357028    1.295453   -0.774217
      8          6           0       -2.734382    0.104363    0.277168
      9          8           0       -2.974847   -1.243106    0.656417
     10          8           0        3.011203   -1.070979    0.297917
     11          1           0        1.425553    2.412357   -0.439830
     12          1           0        0.334163    2.526914    0.934530
     13          1           0        2.423703    1.066270    1.316656
     14          1           0        0.873296    0.341864    1.732030
     15          1           0        0.989690   -1.975333   -1.338002
     16          1           0       -0.476591    1.874191   -1.696304
     17          1           0       -2.769387    0.698068    1.198694
     18          1           0       -3.542496    0.489743   -0.369984
     19          1           0       -2.800282   -1.790578   -0.124924
     20          1           0        3.118529   -1.866250   -0.249753
 ---------------------------------------------------------------------

 SCF Done:  E(UB3LYP) =  -461.345066038     A.U. after   33 cycles
 SCF Done:  E(UB3LYP) =  -461.345066038     a.u. after    1 cycles

 The electronic state is 2-A.
 Alpha  occ. eigenvalues --  -19.04443 -19.02191 -10.12816 -10.12768 -10.07979
 Alpha  occ. eigenvalues --  -10.07704 -10.07411 -10.07250 -10.06796 -10.05889
 Alpha  occ. eigenvalues --   -0.95376  -0.92386  -0.78417  -0.68726  -0.64089
 Alpha  occ. eigenvalues --   -0.60969  -0.55589  -0.49409  -0.44740  -0.42852
 Alpha  occ. eigenvalues --   -0.40847  -0.39372  -0.36813  -0.35950  -0.34277
 Alpha  occ. eigenvalues --   -0.31748  -0.29933  -0.29516  -0.26919  -0.26137
 Alpha  occ. eigenvalues --   -0.25793  -0.24512  -0.22494  -0.20111  -0.17657
 Alpha  occ. eigenvalues --   -0.13077  -0.10204   0.04748
 Alpha virt. eigenvalues --    0.06895   0.07644   0.08440   0.09156   0.09674
 Alpha virt. eigenvalues --    0.10455   0.11196   0.11463   0.12144   0.12677
 Alpha virt. eigenvalues --    0.14475   0.15056   0.15849   0.16686   0.17308

  Beta  occ. eigenvalues --  -19.04386 -19.02162 -10.12818 -10.12741 -10.07976
  Beta  occ. eigenvalues --  -10.07700 -10.07405 -10.07228 -10.06784 -10.05843
  Beta  occ. eigenvalues --   -0.95266  -0.92328  -0.78390  -0.68683  -0.64048
  Beta  occ. eigenvalues --   -0.60895  -0.55517  -0.49327  -0.44690  -0.42785
  Beta  occ. eigenvalues --   -0.40793  -0.39291  -0.36768  -0.35907  -0.34238
  Beta  occ. eigenvalues --   -0.31690  -0.29886  -0.29477  -0.26888  -0.26088
  Beta  occ. eigenvalues --   -0.25753  -0.24473  -0.22459  -0.20082  -0.17625
  Beta  occ. eigenvalues --   -0.13055  -0.10162
  Beta virt. eigenvalues --    0.07042   0.08212   0.08510   0.08653   0.09887
  Beta virt. eigenvalues --    0.09969   0.10910   0.11358   0.11631   0.12539
  Beta virt. eigenvalues --    0.13007   0.14628   0.15311   0.15849   0.16811

 Mulliken charges and spin densities:
               1          2
     1  C    0.547270  -1.283172
     2  C    0.284729  -0.439744
     3  C    1.994033  -2.405253
     4  C   -1.632856   1.448367
     5  C    2.392156  -2.901245
     6  C   -1.220379   2.031923
     7  C   -0.487285   0.454580
     8  C    0.272413  -0.452722
     9  O   -0.284599   0.044566
    10  O   -0.248956   0.036742
    11  H    0.046944   0.064065
    12  H   -0.062133   0.208001
    13  H    0.074591   0.110882
    14  H   -0.016814   0.170442
    15  H   -1.444655   1.643761
    16  H   -0.325554   0.498503
    17  H   -0.041581   0.229000
    18  H   -0.350899   0.505163
    19  H   -0.074411   0.331004
    20  H   -0.422015   0.705138
 Sum of Mulliken charges =  -1.00000   1.00000

 Dipole moment (field-independent basis, Debye):
    X=             -1.4511    Y=              5.6806    Z=              2.0416  Tot=              6.2083
 Quadrupole moment (field-independent basis, Debye-Ang):
   XX=           -116.7277   YY=           -101.4874   ZZ=            -88.1386
   XY=              8.3872   XZ=              2.5786   YZ=             -3.5948

 Summary of Natural Population Analysis:

                                       Natural Population
                Natural  -----------------------------------------------
    Atom  No    Charge         Core      Valence    Rydberg      Total
 -----------------------------------------------------------------------
      C    1   -0.19335      0.99962     2.18617    0.00756     3.19335
      C    2   -0.21510      0.99959     2.20770    0.00781     3.21510
      C    3    0.18661      0.99941     1.79963    0.01435     2.81339
      C    4   -0.18242      0.99939     2.16987    0.01316     3.18242
      C    5    0.00552      0.99935     1.98153    0.01360     2.99448
      C    6   -0.01579      0.99931     2.00227    0.01420     3.01579
      C    7   -0.11084      0.99959     2.10042    0.01083     3.11084
      C    8   -0.02338      0.99954     2.01210    0.01175     3.02338
      O    9   -0.36341      0.99990     3.35712    0.00639     4.36341
      O   10   -0.34221      0.99988     3.33450    0.00783     4.34221
      H   11    0.09635      0.00000     0.40205    0.00160     0.40365
      H   12    0.09581      0.00000     0.40286    0.00134     0.40419
      H   13    0.10771      0.00000     0.39097    0.00132     0.39229
      H   14    0.10671      0.00000     0.39190    0.00140     0.39329
      H   15    0.11346      0.00000     0.38038    0.00615     0.38654
      H   16    0.08204      0.00000     0.41590    0.00206     0.41796
      H   17    0.09424      0.00000     0.40394    0.00181     0.40576
      H   18    0.08418      0.00000     0.41354    0.00228     0.41582
      H   19    0.23125      0.00000     0.26404    0.00470     0.26875
      H   20    0.24262      0.00000     0.23972    0.01766     0.25738
 =======================================================================
   * Total *    0.00000      9.99558    26.85661    0.14780    37.00000

 Normal termination of Gaussian 16 at Tue Dec  8 14:29:56 2020.
