 Gaussian 16, Revision A.03,

 -----------------------------------------------------------
 # opt freq B3LYP/6-31G(d) empiricaldispersion=gd3bj scf=xqc
 -----------------------------------------------------------

 --------------------------------
 CID_112116917_JID_10078_neutraal
 --------------------------------
 Symbolic Z-matrix:
 Charge =  0 Multiplicity = 1

 SCF Done:  E(RB3LYP) =  -1599.47212028     A.U. after   15 cycles
 SCF Done:  E(RB3LYP) =  -1599.47321259     A.U. after   15 cycles
 SCF Done:  E(RB3LYP) =  -1599.47327217     A.U. after   13 cycles
 SCF Done:  E(RB3LYP) =  -1599.47901924     A.U. after   13 cycles
 SCF Done:  E(RB3LYP) =  -1599.47999172     A.U. after   13 cycles
 SCF Done:  E(RB3LYP) =  -1599.48076880     A.U. after   13 cycles
 SCF Done:  E(RB3LYP) =  -1599.48093938     A.U. after   12 cycles
 SCF Done:  E(RB3LYP) =  -1599.48155392     A.U. after   12 cycles
 SCF Done:  E(RB3LYP) =  -1599.48170894     A.U. after   11 cycles
 SCF Done:  E(RB3LYP) =  -1599.48177665     A.U. after   11 cycles
 SCF Done:  E(RB3LYP) =  -1599.48228841     A.U. after   10 cycles
 SCF Done:  E(RB3LYP) =  -1599.48228678     A.U. after    9 cycles
 SCF Done:  E(RB3LYP) =  -1599.48228938     A.U. after   10 cycles
 SCF Done:  E(RB3LYP) =  -1599.48228949     A.U. after    7 cycles
 SCF Done:  E(RB3LYP) =  -1599.48228954     A.U. after    7 cycles
 SCF Done:  E(RB3LYP) =  -1599.48228955     A.U. after    6 cycles
 Optimization completed.
    -- Stationary point found.
 Normal termination of Gaussian 16 at Mon Dec 14 13:54:12 2020.

 --------------------------------------------------------------------
 #N Geom=AllCheck Guess=TCheck SCRF=Check GenChk RB3LYP/6-31G(d) Freq
 --------------------------------------------------------------------

 Structure from the checkpoint file:  "JID_10078.chk"
 --------------------------------
 CID_112116917_JID_10078_neutraal
 --------------------------------
 Charge =  0 Multiplicity = 1

 SCF Done:  E(RB3LYP) =  -1599.48228955     A.U. after    1 cycles

  Exact polarizability: 252.574 -17.079 224.588  -3.358 -16.821 115.063
 Approx polarizability: 365.941 -25.498 381.862  -9.329 -44.834 189.678

                      1                      2                      3
                      A                      A                      A
 Frequencies --     20.6119                32.3168                46.8110
 Red. masses --      6.3808                 3.9838                 5.9291
 Frc consts  --      0.0016                 0.0025                 0.0077
 IR Inten    --      0.4201                 0.0402                 0.3983

                      4                      5                      6
                      A                      A                      A
 Frequencies --     66.9177                75.8695                84.7605
 Red. masses --      5.7363                 5.7124                 4.6723
 Frc consts  --      0.0151                 0.0194                 0.0198
 IR Inten    --      2.5089                 0.6703                 0.7332

                      7                      8                      9
                      A                      A                      A
 Frequencies --     87.3690               102.2605               109.5573
 Red. masses --      3.1593                 4.3870                 1.1757
 Frc consts  --      0.0142                 0.0270                 0.0083
 IR Inten    --      0.4032                 0.9269                 0.3606

                     10                     11                     12
                      A                      A                      A
 Frequencies --    146.6441               161.4706               211.9712
 Red. masses --      4.0276                 5.5257                 3.7048
 Frc consts  --      0.0510                 0.0849                 0.0981
 IR Inten    --      0.1279                 2.0852                 8.4793

                     13                     14                     15
                      A                      A                      A
 Frequencies --    219.5092               234.8805               255.0998
 Red. masses --      4.1369                 1.2508                 3.1712
 Frc consts  --      0.1174                 0.0407                 0.1216
 IR Inten    --      3.8762                86.3803                16.2379

                     16                     17                     18
                      A                      A                      A
 Frequencies --    269.0852               289.3843               291.9264
 Red. masses --      5.9221                 9.6013                 6.9577
 Frc consts  --      0.2526                 0.4737                 0.3493
 IR Inten    --      0.6361                 0.2707                 0.7522

                     19                     20                     21
                      A                      A                      A
 Frequencies --    333.7946               355.9676               388.5507
 Red. masses --      6.2517                 3.5477                 4.1409
 Frc consts  --      0.4104                 0.2649                 0.3683
 IR Inten    --      1.6394                 1.7792                 5.4260

                     22                     23                     24
                      A                      A                      A
 Frequencies --    413.8272               447.9450               455.0876
 Red. masses --      4.6355                 3.6507                 4.4186
 Frc consts  --      0.4677                 0.4316                 0.5392
 IR Inten    --     13.3530                10.8607                 1.6732

                     25                     26                     27
                      A                      A                      A
 Frequencies --    459.9907               519.0042               541.3618
 Red. masses --      2.8374                 4.9568                 2.6164
 Frc consts  --      0.3537                 0.7867                 0.4518
 IR Inten    --     12.1787                 6.4935                 4.3749

                     28                     29                     30
                      A                      A                      A
 Frequencies --    561.7179               627.0490               632.5617
 Red. masses --      5.8073                 5.2588                 9.0517
 Frc consts  --      1.0796                 1.2183                 2.1340
 IR Inten    --      4.7774                 0.1357                 0.1767

                     31                     32                     33
                      A                      A                      A
 Frequencies --    664.3018               675.7661               689.8122
 Red. masses --      3.6535                 7.7446                 1.2757
 Frc consts  --      0.9499                 2.0837                 0.3577
 IR Inten    --     33.9214                 7.0209                 4.9728

                     34                     35                     36
                      A                      A                      A
 Frequencies --    740.9189               748.6929               777.4397
 Red. masses --      5.0417                 2.1390                 5.9576
 Frc consts  --      1.6307                 0.7064                 2.1216
 IR Inten    --     20.8867                12.2180                14.7463

                     37                     38                     39
                      A                      A                      A
 Frequencies --    793.0992               803.8743               810.5680
 Red. masses --      1.2897                 2.0407                 1.5277
 Frc consts  --      0.4780                 0.7770                 0.5914
 IR Inten    --      5.6164                 8.5541                60.3151

                     40                     41                     42
                      A                      A                      A
 Frequencies --    816.2153               837.0456               852.4285
 Red. masses --      1.5558                 4.7201                 1.9628
 Frc consts  --      0.6107                 1.9485                 0.8403
 IR Inten    --     15.7266                12.6705                 8.9491

                     43                     44                     45
                      A                      A                      A
 Frequencies --    866.7051               885.8411               887.8727
 Red. masses --      4.9525                 1.2981                 2.5140
 Frc consts  --      2.1919                 0.6001                 1.1677
 IR Inten    --     58.5122                 0.2014                 6.7354

                     46                     47                     48
                      A                      A                      A
 Frequencies --    898.7071               916.4276               943.2221
 Red. masses --      4.3341                 4.1010                 3.1929
 Frc consts  --      2.0625                 2.0292                 1.6736
 IR Inten    --      1.7922                 0.3288                 9.2354

                     49                     50                     51
                      A                      A                      A
 Frequencies --    995.1442              1012.6495              1025.2085
 Red. masses --      3.3965                 1.9985                 2.9305
 Frc consts  --      1.9818                 1.2074                 1.8148
 IR Inten    --     18.4099                12.0996                21.1335

                     52                     53                     54
                      A                      A                      A
 Frequencies --   1051.1967              1069.6966              1081.5972
 Red. masses --      2.6777                 1.3554                 1.8817
 Frc consts  --      1.7433                 0.9138                 1.2970
 IR Inten    --     45.6836                 8.0630                67.8911

                     55                     56                     57
                      A                      A                      A
 Frequencies --   1088.8350              1105.5985              1126.6385
 Red. masses --      1.7445                 1.5261                 1.1130
 Frc consts  --      1.2186                 1.0991                 0.8324
 IR Inten    --     24.3343                 7.5863                 2.6576

                     58                     59                     60
                      A                      A                      A
 Frequencies --   1144.9504              1155.2712              1162.3250
 Red. masses --      1.1636                 1.4167                 1.5050
 Frc consts  --      0.8988                 1.1140                 1.1980
 IR Inten    --     10.7982                29.6752                 6.5382

                     61                     62                     63
                      A                      A                      A
 Frequencies --   1167.5893              1209.2761              1227.8889
 Red. masses --      1.5869                 1.4080                 1.7395
 Frc consts  --      1.2746                 1.2131                 1.5452
 IR Inten    --     31.6705                 0.5101                93.4981

                     64                     65                     66
                      A                      A                      A
 Frequencies --   1239.0865              1251.9499              1263.6980
 Red. masses --      1.6181                 1.8935                 1.8690
 Frc consts  --      1.4637                 1.7486                 1.7586
 IR Inten    --     75.2794                23.8479                15.9995

                     67                     68                     69
                      A                      A                      A
 Frequencies --   1288.5348              1330.9542              1353.8794
 Red. masses --      2.7047                 1.5588                 1.9099
 Frc consts  --      2.6458                 1.6269                 2.0626
 IR Inten    --     14.1596                15.6843                21.5466

                     70                     71                     72
                      A                      A                      A
 Frequencies --   1356.7823              1391.2513              1412.0586
 Red. masses --      2.4990                 1.2925                 3.2460
 Frc consts  --      2.7104                 1.4740                 3.8133
 IR Inten    --     17.0336                22.3169                23.8106

                     73                     74                     75
                      A                      A                      A
 Frequencies --   1421.2532              1447.6621              1464.3205
 Red. masses --      1.5764                 1.6836                 1.4735
 Frc consts  --      1.8761                 2.0789                 1.8615
 IR Inten    --      1.4664                76.1597                11.5831

                     76                     77                     78
                      A                      A                      A
 Frequencies --   1467.6750              1479.2104              1500.9680
 Red. masses --      5.6707                 1.5701                 1.0975
 Frc consts  --      7.1969                 2.0241                 1.4568
 IR Inten    --     38.5267                43.2069                 2.4701

                     79                     80                     81
                      A                      A                      A
 Frequencies --   1515.3017              1526.2283              1531.8656
 Red. masses --      1.3671                 1.1064                 1.4825
 Frc consts  --      1.8495                 1.5185                 2.0497
 IR Inten    --      7.1074                24.7555                12.8746

                     82                     83                     84
                      A                      A                      A
 Frequencies --   1541.8690              1546.9958              1554.3921
 Red. masses --      1.3863                 1.8198                 8.4637
 Frc consts  --      1.9419                 2.5659                12.0484
 IR Inten    --     14.2024                82.0468                10.3758

                     85                     86                     87
                      A                      A                      A
 Frequencies --   1594.1888              1730.3268              3037.0459
 Red. masses --      6.3311                10.3191                 1.0538
 Frc consts  --      9.4800                18.2032                 5.7269
 IR Inten    --     27.5136               300.1611                60.8843

                     88                     89                     90
                      A                      A                      A
 Frequencies --   3048.5121              3070.1289              3118.9618
 Red. masses --      1.0827                 1.0730                 1.0875
 Frc consts  --      5.9285                 5.9586                 6.2330
 IR Inten    --     18.7468                48.5429                25.8307

                     91                     92                     93
                      A                      A                      A
 Frequencies --   3148.5712              3154.3213              3158.7902
 Red. masses --      1.0793                 1.0520                 1.0602
 Frc consts  --      6.3040                 6.1669                 6.2325
 IR Inten    --     10.4341                22.6693                 5.7555

                     94                     95                     96
                      A                      A                      A
 Frequencies --   3178.6988              3199.1739              3223.2688
 Red. masses --      1.0921                 1.1066                 1.0913
 Frc consts  --      6.5014                 6.6728                 6.6800
 IR Inten    --     12.9446                 1.0795                 1.0760

                     97                     98                     99
                      A                      A                      A
 Frequencies --   3227.5696              3241.3888              3277.6294
 Red. masses --      1.1183                 1.1148                 1.0968
 Frc consts  --      6.8635                 6.9012                 6.9425
 IR Inten    --      1.7519                20.0470                 0.4473

                    100                    101                    102
                      A                      A                      A
 Frequencies --   3298.9169              3301.8809              3752.2507
 Red. masses --      1.0935                 1.0944                 1.0664
 Frc consts  --      7.0118                 7.0299                 8.8462
 IR Inten    --      5.5077                10.6557                15.0486

 - Thermochemistry -
 -------------------
 Temperature   298.150 Kelvin.  Pressure   1.00000 Atm.
 Atom     1 has atomic number  6 and mass  12.00000

 Molecular mass:   308.06532 amu.
 Principal axes and moments of inertia in atomic units:
                           1         2         3
     Eigenvalues --  4908.258308135.89370**********
           X            0.99976   0.02179  -0.00197
           Y           -0.02177   0.99973   0.00795
           Z            0.00214  -0.00791   0.99997
 This molecule is an asymmetric top.
 Rotational symmetry number  1.
 Warning -- assumption of classical behavior for rotation
           may cause significant error
 Rotational temperatures (Kelvin)      0.01765     0.01065     0.00714
 Rotational constants (GHZ):           0.36769     0.22182     0.14886
 Zero-point vibrational energy     743620.7 (Joules/Mol)
                                  177.72961 (Kcal/Mol)
 Warning -- explicit consideration of  28 degrees of freedom as
           vibrations may cause significant error
 Vibrational temperatures:     29.66    46.50    67.35    96.28   109.16
          (Kelvin)            121.95   125.70   147.13   157.63   210.99
                              232.32   304.98   315.82   337.94   367.03
                              387.15   416.36   420.02   480.26   512.16
                              559.04   595.41   644.49   654.77   661.82
                              746.73   778.90   808.19   902.18   910.12
                              955.78   972.28   992.49  1066.02  1077.20
                             1118.56  1141.09  1156.60  1166.23  1174.35
                             1204.32  1226.45  1247.00  1274.53  1277.45
                             1293.04  1318.53  1357.09  1431.79  1456.98
                             1475.05  1512.44  1539.05  1556.18  1566.59
                             1590.71  1620.98  1647.33  1662.18  1672.33
                             1679.90  1739.88  1766.66  1782.77  1801.28
                             1818.18  1853.91  1914.95  1947.93  1952.11
                             2001.70  2031.64  2044.87  2082.86  2106.83
                             2111.66  2128.25  2159.56  2180.18  2195.90
                             2204.01  2218.41  2225.78  2236.42  2293.68
                             2489.55  4369.63  4386.13  4417.23  4487.49
                             4530.09  4538.36  4544.79  4573.44  4602.90
                             4637.56  4643.75  4663.64  4715.78  4746.41
                             4750.67  5398.65

 Zero-point correction=                           0.283230 (Hartree/Particle)
 Thermal correction to Energy=                    0.302837
 Thermal correction to Enthalpy=                  0.303781
 Thermal correction to Gibbs Free Energy=         0.233096
 Sum of electronic and zero-point Energies=          -1599.199059
 Sum of electronic and thermal Energies=             -1599.179453
 Sum of electronic and thermal Enthalpies=           -1599.178508
 Sum of electronic and thermal Free Energies=        -1599.249193

                     E (Thermal)             CV                S
                      KCal/Mol        Cal/Mol-Kelvin    Cal/Mol-Kelvin
 Total                  190.033             73.282            148.769
 Electronic               0.000              0.000              0.000
 Translational            0.889              2.981             43.072
 Rotational               0.889              2.981             34.536
 Vibrational            188.256             67.320             71.161
 Vibration     1          0.593              1.986              6.574
 Vibration     2          0.594              1.983              5.682
 Vibration     3          0.595              1.979              4.948
 Vibration     4          0.598              1.970              4.242
 Vibration     5          0.599              1.965              3.995
 Vibration     6          0.601              1.960              3.778
 Vibration     7          0.601              1.958              3.718
 Vibration     8          0.604              1.947              3.411
 Vibration     9          0.606              1.942              3.277
 Vibration    10          0.617              1.906              2.715
 Vibration    11          0.622              1.890              2.532
 Vibration    12          0.643              1.823              2.027
 Vibration    13          0.647              1.811              1.963
 Vibration    14          0.655              1.787              1.841
 Vibration    15          0.665              1.754              1.695
 Vibration    16          0.673              1.730              1.602
 Vibration    17          0.686              1.693              1.478
 Vibration    18          0.687              1.689              1.463
 Vibration    19          0.715              1.608              1.242
 Vibration    20          0.731              1.563              1.140
 Vibration    21          0.757              1.495              1.006
 Vibration    22          0.777              1.440              0.913
 Vibration    23          0.807              1.365              0.802
 Vibration    24          0.813              1.350              0.781
 Vibration    25          0.818              1.339              0.766
 Vibration    26          0.874              1.208              0.612
 Vibration    27          0.896              1.159              0.562
 Vibration    28          0.917              1.114              0.520

                           ! Non-Optimized Parameters !
 Normal termination of Gaussian 16 at Mon Dec 14 14:16:56 2020.

 ----------------------------------------------------------------------
 # B3LYP/6-311++G(d,p) empiricaldispersion=gd3bj scf=xqc pop=npa geom=c
 heck
 ----------------------------------------------------------------------

 ----------------------------------------
 CID_112116917_JID_10078_Energie_neutraal
 ----------------------------------------
 Structure from the checkpoint file:  "JID_10078.chk"
 Charge =  0 Multiplicity = 1

 SCF Done:  E(RB3LYP) =  -1599.76174566     A.U. after   17 cycles
 Normal termination of Gaussian 16 at Mon Dec 14 14:28:27 2020.

 ----------------------------------------------------------------------
 # B3LYP/6-311++G(d,p) empiricaldispersion=gd3bj scf=xqc pop=npa geom=c
 heck
 ----------------------------------------------------------------------

 --------------------------------------
 CID_112116917_JID_10078_Energie_kation
 --------------------------------------
 Structure from the checkpoint file:  "JID_10078.chk"
 Charge =  1 Multiplicity = 2

 SCF Done:  E(UB3LYP) =  -1599.47115976     A.U. after   30 cycles
 Normal termination of Gaussian 16 at Mon Dec 14 14:57:25 2020.
 Gaussian 16:  ES64L-G16RevA.03 25-Dec-2016

 ----------------------------------------------------------------------
 # B3LYP/6-311++G(d,p) empiricaldispersion=gd3bj scf=xqc pop=npa geom=c
 heck
 ----------------------------------------------------------------------

 -------------------------------------
 CID_112116917_JID_10078_Energie_anion
 -------------------------------------
 Structure from the checkpoint file:  "JID_10078.chk"
 Charge = -1 Multiplicity = 2

                         Standard orientation:
 ---------------------------------------------------------------------
 Center     Atomic      Atomic             Coordinates (Angstroms)
 Number     Number       Type             X           Y           Z
 ---------------------------------------------------------------------
      1          6           0        4.399446   -0.327798   -0.409736
      2          7           0        2.971654   -0.422207   -0.109446
      3          6           0        2.356101    0.742095    0.524571
      4          6           0        1.829974    1.777410   -0.470286
      5          6           0        0.959934    2.859238    0.150893
      6          6           0       -0.103169    2.582785    1.188698
      7          6           0        1.140896    3.347165    1.566735
      8          8           0        2.988540    2.368517   -1.080410
      9          6           0        2.411551   -1.669164   -0.168017
     10          8           0        3.077447   -2.676096   -0.414131
     11          6           0        0.934172   -1.825616    0.041613
     12          6           0        0.412358   -3.047619    0.380209
     13         16           0       -1.308303   -2.964422    0.468997
     14          6           0       -1.217648   -1.253798    0.024347
     15          7           0        0.005238   -0.827696   -0.155322
     16          6           0       -2.410649   -0.433639   -0.135065
     17          6           0       -2.364923    0.857433   -0.611304
     18         16           0       -3.932454    1.574897   -0.682546
     19          6           0       -4.675310    0.126901   -0.070209
     20          6           0       -3.752320   -0.847416    0.172159
     21          1           0        4.605011    0.674767   -0.783417
     22          1           0        4.653655   -1.074808   -1.160992
     23          1           0        5.005604   -0.523113    0.485793
     24          1           0        1.549640    0.410938    1.175036
     25          1           0        3.118957    1.217763    1.151445
     26          1           0        1.245850    1.235188   -1.224549
     27          1           0        0.702974    3.633016   -0.573876
     28          1           0       -1.041096    3.125472    1.113378
     29          1           0       -0.219108    1.565654    1.548607
     30          1           0        1.872664    2.848112    2.194758
     31          1           0        1.057125    4.413600    1.754712
     32          1           0        2.689223    2.883519   -1.844748
     33          1           0        0.962035   -3.960916    0.550925
     34          1           0       -1.483877    1.407521   -0.905035
     35          1           0       -5.745774    0.083800    0.074504
     36          1           0       -4.009395   -1.826025    0.562297
 ---------------------------------------------------------------------

 SCF Done:  E(UB3LYP) =  -1599.77548180     A.U. after   31 cycles

 The electronic state is 2-A.
 Alpha  occ. eigenvalues --  -88.74449 -88.72590 -19.03363 -18.96141 -14.22791
 Alpha  occ. eigenvalues --  -14.15765 -10.14882 -10.12353 -10.10048 -10.08728
 Alpha  occ. eigenvalues --  -10.08648 -10.08092 -10.07614 -10.07444 -10.07442
 Alpha  occ. eigenvalues --  -10.06689 -10.05602 -10.04625 -10.04531 -10.04380
 Alpha  occ. eigenvalues --   -7.83087  -7.81303  -5.79376  -5.79010  -5.78717
 Alpha  occ. eigenvalues --   -5.77580  -5.77239  -5.76942  -0.93468  -0.91558
 Alpha  occ. eigenvalues --   -0.82199  -0.81447  -0.76688  -0.75134  -0.65327
 Alpha  occ. eigenvalues --   -0.65088  -0.64164  -0.60773  -0.59930  -0.57206
 Alpha  occ. eigenvalues --   -0.55681  -0.50911  -0.48013  -0.47025  -0.46473
 Alpha  occ. eigenvalues --   -0.44408  -0.43057  -0.41988  -0.40848  -0.39513
 Alpha  occ. eigenvalues --   -0.38786  -0.37115  -0.36661  -0.35212  -0.34058
 Alpha  occ. eigenvalues --   -0.31182  -0.30680  -0.29930  -0.29591  -0.28760
 Alpha  occ. eigenvalues --   -0.28314  -0.28076  -0.27655  -0.26787  -0.26543
 Alpha  occ. eigenvalues --   -0.26051  -0.25331  -0.24989  -0.23980  -0.22427
 Alpha  occ. eigenvalues --   -0.21827  -0.21499  -0.19542  -0.18454  -0.15721
 Alpha  occ. eigenvalues --   -0.14557  -0.13932  -0.13583  -0.12667  -0.12350
 Alpha  occ. eigenvalues --   -0.08666   0.04060
 Alpha virt. eigenvalues --    0.06361   0.07807   0.08166   0.08391   0.09107
 Alpha virt. eigenvalues --    0.09802   0.10254   0.10763   0.10986   0.11329
 Alpha virt. eigenvalues --    0.11847   0.12333   0.12498   0.13059   0.13749

  Beta  occ. eigenvalues --  -88.74410 -88.72508 -19.03361 -18.96164 -14.22789
  Beta  occ. eigenvalues --  -14.15612 -10.14864 -10.12350 -10.10044 -10.08728
  Beta  occ. eigenvalues --  -10.08647 -10.08089 -10.07461 -10.07441 -10.07258
  Beta  occ. eigenvalues --  -10.06794 -10.05609 -10.04525 -10.04243 -10.03907
  Beta  occ. eigenvalues --   -7.83052  -7.81229  -5.79361  -5.78998  -5.78581
  Beta  occ. eigenvalues --   -5.77546  -5.77205  -5.76666  -0.93464  -0.91579
  Beta  occ. eigenvalues --   -0.82137  -0.81151  -0.76681  -0.74911  -0.65208
  Beta  occ. eigenvalues --   -0.64684  -0.63831  -0.60658  -0.59634  -0.57025
  Beta  occ. eigenvalues --   -0.55614  -0.50904  -0.47954  -0.46665  -0.46035
  Beta  occ. eigenvalues --   -0.44230  -0.42801  -0.41973  -0.40668  -0.39447
  Beta  occ. eigenvalues --   -0.38748  -0.37041  -0.36450  -0.35188  -0.34013
  Beta  occ. eigenvalues --   -0.31108  -0.30657  -0.29779  -0.29452  -0.28663
  Beta  occ. eigenvalues --   -0.28104  -0.27886  -0.27301  -0.26594  -0.26328
  Beta  occ. eigenvalues --   -0.25873  -0.25211  -0.24779  -0.23433  -0.22080
  Beta  occ. eigenvalues --   -0.21579  -0.21461  -0.19535  -0.18441  -0.14563
  Beta  occ. eigenvalues --   -0.13954  -0.13484  -0.13251  -0.12606  -0.11451
  Beta  occ. eigenvalues --   -0.06996
  Beta virt. eigenvalues --    0.06291   0.07760   0.08119   0.08357   0.09679
  Beta virt. eigenvalues --    0.09898   0.10117   0.10355   0.10789   0.10970
  Beta virt. eigenvalues --    0.11329   0.12005   0.12321   0.12767   0.13070

 Mulliken charges and spin densities:
               1          2
     1  C   -0.250130   0.003044
     2  N    0.280141   0.009755
     3  C   -1.282948  -0.033111
     4  C    0.098579  -0.029970
     5  C    0.031649  -0.013504
     6  C   -0.311972  -0.025962
     7  C   -0.455142   0.009467
     8  O   -0.220125   0.000778
     9  C   -0.444189   0.047848
    10  O   -0.354449  -0.007652
    11  C   -0.276138  -0.086169
    12  C    0.618948   0.259111
    13  S   -0.777773   0.126820
    14  C   -0.193728   0.199335
    15  N    0.230281   0.077148
    16  C   -0.465996  -0.010977
    17  C    0.689573   0.288933
    18  S   -0.528242   0.059360
    19  C   -0.537179  -0.002697
    20  C    0.154727   0.047351
    21  H    0.179453   0.000969
    22  H    0.175868  -0.000383
    23  H    0.136100  -0.000009
    24  H    0.202146   0.006458
    25  H    0.184496   0.001391
    26  H    0.267213   0.060392
    27  H    0.176432   0.033094
    28  H    0.160560   0.013526
    29  H    0.137492  -0.009620
    30  H    0.129647   0.002726
    31  H    0.121696   0.017990
    32  H    0.219749   0.011782
    33  H    0.251417  -0.020222
    34  H    0.321768  -0.036804
    35  H    0.215100   0.002657
    36  H    0.114976  -0.002857
 Sum of Mulliken charges =  -1.00000   1.00000

 Dipole moment (field-independent basis, Debye):
    X=              1.3861    Y=              5.5189    Z=              1.0836  Tot=              5.7925
 Quadrupole moment (field-independent basis, Debye-Ang):
   XX=           -179.4553   YY=           -166.5205   ZZ=           -142.5557
   XY=             12.5239   XZ=             -0.9433   YZ=             -4.7512

 Summary of Natural Population Analysis:

                                       Natural Population
                Natural  -----------------------------------------------
    Atom  No    Charge         Core      Valence    Rydberg      Total
 -----------------------------------------------------------------------
      C    1   -0.18048      0.99965     2.17402    0.00681     3.18048
      N    2   -0.25159      0.99964     2.74164    0.01030     3.75159
      C    3   -0.09116      0.99958     2.08091    0.01067     3.09116
      C    4    0.05099      0.99952     1.93382    0.01567     2.94901
      C    5   -0.12547      0.99959     2.11202    0.01386     3.12547
      C    6   -0.19555      0.99962     2.18693    0.00900     3.19555
      C    7   -0.20171      0.99963     2.19618    0.00590     3.20171
      O    8   -0.37741      0.99989     3.37154    0.00598     4.37741
      C    9    0.33813      0.99958     1.64148    0.02080     2.66187
      O   10   -0.34098      0.99988     3.33548    0.00562     4.34098
      C   11   -0.02088      0.99943     2.00693    0.01452     3.02088
      C   12   -0.11021      0.99950     2.10113    0.00958     3.11021
      S   13    0.19439      4.99945     2.78587    0.02028     7.80561
      C   14    0.10127      0.99954     1.88338    0.01581     2.89873
      N   15   -0.24702      0.99963     2.73535    0.01203     3.74702
      C   16   -0.08856      0.99946     2.07666    0.01244     3.08856
      C   17   -0.08068      0.99950     2.07073    0.01045     3.08068
      S   18    0.19321      4.99945     2.78337    0.02397     7.80679
      C   19   -0.21804      0.99955     2.20727    0.01122     3.21804
      C   20   -0.11600      0.99951     2.10814    0.00835     3.11600
      H   21    0.10371      0.00000     0.39540    0.00089     0.39629
      H   22    0.10766      0.00000     0.39130    0.00104     0.39234
      H   23    0.08480      0.00000     0.41402    0.00118     0.41520
      H   24    0.11758      0.00000     0.38144    0.00098     0.38242
      H   25    0.09298      0.00000     0.40599    0.00103     0.40702
      H   26    0.10013      0.00000     0.39805    0.00182     0.39987
      H   27    0.09779      0.00000     0.40120    0.00101     0.40221
      H   28    0.10380      0.00000     0.39409    0.00211     0.39620
      H   29    0.11443      0.00000     0.38462    0.00094     0.38557
      H   30    0.10019      0.00000     0.39883    0.00098     0.39981
      H   31    0.09754      0.00000     0.40149    0.00097     0.40246
      H   32    0.22638      0.00000     0.27125    0.00237     0.27362
      H   33    0.10867      0.00000     0.39039    0.00094     0.39133
      H   34    0.10649      0.00000     0.39128    0.00223     0.39351
      H   35    0.10119      0.00000     0.39791    0.00090     0.39881
      H   36    0.10439      0.00000     0.39459    0.00102     0.39561
 =======================================================================
   * Total *    0.00000     27.99161    52.74471    0.26367    81.00000

 Normal termination of Gaussian 16 at Mon Dec 14 15:27:31 2020.
