 Gaussian 16, Revision A.03,

 -----------------------------------------------------------
 # opt freq B3LYP/6-31G(d) empiricaldispersion=gd3bj scf=xqc
 -----------------------------------------------------------

 -------------------------------
 CID_153843623_JID_2538_neutraal
 -------------------------------
 Symbolic Z-matrix:
 Charge =  0 Multiplicity = 1

 SCF Done:  E(RB3LYP) =  -1000.17586403     A.U. after   28 cycles
 SCF Done:  E(RB3LYP) =  -1000.19284697     A.U. after   23 cycles
 SCF Done:  E(RB3LYP) =  -1000.18750157     A.U. after   24 cycles
 SCF Done:  E(RB3LYP) =  -1000.20355837     A.U. after   22 cycles
 SCF Done:  E(RB3LYP) =  -1000.20787323     A.U. after   22 cycles
 SCF Done:  E(RB3LYP) =  -1000.21165957     A.U. after   22 cycles
 SCF Done:  E(RB3LYP) =  -1000.21642854     A.U. after   20 cycles
 SCF Done:  E(RB3LYP) =  -1000.22509578     A.U. after   19 cycles
 SCF Done:  E(RB3LYP) =  -1000.23120750     A.U. after   17 cycles
 SCF Done:  E(RB3LYP) =  -1000.23858222     A.U. after   15 cycles
 SCF Done:  E(RB3LYP) =  -1000.24828959     A.U. after   11 cycles
 SCF Done:  E(RB3LYP) =  -1000.24830881     A.U. after   11 cycles
 SCF Done:  E(RB3LYP) =  -1000.24830939     A.U. after    9 cycles
 SCF Done:  E(RB3LYP) =  -1000.24830971     A.U. after    9 cycles
 SCF Done:  E(RB3LYP) =  -1000.24830985     A.U. after    8 cycles
 SCF Done:  E(RB3LYP) =  -1000.24830988     A.U. after    8 cycles
 Optimization completed.
    -- Stationary point found.
 Normal termination of Gaussian 16 at Wed Dec  9 17:36:05 2020.

 --------------------------------------------------------------------
 #N Geom=AllCheck Guess=TCheck SCRF=Check GenChk RB3LYP/6-31G(d) Freq
 --------------------------------------------------------------------

 Structure from the checkpoint file:  "JID_2538.chk"
 -------------------------------
 CID_153843623_JID_2538_neutraal
 -------------------------------
 Charge =  0 Multiplicity = 1

 SCF Done:  E(RB3LYP) =  -1000.24830988     A.U. after    1 cycles

  Exact polarizability: 122.490   4.077  89.823  -0.627   2.424  53.620
 Approx polarizability: 193.679  13.237 147.196  -1.395   6.272 107.145

                      1                      2                      3
                      A                      A                      A
 Frequencies --     46.3170               103.9641               115.1768
 Red. masses --     13.9704                11.3101                 8.5578
 Frc consts  --      0.0177                 0.0720                 0.0669
 IR Inten    --      0.1707                 2.8273                 1.1958

                      4                      5                      6
                      A                      A                      A
 Frequencies --    138.0406               217.4160               263.1865
 Red. masses --     11.1876                 9.9566                 1.5791
 Frc consts  --      0.1256                 0.2773                 0.0644
 IR Inten    --      1.4919                 2.7620               205.3922

                      7                      8                      9
                      A                      A                      A
 Frequencies --    268.8955               323.6842               334.6588
 Red. masses --      3.7444                11.1870                 8.5515
 Frc consts  --      0.1595                 0.6906                 0.5643
 IR Inten    --     80.1475                 5.7832                 5.0906

                     10                     11                     12
                      A                      A                      A
 Frequencies --    350.3243               406.0740               422.3882
 Red. masses --     14.4426                 6.1395                13.9280
 Frc consts  --      1.0443                 0.5965                 1.4641
 IR Inten    --     11.5917                 5.2446                39.4511

                     13                     14                     15
                      A                      A                      A
 Frequencies --    464.7448               523.4053               605.2169
 Red. masses --      1.2525                 6.5986                10.3484
 Frc consts  --      0.1594                 1.0651                 2.2333
 IR Inten    --     41.4774                15.5686                36.0438

                     16                     17                     18
                      A                      A                      A
 Frequencies --    624.8304               629.9722               642.7110
 Red. masses --      5.1221                 9.1518                10.5517
 Frc consts  --      1.1782                 2.1399                 2.5680
 IR Inten    --     16.8381                 4.0456                17.0408

                     19                     20                     21
                      A                      A                      A
 Frequencies --    659.3302               693.9935               718.1761
 Red. masses --     10.1184                10.2119                12.2138
 Frc consts  --      2.5916                 2.8978                 3.7116
 IR Inten    --    146.3062                14.8420                40.6510

                     22                     23                     24
                      A                      A                      A
 Frequencies --    736.9449               910.8553              1083.9449
 Red. masses --     10.5184                 8.6424                 2.5815
 Frc consts  --      3.3657                 4.2246                 1.7871
 IR Inten    --     72.1751                 6.7145                49.1178

                     25                     26                     27
                      A                      A                      A
 Frequencies --   1120.0027              1154.5649              1171.0251
 Red. masses --     11.7290                 6.6613                 9.4393
 Frc consts  --      8.6686                 5.2317                 7.6265
 IR Inten    --     91.4419                96.6796               102.7216

                     28                     29                     30
                      A                      A                      A
 Frequencies --   1225.6358              1314.6223              1369.5340
 Red. masses --     11.7024                 5.3161                 5.0133
 Frc consts  --     10.3573                 5.4131                 5.5402
 IR Inten    --     35.4882               174.6755               119.8428

                     31                     32                     33
                      A                      A                      A
 Frequencies --   1634.9027              1711.7666              2014.3252
 Red. masses --      1.4842                 3.6765                12.9338
 Frc consts  --      2.3374                 6.3471                30.9198
 IR Inten    --     55.4190               573.8600               549.5195

                     34                     35                     36
                      A                      A                      A
 Frequencies --   2035.5607              3595.0241              3717.7432
 Red. masses --     12.9324                 1.0466                 1.1041
 Frc consts  --     31.5716                 7.9692                 8.9916
 IR Inten    --    516.3230               136.6367                68.8502

 - Thermochemistry -
 -------------------
 Temperature   298.150 Kelvin.  Pressure   1.00000 Atm.
 Atom     1 has atomic number  6 and mass  12.00000

 Molecular mass:   185.97353 amu.
 Principal axes and moments of inertia in atomic units:
                           1         2         3
     Eigenvalues --  1541.265942224.919453323.00573
           X            0.99968  -0.02499  -0.00265
           Y            0.02500   0.99969   0.00041
           Z            0.00264  -0.00048   1.00000
 This molecule is an asymmetric top.
 Rotational symmetry number  1.
 Warning -- assumption of classical behavior for rotation
           may cause significant error
 Rotational temperatures (Kelvin)      0.05620     0.03893     0.02606
 Rotational constants (GHZ):           1.17095     0.81115     0.54311
 Zero-point vibrational energy     199471.1 (Joules/Mol)
                                   47.67473 (Kcal/Mol)
 Warning -- explicit consideration of  15 degrees of freedom as
           vibrations may cause significant error
 Vibrational temperatures:     66.64   149.58   165.71   198.61   312.81
          (Kelvin)            378.67   386.88   465.71   481.50   504.04
                              584.25   607.72   668.66   753.06   870.77
                              898.99   906.39   924.72   948.63   998.50
                             1033.30  1060.30  1310.52  1559.55  1611.43
                             1661.16  1684.84  1763.42  1891.45  1970.45
                             2352.26  2462.85  2898.16  2928.72  5172.44
                             5349.00

 Zero-point correction=                           0.075975 (Hartree/Particle)
 Thermal correction to Energy=                    0.086607
 Thermal correction to Enthalpy=                  0.087551
 Thermal correction to Gibbs Free Energy=         0.039022
 Sum of electronic and zero-point Energies=          -1000.172335
 Sum of electronic and thermal Energies=             -1000.161703
 Sum of electronic and thermal Enthalpies=           -1000.160759
 Sum of electronic and thermal Free Energies=        -1000.209288

                     E (Thermal)             CV                S
                      KCal/Mol        Cal/Mol-Kelvin    Cal/Mol-Kelvin
 Total                   54.347             38.509            102.139
 Electronic               0.000              0.000              0.000
 Translational            0.889              2.981             41.567
 Rotational               0.889              2.981             30.811
 Vibrational             52.569             32.547             29.760
 Vibration     1          0.595              1.979              4.969
 Vibration     2          0.605              1.946              3.379
 Vibration     3          0.608              1.937              3.180
 Vibration     4          0.614              1.915              2.831
 Vibration     5          0.646              1.815              1.981
 Vibration     6          0.670              1.740              1.641
 Vibration     7          0.673              1.730              1.603
 Vibration     8          0.708              1.628              1.291
 Vibration     9          0.716              1.606              1.237
 Vibration    10          0.727              1.575              1.165
 Vibration    11          0.771              1.457              0.941
 Vibration    12          0.785              1.422              0.884
 Vibration    13          0.822              1.328              0.752
 Vibration    14          0.878              1.198              0.602
 Vibration    15          0.964              1.021              0.441

 Optimization completed.
    -- Stationary point found.
 Normal termination of Gaussian 16 at Wed Dec  9 17:38:48 2020.

 ----------------------------------------------------------------------
 # B3LYP/6-311++G(d,p) empiricaldispersion=gd3bj scf=xqc pop=npa geom=c
 heck
 ----------------------------------------------------------------------

 ---------------------------------------
 CID_153843623_JID_2538_Energie_neutraal
 ---------------------------------------
 Structure from the checkpoint file:  "JID_2538.chk"
 Charge =  0 Multiplicity = 1

 SCF Done:  E(RB3LYP) =  -1000.45624903     A.U. after   15 cycles
 Normal termination of Gaussian 16 at Wed Dec  9 17:40:01 2020.

 ----------------------------------------------------------------------
 # B3LYP/6-311++G(d,p) empiricaldispersion=gd3bj scf=xqc pop=npa geom=c
 heck
 ----------------------------------------------------------------------

 -------------------------------------
 CID_153843623_JID_2538_Energie_kation
 -------------------------------------
 Structure from the checkpoint file:  "JID_2538.chk"
 Charge =  1 Multiplicity = 2

 SCF Done:  E(UB3LYP) =  -1000.10328234     A.U. after   25 cycles
 Normal termination of Gaussian 16 at Wed Dec  9 17:44:41 2020.
 Gaussian 16:  ES64L-G16RevA.03 25-Dec-2016

 ----------------------------------------------------------------------
 # B3LYP/6-311++G(d,p) empiricaldispersion=gd3bj scf=xqc pop=npa geom=c
 heck
 ----------------------------------------------------------------------

 ------------------------------------
 CID_153843623_JID_2538_Energie_anion
 ------------------------------------
 Structure from the checkpoint file:  "JID_2538.chk"
 Charge = -1 Multiplicity = 2

                         Standard orientation:
 ---------------------------------------------------------------------
 Center     Atomic      Atomic             Coordinates (Angstroms)
 Number     Number       Type             X           Y           Z
 ---------------------------------------------------------------------
      1          6           0        0.173325    0.813517   -0.050566
      2          6           0        0.256087   -0.691347    0.067629
      3         16           0       -1.399366   -1.344831   -0.062669
      4          6           0       -1.996555    0.362453    0.007581
      5          7           0       -1.119468    1.310056    0.013987
      6          7           0       -3.325827    0.564554    0.012873
      7          6           0        1.475909   -1.482830   -0.042986
      8          8           0        2.309771   -2.071092   -0.652112
      9          8           0        1.134072   -1.212044    1.221697
     10          6           0        1.366357    1.662151    0.050681
     11          8           0        1.078078    1.380883   -1.215419
     12          8           0        2.162523    2.286217    0.680842
     13          1           0       -3.968687   -0.178744    0.239245
     14          1           0       -3.650678    1.518391    0.101339
 ---------------------------------------------------------------------

 SCF Done:  E(UB3LYP) =  -1000.47648108     A.U. after   26 cycles

 The electronic state is 2-A.
 Alpha  occ. eigenvalues --  -88.76255 -19.06363 -19.04767 -19.02643 -19.01772
 Alpha  occ. eigenvalues --  -14.23382 -14.19386 -10.20531 -10.19631 -10.16749
 Alpha  occ. eigenvalues --  -10.16628 -10.16439  -7.84859  -5.81192  -5.80886
 Alpha  occ. eigenvalues --   -5.80297  -1.02487  -1.00681  -0.94961  -0.93723
 Alpha  occ. eigenvalues --   -0.87549  -0.79967  -0.68645  -0.61952  -0.54642
 Alpha  occ. eigenvalues --   -0.50872  -0.47611  -0.45751  -0.42002  -0.41782
 Alpha  occ. eigenvalues --   -0.38038  -0.37132  -0.35718  -0.35061  -0.33292
 Alpha  occ. eigenvalues --   -0.32727  -0.31915  -0.28707  -0.26988  -0.26471
 Alpha  occ. eigenvalues --   -0.22649  -0.20528  -0.18948  -0.18558  -0.17008
 Alpha  occ. eigenvalues --   -0.15607  -0.13426   0.03133
 Alpha virt. eigenvalues --    0.06466   0.07966   0.08936   0.10256   0.11267
 Alpha virt. eigenvalues --    0.12062   0.13015   0.13603   0.14439   0.14839
 Alpha virt. eigenvalues --    0.15070   0.17036   0.17644   0.17719   0.18017

  Beta  occ. eigenvalues --  -88.76222 -19.06136 -19.04537 -19.02592 -19.01773
  Beta  occ. eigenvalues --  -14.23204 -14.19448 -10.20444 -10.19615 -10.16563
  Beta  occ. eigenvalues --  -10.16506 -10.16144  -7.84823  -5.81094  -5.80873
  Beta  occ. eigenvalues --   -5.80279  -1.02109  -1.00359  -0.94789  -0.93599
  Beta  occ. eigenvalues --   -0.87248  -0.79733  -0.68348  -0.61516  -0.54308
  Beta  occ. eigenvalues --   -0.50466  -0.47263  -0.45489  -0.41725  -0.41396
  Beta  occ. eigenvalues --   -0.37781  -0.36878  -0.35561  -0.34929  -0.32763
  Beta  occ. eigenvalues --   -0.32495  -0.31554  -0.28049  -0.26608  -0.25890
  Beta  occ. eigenvalues --   -0.22294  -0.20275  -0.18737  -0.18383  -0.16856
  Beta  occ. eigenvalues --   -0.15239  -0.13166
  Beta virt. eigenvalues --    0.07327   0.08227   0.08716   0.09902   0.10947
  Beta virt. eigenvalues --    0.11399   0.12559   0.13303   0.13922   0.14664
  Beta virt. eigenvalues --    0.14941   0.15098   0.16959   0.17674   0.17867

 Mulliken charges and spin densities:
               1          2
     1  C   -0.973910   0.238667
     2  C    0.977928   0.040395
     3  S   -0.244618   0.060622
     4  C    0.622308  -0.347961
     5  N    0.052817  -0.123058
     6  N   -0.279874   0.032252
     7  C    0.172690  -0.011318
     8  O   -0.309625   0.014205
     9  O   -0.005003   0.037674
    10  C   -0.148739  -0.047047
    11  O   -0.028971   0.014680
    12  O   -0.301400  -0.001203
    13  H   -0.587354   0.878579
    14  H    0.053751   0.213513
 Sum of Mulliken charges =  -1.00000   1.00000

 Dipole moment (field-independent basis, Debye):
    X=              0.3193    Y=             -0.4874    Z=             -0.4076  Tot=              0.7111
 Quadrupole moment (field-independent basis, Debye-Ang):
   XX=           -125.0235   YY=            -99.5110   ZZ=            -89.3191
   XY=             -4.9339   XZ=              2.9734   YZ=             -1.2414

 Summary of Natural Population Analysis:

                                       Natural Population
                Natural  -----------------------------------------------
    Atom  No    Charge         Core      Valence    Rydberg      Total
 -----------------------------------------------------------------------
      C    1    0.15064      0.99947     1.82966    0.02023     2.84936
      C    2    0.00545      0.99949     1.97779    0.01727     2.99455
      S    3    0.14329      4.99950     2.83805    0.01917     7.85671
      C    4    0.21860      0.99960     1.75846    0.02334     2.78140
      N    5   -0.30608      0.99959     2.79531    0.01118     3.80608
      N    6   -0.37289      0.99967     2.86215    0.01108     3.87289
      C    7    0.39925      0.99952     1.57151    0.02971     2.60075
      O    8   -0.27483      0.99986     3.26907    0.00590     4.27483
      O    9   -0.23327      0.99991     3.22490    0.00847     4.23327
      C   10    0.39327      0.99957     1.57723    0.02993     2.60673
      O   11   -0.24051      0.99991     3.23217    0.00843     4.24051
      O   12   -0.28640      0.99986     3.28053    0.00601     4.28640
      H   13    0.20532      0.00000     0.27628    0.01840     0.29468
      H   14    0.19816      0.00000     0.29947    0.00236     0.30184
 =======================================================================
   * Total *    0.00000     15.99596    30.79258    0.21147    47.00000

 Normal termination of Gaussian 16 at Wed Dec  9 17:49:40 2020.
