 Gaussian 16, Revision A.03,

 -----------------------------------------------------------
 # opt freq B3LYP/6-31G(d) empiricaldispersion=gd3bj scf=xqc
 -----------------------------------------------------------

 ------------------------------
 CID_64570927_JID_3298_neutraal
 ------------------------------
 Symbolic Z-matrix:
 Charge =  0 Multiplicity = 1

 SCF Done:  E(RB3LYP) =  -958.981134222     A.U. after   13 cycles
 SCF Done:  E(RB3LYP) =  -958.985173298     A.U. after   12 cycles
 SCF Done:  E(RB3LYP) =  -958.985094713     A.U. after   12 cycles
 SCF Done:  E(RB3LYP) =  -958.986481303     A.U. after   12 cycles
 SCF Done:  E(RB3LYP) =  -958.987030804     A.U. after   12 cycles
 SCF Done:  E(RB3LYP) =  -958.987213156     A.U. after   13 cycles
 SCF Done:  E(RB3LYP) =  -958.987697304     A.U. after   12 cycles
 SCF Done:  E(RB3LYP) =  -958.987825412     A.U. after   10 cycles
 SCF Done:  E(RB3LYP) =  -958.987881017     A.U. after   12 cycles
 SCF Done:  E(RB3LYP) =  -958.987897828     A.U. after   10 cycles
 SCF Done:  E(RB3LYP) =  -958.987906093     A.U. after   11 cycles
 SCF Done:  E(RB3LYP) =  -958.987906680     A.U. after    8 cycles
 SCF Done:  E(RB3LYP) =  -958.987906813     A.U. after    8 cycles
 SCF Done:  E(RB3LYP) =  -958.987906842     A.U. after    7 cycles
 SCF Done:  E(RB3LYP) =  -958.987906830     A.U. after    6 cycles
 Optimization completed.
    -- Stationary point found.
 Normal termination of Gaussian 16 at Wed Dec  9 22:53:04 2020.

 --------------------------------------------------------------------
 #N Geom=AllCheck Guess=TCheck SCRF=Check GenChk RB3LYP/6-31G(d) Freq
 --------------------------------------------------------------------

 Structure from the checkpoint file:  "JID_3298.chk"
 ------------------------------
 CID_64570927_JID_3298_neutraal
 ------------------------------
 Charge =  0 Multiplicity = 1

 SCF Done:  E(RB3LYP) =  -958.987906830     A.U. after    1 cycles

  Exact polarizability: 139.647  -2.931 120.234  -1.121   0.168 113.274
 Approx polarizability: 181.480  -0.829 172.335   5.720  -3.413 173.411

                      1                      2                      3
                      A                      A                      A
 Frequencies --     25.1952                37.2531                45.3451
 Red. masses --      5.5513                 3.4492                 3.6148
 Frc consts  --      0.0021                 0.0028                 0.0044
 IR Inten    --      3.8268                 0.8614                 2.3030

                      4                      5                      6
                      A                      A                      A
 Frequencies --     77.8642               114.4182               135.1909
 Red. masses --      2.9152                 3.2102                 3.1195
 Frc consts  --      0.0104                 0.0248                 0.0336
 IR Inten    --      0.6007                 4.9599                 1.0831

                      7                      8                      9
                      A                      A                      A
 Frequencies --    181.4643               195.8176               227.2301
 Red. masses --      2.0658                 2.7604                 1.4971
 Frc consts  --      0.0401                 0.0624                 0.0455
 IR Inten    --      0.8564                 1.1087                 1.7524

                     10                     11                     12
                      A                      A                      A
 Frequencies --    233.0210               265.1498               275.5994
 Red. masses --      1.1128                 1.2375                 3.3231
 Frc consts  --      0.0356                 0.0513                 0.1487
 IR Inten    --      0.2872                 0.1684                 1.4261

                     13                     14                     15
                      A                      A                      A
 Frequencies --    278.9624               290.9690               312.8084
 Red. masses --      1.3028                 2.1116                 2.6403
 Frc consts  --      0.0597                 0.1053                 0.1522
 IR Inten    --      0.1902                 1.9438                 0.4511

                     16                     17                     18
                      A                      A                      A
 Frequencies --    315.0742               344.1319               364.9069
 Red. masses --      1.7313                 2.4224                 2.3904
 Frc consts  --      0.1013                 0.1690                 0.1875
 IR Inten    --      1.5205                 0.6570                 2.7814

                     19                     20                     21
                      A                      A                      A
 Frequencies --    386.0592               418.3738               430.9998
 Red. masses --      2.5131                 2.5250                 2.7275
 Frc consts  --      0.2207                 0.2604                 0.2985
 IR Inten    --      1.0846                11.5800                14.7591

                     22                     23                     24
                      A                      A                      A
 Frequencies --    463.6684               492.4913               512.2639
 Red. masses --      7.5267                 2.9095                 2.8077
 Frc consts  --      0.9534                 0.4158                 0.4341
 IR Inten    --     19.9075                 1.4329                 9.8795

                     25                     26                     27
                      A                      A                      A
 Frequencies --    557.5130               645.8216               719.9722
 Red. masses --      2.8130                 3.4545                 3.3159
 Frc consts  --      0.5152                 0.8489                 1.0127
 IR Inten    --      2.9407                20.1638                33.5700

                     28                     29                     30
                      A                      A                      A
 Frequencies --    761.2456               806.9026               847.8055
 Red. masses --      2.1072                 1.3488                 2.4099
 Frc consts  --      0.7195                 0.5174                 1.0205
 IR Inten    --      3.8718               136.0360                20.5468

                     31                     32                     33
                      A                      A                      A
 Frequencies --    903.9285               921.8931               941.0726
 Red. masses --      1.8845                 1.5559                 1.4491
 Frc consts  --      0.9072                 0.7791                 0.7561
 IR Inten    --      2.5219                 6.1607                 0.9220

                     34                     35                     36
                      A                      A                      A
 Frequencies --    945.7399               970.0362               978.9065
 Red. masses --      1.4742                 1.6699                 1.5862
 Frc consts  --      0.7769                 0.9258                 0.8956
 IR Inten    --      1.8712                17.8138                15.8985

                     37                     38                     39
                      A                      A                      A
 Frequencies --    982.7234               984.7519              1015.5262
 Red. masses --      1.5641                 1.3688                 1.8421
 Frc consts  --      0.8900                 0.7821                 1.1193
 IR Inten    --     17.1693                 4.0749                 5.3235

                     40                     41                     42
                      A                      A                      A
 Frequencies --   1027.6072              1067.0369              1099.6333
 Red. masses --      1.5347                 2.2967                 2.1220
 Frc consts  --      0.9548                 1.5407                 1.5118
 IR Inten    --      8.2636                 3.1948                16.0087

                     43                     44                     45
                      A                      A                      A
 Frequencies --   1115.3150              1151.7843              1163.3202
 Red. masses --      3.7008                 2.1177                 2.4345
 Frc consts  --      2.7123                 1.6552                 1.9412
 IR Inten    --     70.1914                83.2193                22.3189

                     46                     47                     48
                      A                      A                      A
 Frequencies --   1170.8817              1194.3871              1218.9123
 Red. masses --      1.7710                 1.8534                 1.7943
 Frc consts  --      1.4305                 1.5578                 1.5707
 IR Inten    --      8.7231                 8.3062                 2.5617

                     49                     50                     51
                      A                      A                      A
 Frequencies --   1229.3569              1253.2017              1300.9172
 Red. masses --      1.7125                 1.5356                 1.8086
 Frc consts  --      1.5249                 1.4210                 1.8034
 IR Inten    --     15.3207                18.8690                19.2141

                     52                     53                     54
                      A                      A                      A
 Frequencies --   1315.9802              1334.3785              1339.2993
 Red. masses --      2.7346                 1.3870                 1.3357
 Frc consts  --      2.7903                 1.4551                 1.4116
 IR Inten    --    167.0774                15.2257                 6.6712

                     55                     56                     57
                      A                      A                      A
 Frequencies --   1363.3268              1375.8767              1376.6363
 Red. masses --      1.2194                 1.2031                 1.3266
 Frc consts  --      1.3353                 1.3418                 1.4812
 IR Inten    --      5.1325                 7.9657                 1.6090

                     58                     59                     60
                      A                      A                      A
 Frequencies --   1407.5754              1415.4490              1429.0044
 Red. masses --      1.3432                 1.2419                 1.3259
 Frc consts  --      1.5679                 1.4659                 1.5952
 IR Inten    --      0.0689                21.4587                 3.9267

                     61                     62                     63
                      A                      A                      A
 Frequencies --   1432.4066              1441.8987              1455.4184
 Red. masses --      1.2774                 1.2267                 1.2181
 Frc consts  --      1.5443                 1.5027                 1.5202
 IR Inten    --      0.2433                 7.9949                 5.9302

                     64                     65                     66
                      A                      A                      A
 Frequencies --   1477.2237              1482.7461              1487.0512
 Red. masses --      1.0780                 1.0535                 1.0585
 Frc consts  --      1.3860                 1.3647                 1.3791
 IR Inten    --      6.1720                 2.5307                11.2040

                     67                     68                     69
                      A                      A                      A
 Frequencies --   1499.2896              1516.7330              1518.6592
 Red. masses --      1.0864                 1.1282                 1.0571
 Frc consts  --      1.4389                 1.5291                 1.4364
 IR Inten    --      5.2946                12.5439                 7.6971

                     70                     71                     72
                      A                      A                      A
 Frequencies --   1523.3281              1529.4691              1538.7884
 Red. masses --      1.0921                 1.0792                 1.0572
 Frc consts  --      1.4931                 1.4874                 1.4749
 IR Inten    --     11.5967                12.1215                 7.5586

                     73                     74                     75
                      A                      A                      A
 Frequencies --   1542.0126              1544.3800              1554.6249
 Red. masses --      1.0550                 1.0721                 1.0542
 Frc consts  --      1.4781                 1.5066                 1.5012
 IR Inten    --      0.8220                14.1485                 2.2131

                     76                     77                     78
                      A                      A                      A
 Frequencies --   2906.7994              2975.9130              3032.7377
 Red. masses --      1.0722                 1.0816                 1.0803
 Frc consts  --      5.3378                 5.6436                 5.8542
 IR Inten    --     66.2348                60.9857                 9.5397

                     79                     80                     81
                      A                      A                      A
 Frequencies --   3043.1748              3045.7309              3048.6531
 Red. masses --      1.0385                 1.0421                 1.0486
 Frc consts  --      5.6667                 5.6955                 5.7422
 IR Inten    --      3.0417                54.3059                36.3007

                     82                     83                     84
                      A                      A                      A
 Frequencies --   3051.1169              3054.2723              3085.2396
 Red. masses --      1.0692                 1.0757                 1.0512
 Frc consts  --      5.8643                 5.9121                 5.8953
 IR Inten    --     18.1450                51.0925                 2.1293

                     85                     86                     87
                      A                      A                      A
 Frequencies --   3087.9096              3102.3778              3102.6549
 Red. masses --      1.0369                 1.1012                 1.1010
 Frc consts  --      5.8251                 6.2446                 6.2443
 IR Inten    --      1.9166                 5.9991                31.5614

                     88                     89                     90
                      A                      A                      A
 Frequencies --   3109.7642              3123.1665              3126.1888
 Red. masses --      1.1007                 1.0985                 1.1011
 Frc consts  --      6.2715                 6.3129                 6.3405
 IR Inten    --     73.7098                 6.5852                37.6681

                     91                     92                     93
                      A                      A                      A
 Frequencies --   3136.4297              3144.2714              3153.4895
 Red. masses --      1.0988                 1.1053                 1.0978
 Frc consts  --      6.3683                 6.4383                 6.4324
 IR Inten    --     31.0724                 8.2631                14.0814

                     94                     95                     96
                      A                      A                      A
 Frequencies --   3186.0822              3196.3845              3535.5077
 Red. masses --      1.1064                 1.1070                 1.0738
 Frc consts  --      6.6172                 6.6636                 7.9085
 IR Inten    --      0.6410                 0.5984                 3.2378

 - Thermochemistry -
 -------------------
 Temperature   298.150 Kelvin.  Pressure   1.00000 Atm.
 Atom     1 has atomic number  6 and mass  12.00000

 Molecular mass:   207.12930 amu.
 Principal axes and moments of inertia in atomic units:
                           1         2         3
     Eigenvalues --  1554.131305375.055065619.06967
           X            0.99987  -0.01613  -0.00247
           Y            0.01611   0.99983  -0.00937
           Z            0.00262   0.00933   0.99995
 This molecule is an asymmetric top.
 Rotational symmetry number  1.
 Warning -- assumption of classical behavior for rotation
           may cause significant error
 Rotational temperatures (Kelvin)      0.05573     0.01611     0.01541
 Rotational constants (GHZ):           1.16125     0.33576     0.32118
 Zero-point vibrational energy     798805.6 (Joules/Mol)
                                  190.91913 (Kcal/Mol)
 Warning -- explicit consideration of  25 degrees of freedom as
           vibrations may cause significant error
 Vibrational temperatures:     36.25    53.60    65.24   112.03   164.62
          (Kelvin)            194.51   261.09   281.74   326.93   335.27
                              381.49   396.53   401.36   418.64   450.06
                              453.32   495.13   525.02   555.45   601.95
                              620.11   667.12   708.59   737.03   802.14
                              929.19  1035.88  1095.26  1160.95  1219.80
                             1300.55  1326.40  1353.99  1360.71  1395.67
                             1408.43  1413.92  1416.84  1461.12  1478.50
                             1535.23  1582.13  1604.69  1657.16  1673.76
                             1684.64  1718.46  1753.74  1768.77  1803.08
                             1871.73  1893.40  1919.87  1926.95  1961.52
                             1979.58  1980.67  2025.19  2036.52  2056.02
                             2060.91  2074.57  2094.02  2125.40  2133.34
                             2139.53  2157.14  2182.24  2185.01  2191.73
                             2200.56  2213.97  2218.61  2222.02  2236.76
                             4182.24  4281.68  4363.43  4378.45  4382.13
                             4386.33  4389.88  4394.42  4438.97  4442.81
                             4463.63  4464.03  4474.26  4493.54  4497.89
                             4512.62  4523.91  4537.17  4584.06  4598.88
                             5086.81

 Zero-point correction=                           0.304249 (Hartree/Particle)
 Thermal correction to Energy=                    0.320364
 Thermal correction to Enthalpy=                  0.321308
 Thermal correction to Gibbs Free Energy=         0.260157
 Sum of electronic and zero-point Energies=           -958.683658
 Sum of electronic and thermal Energies=              -958.667543
 Sum of electronic and thermal Enthalpies=            -958.666599
 Sum of electronic and thermal Free Energies=         -958.727750

                     E (Thermal)             CV                S
                      KCal/Mol        Cal/Mol-Kelvin    Cal/Mol-Kelvin
 Total                  201.031             60.045            128.703
 Electronic               0.000              0.000              0.000
 Translational            0.889              2.981             41.889
 Rotational               0.889              2.981             32.218
 Vibrational            199.254             54.083             54.596
 Vibration     1          0.593              1.985              6.176
 Vibration     2          0.594              1.982              5.400
 Vibration     3          0.595              1.979              5.011
 Vibration     4          0.599              1.964              3.944
 Vibration     5          0.607              1.937              3.193
 Vibration     6          0.613              1.918              2.871
 Vibration     7          0.630              1.865              2.313
 Vibration     8          0.636              1.846              2.172
 Vibration     9          0.651              1.800              1.901
 Vibration    10          0.654              1.790              1.856
 Vibration    11          0.671              1.737              1.628
 Vibration    12          0.677              1.718              1.561
 Vibration    13          0.679              1.712              1.540
 Vibration    14          0.687              1.691              1.468
 Vibration    15          0.701              1.649              1.347
 Vibration    16          0.702              1.645              1.336
 Vibration    17          0.723              1.587              1.193
 Vibration    18          0.738              1.544              1.101
 Vibration    19          0.755              1.500              1.015
 Vibration    20          0.781              1.430              0.898
 Vibration    21          0.792              1.403              0.855
 Vibration    22          0.821              1.331              0.756
 Vibration    23          0.848              1.267              0.677
 Vibration    24          0.867              1.223              0.628
 Vibration    25          0.913              1.123              0.529

 Optimization completed.
    -- Stationary point found.
 Normal termination of Gaussian 16 at Wed Dec  9 23:02:19 2020.

 ----------------------------------------------------------------------
 # B3LYP/6-311++G(d,p) empiricaldispersion=gd3bj scf=xqc pop=npa geom=c
 heck
 ----------------------------------------------------------------------

 --------------------------------------
 CID_64570927_JID_3298_Energie_neutraal
 --------------------------------------
 Structure from the checkpoint file:  "JID_3298.chk"
 Charge =  0 Multiplicity = 1

 SCF Done:  E(RB3LYP) =  -959.182042974     A.U. after   15 cycles
 Normal termination of Gaussian 16 at Wed Dec  9 23:06:47 2020.

 ----------------------------------------------------------------------
 # B3LYP/6-311++G(d,p) empiricaldispersion=gd3bj scf=xqc pop=npa geom=c
 heck
 ----------------------------------------------------------------------

 ------------------------------------
 CID_64570927_JID_3298_Energie_kation
 ------------------------------------
 Structure from the checkpoint file:  "JID_3298.chk"
 Charge =  1 Multiplicity = 2

 SCF Done:  E(UB3LYP) =  -958.864957359     A.U. after   20 cycles
 Normal termination of Gaussian 16 at Wed Dec  9 23:14:11 2020.
 Gaussian 16:  ES64L-G16RevA.03 25-Dec-2016

 ----------------------------------------------------------------------
 # B3LYP/6-311++G(d,p) empiricaldispersion=gd3bj scf=xqc pop=npa geom=c
 heck
 ----------------------------------------------------------------------

 -----------------------------------
 CID_64570927_JID_3298_Energie_anion
 -----------------------------------
 Structure from the checkpoint file:  "JID_3298.chk"
 Charge = -1 Multiplicity = 2

                         Standard orientation:
 ---------------------------------------------------------------------
 Center     Atomic      Atomic             Coordinates (Angstroms)
 Number     Number       Type             X           Y           Z
 ---------------------------------------------------------------------
      1          6           0        3.765273   -1.465094   -0.489832
      2          6           0        2.553748   -0.775700    0.154798
      3          6           0        2.560578   -1.076298    1.664059
      4          6           0        2.472946    0.759300   -0.110359
      5          6           0        3.178167    1.213454   -1.397168
      6          6           0        1.018741    1.262540   -0.179803
      7          7           0        0.210875    0.943702    0.989042
      8          6           0       -1.078003    1.607262    1.060779
      9          6           0       -2.086952    1.326470   -0.069060
     10         16           0       -2.601939   -0.426992   -0.146478
     11          8           0       -2.231812   -1.074460    1.126553
     12          8           0       -3.990553   -0.466279   -0.630594
     13          6           0       -1.565991   -1.156123   -1.435540
     14          1           0        4.704946   -1.038399   -0.117860
     15          1           0        3.765487   -1.381769   -1.580779
     16          1           0        3.767593   -2.531437   -0.236876
     17          1           0        1.655061   -1.237607   -0.288215
     18          1           0        3.516283   -0.756992    2.099157
     19          1           0        1.770266   -0.546110    2.199661
     20          1           0        2.453202   -2.150735    1.852062
     21          1           0        2.955953    1.265934    0.736566
     22          1           0        2.752671    0.724444   -2.282555
     23          1           0        3.066342    2.295559   -1.532982
     24          1           0        4.248522    0.993082   -1.376848
     25          1           0        1.035697    2.356882   -0.268207
     26          1           0        0.583713    0.891150   -1.130311
     27          1           0        0.076462   -0.057377    1.099647
     28          1           0       -1.544393    1.331791    2.010277
     29          1           0       -0.911023    2.692056    1.080190
     30          1           0       -3.024940    1.864703    0.098658
     31          1           0       -1.711327    1.597410   -1.060529
     32          1           0       -1.763902   -0.657073   -2.386051
     33          1           0       -0.515127   -1.071663   -1.156272
     34          1           0       -1.858701   -2.206837   -1.493300
 ---------------------------------------------------------------------

 SCF Done:  E(UB3LYP) =  -959.173557466     A.U. after   26 cycles

 The electronic state is 2-A.
 Alpha  occ. eigenvalues --  -88.94994 -19.01956 -19.01801 -14.20633 -10.11471
 Alpha  occ. eigenvalues --  -10.11358 -10.11031 -10.09562 -10.08388 -10.07848
 Alpha  occ. eigenvalues --  -10.06547 -10.06522 -10.05959  -8.01499  -5.97757
 Alpha  occ. eigenvalues --   -5.97654  -5.97594  -1.01103  -0.90841  -0.82189
 Alpha  occ. eigenvalues --   -0.72645  -0.70058  -0.66762  -0.65171  -0.59722
 Alpha  occ. eigenvalues --   -0.58172  -0.54613  -0.51955  -0.49243  -0.45860
 Alpha  occ. eigenvalues --   -0.42375  -0.40259  -0.40122  -0.38114  -0.36827
 Alpha  occ. eigenvalues --   -0.36397  -0.35771  -0.34595  -0.34282  -0.33080
 Alpha  occ. eigenvalues --   -0.32339  -0.31740  -0.30216  -0.29533  -0.29193
 Alpha  occ. eigenvalues --   -0.29078  -0.27739  -0.26247  -0.25673  -0.23754
 Alpha  occ. eigenvalues --   -0.22889  -0.22678  -0.22359  -0.21888  -0.21009
 Alpha  occ. eigenvalues --   -0.19719  -0.13708   0.04096
 Alpha virt. eigenvalues --    0.06383   0.06857   0.07531   0.08772   0.09055
 Alpha virt. eigenvalues --    0.09296   0.09771   0.10276   0.11045   0.11324
 Alpha virt. eigenvalues --    0.11894   0.12172   0.12311   0.12916   0.13228

  Beta  occ. eigenvalues --  -88.94990 -19.01942 -19.01795 -14.20630 -10.11455
  Beta  occ. eigenvalues --  -10.11321 -10.10971 -10.09532 -10.08378 -10.07842
  Beta  occ. eigenvalues --  -10.06524 -10.06518 -10.05924  -8.01493  -5.97754
  Beta  occ. eigenvalues --   -5.97650  -5.97589  -1.01076  -0.90812  -0.82170
  Beta  occ. eigenvalues --   -0.72620  -0.70007  -0.66706  -0.65128  -0.59680
  Beta  occ. eigenvalues --   -0.58119  -0.54559  -0.51899  -0.49182  -0.45808
  Beta  occ. eigenvalues --   -0.42338  -0.40222  -0.40092  -0.38085  -0.36796
  Beta  occ. eigenvalues --   -0.36366  -0.35728  -0.34548  -0.34237  -0.33038
  Beta  occ. eigenvalues --   -0.32304  -0.31692  -0.30181  -0.29495  -0.29162
  Beta  occ. eigenvalues --   -0.29051  -0.27702  -0.26218  -0.25640  -0.23730
  Beta  occ. eigenvalues --   -0.22859  -0.22650  -0.22328  -0.21866  -0.20995
  Beta  occ. eigenvalues --   -0.19690  -0.13693
  Beta virt. eigenvalues --    0.06427   0.07184   0.07566   0.07926   0.09024
  Beta virt. eigenvalues --    0.09689   0.09750   0.10063   0.10733   0.11269
  Beta virt. eigenvalues --    0.11520   0.12276   0.12474   0.12572   0.13185

 Mulliken charges and spin densities:
               1          2
     1  C    0.091180  -0.707601
     2  C   -0.260777   0.431543
     3  C   -0.322787  -0.308238
     4  C   -0.030429   0.556011
     5  C    0.591459  -1.347383
     6  C   -0.439587  -0.460102
     7  N   -0.030913   0.012137
     8  C    0.418586  -0.730861
     9  C   -0.154982  -0.224361
    10  S   -0.096718   0.335251
    11  O   -0.243374   0.005988
    12  O   -0.207723   0.045776
    13  C    1.020537  -1.601398
    14  H    0.017261   0.120861
    15  H   -0.168015   0.324511
    16  H   -0.092034   0.227877
    17  H    0.419790  -0.232889
    18  H    0.074524   0.046221
    19  H    0.162810  -0.002827
    20  H    0.080416   0.044985
    21  H    0.155754   0.039326
    22  H   -0.345136   0.520562
    23  H   -0.203279   0.334556
    24  H   -0.129892   0.275252
    25  H   -0.333465   0.508596
    26  H    0.497267  -0.356994
    27  H    0.151996   0.041669
    28  H    0.202792   0.017633
    29  H   -0.295794   0.441670
    30  H   -0.199712   0.458276
    31  H   -0.312389   0.558963
    32  H   -0.461983   0.685350
    33  H   -0.575288   0.736374
    34  H    0.019904   0.203268
 Sum of Mulliken charges =  -1.00000   1.00000

 Dipole moment (field-independent basis, Debye):
    X=              1.3467    Y=             -1.4033    Z=              5.0821  Tot=              5.4416
 Quadrupole moment (field-independent basis, Debye-Ang):
   XX=           -161.6786   YY=           -134.3554   ZZ=           -136.7749
   XY=             -2.6402   XZ=              5.0172   YZ=              3.8939

 Summary of Natural Population Analysis:

                                       Natural Population
                Natural  -----------------------------------------------
    Atom  No    Charge         Core      Valence    Rydberg      Total
 -----------------------------------------------------------------------
      C    1   -0.28436      0.99965     2.27867    0.00603     3.28436
      C    2   -0.11458      0.99960     2.10522    0.00976     3.11458
      C    3   -0.28552      0.99965     2.28095    0.00491     3.28552
      C    4   -0.10859      0.99958     2.09777    0.01123     3.10859
      C    5   -0.28663      0.99965     2.28098    0.00600     3.28663
      C    6   -0.08733      0.99959     2.07501    0.01273     3.08733
      N    7   -0.34400      0.99974     2.83391    0.01035     3.84400
      C    8   -0.09411      0.99962     2.08092    0.01357     3.09411
      C    9   -0.29845      0.99958     2.28777    0.01110     3.29845
      S   10    1.01370      4.99931     1.89320    0.09378     6.98630
      O   11   -0.47597      0.99991     3.47063    0.00543     4.47597
      O   12   -0.46957      0.99991     3.46401    0.00564     4.46957
      C   13   -0.38982      0.99961     2.38214    0.00807     3.38982
      H   14    0.09449      0.00000     0.40469    0.00081     0.40551
      H   15    0.10405      0.00000     0.39501    0.00094     0.39595
      H   16    0.09808      0.00000     0.40114    0.00078     0.40192
      H   17    0.08924      0.00000     0.40821    0.00255     0.41076
      H   18    0.09382      0.00000     0.40528    0.00090     0.40618
      H   19    0.10657      0.00000     0.39239    0.00104     0.39343
      H   20    0.09593      0.00000     0.40336    0.00071     0.40407
      H   21    0.09285      0.00000     0.40532    0.00184     0.40715
      H   22    0.10158      0.00000     0.39678    0.00164     0.39842
      H   23    0.10123      0.00000     0.39768    0.00109     0.39877
      H   24    0.09980      0.00000     0.39923    0.00097     0.40020
      H   25    0.09527      0.00000     0.40305    0.00168     0.40473
      H   26    0.07828      0.00000     0.41819    0.00353     0.42172
      H   27    0.17957      0.00000     0.31681    0.00362     0.32043
      H   28    0.10286      0.00000     0.39606    0.00108     0.39714
      H   29    0.09956      0.00000     0.39924    0.00120     0.40044
      H   30    0.12039      0.00000     0.37834    0.00127     0.37961
      H   31    0.11899      0.00000     0.37831    0.00270     0.38101
      H   32    0.12026      0.00000     0.37740    0.00234     0.37974
      H   33    0.11332      0.00000     0.38452    0.00216     0.38668
      H   34    0.11910      0.00000     0.37983    0.00107     0.38090
 =======================================================================
   * Total *    0.00000     16.99539    39.77205    0.23256    57.00000

 Normal termination of Gaussian 16 at Wed Dec  9 23:23:35 2020.
