 Gaussian 16, Revision A.03,

 -----------------------------------------------------------
 # opt freq B3LYP/6-31G(d) empiricaldispersion=gd3bj scf=xqc
 -----------------------------------------------------------

 -----------------------------
 CID_45079254_JID_316_neutraal
 -----------------------------
 Symbolic Z-matrix:
 Charge =  0 Multiplicity = 1

 SCF Done:  E(RB3LYP) =  -460.037915099     A.U. after   15 cycles
 SCF Done:  E(RB3LYP) =  -460.060280477     A.U. after   14 cycles
 SCF Done:  E(RB3LYP) =  -460.061736172     A.U. after   14 cycles
 SCF Done:  E(RB3LYP) =  -460.061760023     A.U. after   13 cycles
 SCF Done:  E(RB3LYP) =  -460.061294494     A.U. after   13 cycles
 SCF Done:  E(RB3LYP) =  -460.061984698     A.U. after   12 cycles
 SCF Done:  E(RB3LYP) =  -460.062983326     A.U. after   14 cycles
 SCF Done:  E(RB3LYP) =  -460.063339895     A.U. after   13 cycles
 SCF Done:  E(RB3LYP) =  -460.063633799     A.U. after   13 cycles
 SCF Done:  E(RB3LYP) =  -460.063082997     A.U. after   14 cycles
 SCF Done:  E(RB3LYP) =  -460.063981361     A.U. after   11 cycles
 SCF Done:  E(RB3LYP) =  -460.063987987     A.U. after   11 cycles
 SCF Done:  E(RB3LYP) =  -460.063991992     A.U. after   10 cycles
 SCF Done:  E(RB3LYP) =  -460.063995295     A.U. after    9 cycles
 SCF Done:  E(RB3LYP) =  -460.063996320     A.U. after    8 cycles
 SCF Done:  E(RB3LYP) =  -460.063996927     A.U. after    9 cycles
 Optimization completed.
    -- Stationary point found.
 Normal termination of Gaussian 16 at Tue Dec  8 10:26:20 2020.

 --------------------------------------------------------------------
 #N Geom=AllCheck Guess=TCheck SCRF=Check GenChk RB3LYP/6-31G(d) Freq
 --------------------------------------------------------------------

 Structure from the checkpoint file:  "JID_316.chk"
 -----------------------------
 CID_45079254_JID_316_neutraal
 -----------------------------
 Charge =  0 Multiplicity = 1

 SCF Done:  E(RB3LYP) =  -460.063996927     A.U. after    1 cycles

  Exact polarizability:  80.584  -0.037  73.984  -7.577   0.040  81.611
 Approx polarizability: 109.801   0.070 119.160 -20.568   0.116 130.190

                      1                      2                      3
                      A                      A                      A
 Frequencies --     35.7725                67.5943               111.0127
 Red. masses --      1.8984                 5.3523                 4.8385
 Frc consts  --      0.0014                 0.0144                 0.0351
 IR Inten    --      0.0276                 8.0409                 0.0154

                      4                      5                      6
                      A                      A                      A
 Frequencies --    131.9035               174.4355               241.6452
 Red. masses --      4.7015                 1.0282                 3.1406
 Frc consts  --      0.0482                 0.0184                 0.1080
 IR Inten    --      0.4387                 0.2600                 3.2546

                      7                      8                      9
                      A                      A                      A
 Frequencies --    243.2537               359.5727               404.1278
 Red. masses --      3.5261                 7.4264                 6.2313
 Frc consts  --      0.1229                 0.5657                 0.5996
 IR Inten    --      3.5438                 5.4479                 1.6688

                     10                     11                     12
                      A                      A                      A
 Frequencies --    459.8799               538.4580               546.7731
 Red. masses --      5.3600                 3.3607                 3.7435
 Frc consts  --      0.6679                 0.5741                 0.6594
 IR Inten    --      4.5366                 0.0165                11.0655

                     13                     14                     15
                      A                      A                      A
 Frequencies --    569.5030               596.5417               596.8897
 Red. masses --      3.7534                 1.2296                 2.9359
 Frc consts  --      0.7172                 0.2578                 0.6163
 IR Inten    --      0.0097                51.2697                 1.7614

                     16                     17                     18
                      A                      A                      A
 Frequencies --    636.7093               646.1226               656.7507
 Red. masses --      1.2546                 6.1105                 4.2427
 Frc consts  --      0.2997                 1.5030                 1.0782
 IR Inten    --     47.5523                16.8022                 2.2219

                     19                     20                     21
                      A                      A                      A
 Frequencies --    811.1261               820.2225               918.3566
 Red. masses --      1.8158                 2.5224                 2.5037
 Frc consts  --      0.7039                 0.9998                 1.2441
 IR Inten    --      2.0908                 2.9841                 4.7389

                     22                     23                     24
                      A                      A                      A
 Frequencies --   1007.7504              1008.1947              1052.0073
 Red. masses --      2.3450                 2.6315                 3.3436
 Frc consts  --      1.4031                 1.5759                 2.1802
 IR Inten    --     24.7317                 0.1007                63.5587

                     25                     26                     27
                      A                      A                      A
 Frequencies --   1087.4236              1135.5034              1159.0579
 Red. masses --      3.6376                 1.4576                 2.2320
 Frc consts  --      2.5343                 1.1073                 1.7667
 IR Inten    --     22.5083                15.4548                 1.2841

                     28                     29                     30
                      A                      A                      A
 Frequencies --   1218.3137              1245.5392              1256.4274
 Red. masses --      2.2376                 4.8498                 1.1168
 Frc consts  --      1.9568                 4.4329                 1.0387
 IR Inten    --      2.3068                73.0796                 0.7567

                     31                     32                     33
                      A                      A                      A
 Frequencies --   1291.4198              1319.6731              1430.6761
 Red. masses --      1.7693                 1.5641                 1.2058
 Frc consts  --      1.7386                 1.6049                 1.4541
 IR Inten    --     27.1203                 0.7299                 4.4152

                     34                     35                     36
                      A                      A                      A
 Frequencies --   1472.5595              1494.1058              1517.1740
 Red. masses --      1.0673                 1.0960                 1.0451
 Frc consts  --      1.3635                 1.4415                 1.4174
 IR Inten    --      1.2321                19.4813                 4.2133

                     37                     38                     39
                      A                      A                      A
 Frequencies --   1517.4022              1839.9450              1877.5100
 Red. masses --      1.0499                12.7164                12.6172
 Frc consts  --      1.4243                25.3644                26.2047
 IR Inten    --      8.6362               338.1507                83.1329

                     40                     41                     42
                      A                      A                      A
 Frequencies --   2224.6790              3076.9665              3078.5133
 Red. masses --      6.0138                 1.0631                 1.0343
 Frc consts  --     17.5360                 5.9300                 5.7755
 IR Inten    --      2.7156                10.6686                14.5428

                     43                     44                     45
                      A                      A                      A
 Frequencies --   3084.8236              3122.5102              3137.5860
 Red. masses --      1.0638                 1.1018                 1.1012
 Frc consts  --      5.9642                 6.3293                 6.3872
 IR Inten    --      0.4358                 1.6423                 8.3885

                     46                     47                     48
                      A                      A                      A
 Frequencies --   3153.8285              3169.6926              3494.8534
 Red. masses --      1.1024                 1.1051                 1.1588
 Frc consts  --      6.4603                 6.5419                 8.3393
 IR Inten    --     12.4612                 5.7826                69.2798

 - Thermochemistry -
 -------------------
 Temperature   298.150 Kelvin.  Pressure   1.00000 Atm.
 Atom     1 has atomic number  6 and mass  12.00000

 Molecular mass:   136.05243 amu.
 Principal axes and moments of inertia in atomic units:
                           1         2         3
     Eigenvalues --  1206.308081282.985941516.38420
           X            0.00713   0.99394   0.10970
           Y            0.99997  -0.00709  -0.00082
           Z            0.00003  -0.10971   0.99396
 This molecule is an asymmetric top.
 Rotational symmetry number  1.
 Warning -- assumption of classical behavior for rotation
           may cause significant error
 Rotational temperatures (Kelvin)      0.07180     0.06751     0.05712
 Rotational constants (GHZ):           1.49609     1.40667     1.19016
 Zero-point vibrational energy     365105.0 (Joules/Mol)
                                   87.26219 (Kcal/Mol)
 Warning -- explicit consideration of  15 degrees of freedom as
           vibrations may cause significant error
 Vibrational temperatures:     51.47    97.25   159.72   189.78   250.97
          (Kelvin)            347.67   349.99   517.34   581.45   661.66
                              774.72   786.68   819.39   858.29   858.79
                              916.08   929.63   944.92  1167.03  1180.12
                             1321.31  1449.93  1450.57  1513.60  1564.56
                             1633.74  1667.63  1752.88  1792.05  1807.72
                             1858.07  1898.72  2058.42  2118.68  2149.68
                             2182.87  2183.20  2647.27  2701.32  3200.82
                             4427.07  4429.29  4438.37  4492.60  4514.29
                             4537.66  4560.48  5028.31

 Zero-point correction=                           0.139061 (Hartree/Particle)
 Thermal correction to Energy=                    0.149214
 Thermal correction to Enthalpy=                  0.150158
 Thermal correction to Gibbs Free Energy=         0.102939
 Sum of electronic and zero-point Energies=           -459.924936
 Sum of electronic and thermal Energies=              -459.914783
 Sum of electronic and thermal Enthalpies=            -459.913839
 Sum of electronic and thermal Free Energies=         -459.961058

                     E (Thermal)             CV                S
                      KCal/Mol        Cal/Mol-Kelvin    Cal/Mol-Kelvin
 Total                   93.633             36.683             99.381
 Electronic               0.000              0.000              0.000
 Translational            0.889              2.981             40.636
 Rotational               0.889              2.981             29.241
 Vibrational             91.856             30.721             29.504
 Vibration     1          0.594              1.982              5.480
 Vibration     2          0.598              1.970              4.222
 Vibration     3          0.607              1.940              3.251
 Vibration     4          0.612              1.921              2.918
 Vibration     5          0.627              1.874              2.387
 Vibration     6          0.658              1.777              1.791
 Vibration     7          0.659              1.774              1.779
 Vibration     8          0.734              1.556              1.124
 Vibration     9          0.769              1.461              0.948
 Vibration    10          0.818              1.339              0.766
 Vibration    11          0.893              1.165              0.569
 Vibration    12          0.902              1.147              0.551
 Vibration    13          0.926              1.097              0.505
 Vibration    14          0.954              1.039              0.456
 Vibration    15          0.955              1.038              0.455

 Optimization completed.
    -- Stationary point found.
 Normal termination of Gaussian 16 at Tue Dec  8 10:29:33 2020.

 ----------------------------------------------------------------------
 # B3LYP/6-311++G(d,p) empiricaldispersion=gd3bj scf=xqc pop=npa geom=c
 heck
 ----------------------------------------------------------------------

 -------------------------------------
 CID_45079254_JID_316_Energie_neutraal
 -------------------------------------
 Structure from the checkpoint file:  "JID_316.chk"
 Charge =  0 Multiplicity = 1

 SCF Done:  E(RB3LYP) =  -460.200928096     A.U. after   13 cycles
 Normal termination of Gaussian 16 at Tue Dec  8 10:30:30 2020.

 ----------------------------------------------------------------------
 # B3LYP/6-311++G(d,p) empiricaldispersion=gd3bj scf=xqc pop=npa geom=c
 heck
 ----------------------------------------------------------------------

 -----------------------------------
 CID_45079254_JID_316_Energie_kation
 -----------------------------------
 Structure from the checkpoint file:  "JID_316.chk"
 Charge =  1 Multiplicity = 2

 SCF Done:  E(UB3LYP) =  -459.872708569     A.U. after   19 cycles
 Normal termination of Gaussian 16 at Tue Dec  8 10:33:31 2020.
 Gaussian 16:  ES64L-G16RevA.03 25-Dec-2016

 ----------------------------------------------------------------------
 # B3LYP/6-311++G(d,p) empiricaldispersion=gd3bj scf=xqc pop=npa geom=c
 heck
 ----------------------------------------------------------------------

 ----------------------------------
 CID_45079254_JID_316_Energie_anion
 ----------------------------------
 Structure from the checkpoint file:  "JID_316.chk"
 Charge = -1 Multiplicity = 2

                         Standard orientation:
 ---------------------------------------------------------------------
 Center     Atomic      Atomic             Coordinates (Angstroms)
 Number     Number       Type             X           Y           Z
 ---------------------------------------------------------------------
      1          6           0        1.326171   -0.009056    1.624541
      2          6           0        0.516987   -0.003458    0.328233
      3          6           0       -0.462285   -1.198383    0.188308
      4          8           0       -0.303718   -2.281487    0.694712
      5          6           0       -1.667160   -0.760590   -0.647714
      6          6           0       -1.657281    0.781857   -0.647440
      7          6           0       -0.447196    1.203829    0.189195
      8          8           0       -0.275041    2.284508    0.696331
      9          6           0        1.347805   -0.007953   -0.876603
     10          6           0        1.994833   -0.011414   -1.896752
     11          1           0        1.957184    0.880919    1.672183
     12          1           0        1.947308   -0.906021    1.670724
     13          1           0        0.650685   -0.006054    2.484884
     14          1           0       -2.574021   -1.195243   -0.218492
     15          1           0       -1.555271   -1.177448   -1.654683
     16          1           0       -2.558657    1.228069   -0.218538
     17          1           0       -1.539537    1.197466   -1.654260
     18          1           0        2.591140   -0.014857   -2.780757
 ---------------------------------------------------------------------

 SCF Done:  E(UB3LYP) =  -460.210621042     A.U. after   23 cycles

 The electronic state is 2-A.
 Alpha  occ. eigenvalues --  -18.95327 -18.95327 -10.09269 -10.09269 -10.06182
 Alpha  occ. eigenvalues --  -10.03916 -10.03725 -10.03704 -10.02924 -10.02455
 Alpha  occ. eigenvalues --   -0.89516  -0.89082  -0.69992  -0.63999  -0.59774
 Alpha  occ. eigenvalues --   -0.52658  -0.52564  -0.42773  -0.39718  -0.37975
 Alpha  occ. eigenvalues --   -0.34321  -0.32573  -0.31138  -0.30686  -0.26992
 Alpha  occ. eigenvalues --   -0.26272  -0.25801  -0.25416  -0.23507  -0.22853
 Alpha  occ. eigenvalues --   -0.21532  -0.20266  -0.15245  -0.14968  -0.11281
 Alpha  occ. eigenvalues --   -0.08244   0.04935
 Alpha virt. eigenvalues --    0.09187   0.10086   0.10567   0.11540   0.12375
 Alpha virt. eigenvalues --    0.12440   0.13845   0.14273   0.15078   0.15569
 Alpha virt. eigenvalues --    0.16098   0.16594   0.18360   0.18676   0.19225

  Beta  occ. eigenvalues --  -18.95020 -18.95019 -10.08969 -10.08969 -10.06241
  Beta  occ. eigenvalues --  -10.03797 -10.03754 -10.03733 -10.02851 -10.02361
  Beta  occ. eigenvalues --   -0.88921  -0.88497  -0.69563  -0.63821  -0.59610
  Beta  occ. eigenvalues --   -0.52423  -0.52194  -0.42182  -0.39140  -0.37720
  Beta  occ. eigenvalues --   -0.33833  -0.32282  -0.30751  -0.30387  -0.26211
  Beta  occ. eigenvalues --   -0.26150  -0.25587  -0.24942  -0.23183  -0.22568
  Beta  occ. eigenvalues --   -0.20012  -0.19340  -0.14961  -0.14515  -0.11035
  Beta  occ. eigenvalues --   -0.08005
  Beta virt. eigenvalues --    0.08940   0.10048   0.10520   0.10795   0.11899
  Beta virt. eigenvalues --    0.13203   0.13431   0.14125   0.14211   0.15648
  Beta virt. eigenvalues --    0.15865   0.16095   0.17539   0.18392   0.18589

 Mulliken charges and spin densities:
               1          2
     1  C   -0.459513   0.006876
     2  C    0.389284   0.505219
     3  C   -0.084203  -0.105772
     4  O   -0.389832   0.121377
     5  C   -0.174259  -0.125498
     6  C   -0.173364  -0.127067
     7  C   -0.084311  -0.105023
     8  O   -0.389893   0.121392
     9  C    0.477952  -0.423696
    10  C   -0.495735   0.278134
    11  H    0.109098   0.039039
    12  H    0.109027   0.039009
    13  H    0.107605   0.035197
    14  H    0.163987  -0.027230
    15  H   -0.124830   0.317297
    16  H    0.163991  -0.027225
    17  H   -0.124839   0.317301
    18  H   -0.020164   0.160669
 Sum of Mulliken charges =  -1.00000   1.00000

 Dipole moment (field-independent basis, Debye):
    X=             -0.2470    Y=              0.0011    Z=              0.5676  Tot=              0.6190
 Quadrupole moment (field-independent basis, Debye-Ang):
   XX=            -69.6446   YY=            -91.1489   ZZ=            -76.8108
   XY=             -0.1363   XZ=             -1.9020   YZ=              0.0077

 Summary of Natural Population Analysis:

                                       Natural Population
                Natural  -----------------------------------------------
    Atom  No    Charge         Core      Valence    Rydberg      Total
 -----------------------------------------------------------------------
      C    1   -0.26561      0.99964     2.25884    0.00713     3.26561
      C    2   -0.15700      0.99942     2.14573    0.01185     3.15700
      C    3    0.35028      0.99965     1.62514    0.02494     2.64972
      O    4   -0.26895      0.99986     3.26200    0.00709     4.26895
      C    5   -0.24114      0.99960     2.23257    0.00897     3.24114
      C    6   -0.24115      0.99960     2.23258    0.00897     3.24115
      C    7    0.35028      0.99965     1.62513    0.02494     2.64972
      O    8   -0.26895      0.99986     3.26199    0.00709     4.26895
      C    9    0.02775      0.99934     1.96176    0.01115     2.97225
      C   10   -0.13149      0.99927     2.12766    0.00456     3.13149
      H   11    0.10161      0.00000     0.39728    0.00111     0.39839
      H   12    0.10160      0.00000     0.39729    0.00111     0.39840
      H   13    0.10030      0.00000     0.39883    0.00088     0.39970
      H   14    0.10446      0.00000     0.39463    0.00092     0.39554
      H   15    0.11435      0.00000     0.38261    0.00304     0.38565
      H   16    0.10445      0.00000     0.39463    0.00092     0.39555
      H   17    0.11436      0.00000     0.38260    0.00304     0.38564
      H   18    0.10485      0.00000     0.39398    0.00116     0.39515
 =======================================================================
   * Total *   -0.00000      9.99589    25.87523    0.12888    36.00000

 Normal termination of Gaussian 16 at Tue Dec  8 10:37:57 2020.
