 Gaussian 16, Revision A.03,

 -----------------------------------------------------------
 # opt freq B3LYP/6-31G(d) empiricaldispersion=gd3bj scf=xqc
 -----------------------------------------------------------

 -----------------------------
 CID_14176674_JID_819_neutraal
 -----------------------------
 Symbolic Z-matrix:
 Charge =  0 Multiplicity = 1

 SCF Done:  E(RB3LYP) =  -438.838765349     A.U. after   14 cycles
 SCF Done:  E(RB3LYP) =  -438.842190798     A.U. after   12 cycles
 SCF Done:  E(RB3LYP) =  -438.843082834     A.U. after   11 cycles
 SCF Done:  E(RB3LYP) =  -438.843675907     A.U. after   11 cycles
 SCF Done:  E(RB3LYP) =  -438.843918281     A.U. after   12 cycles
 SCF Done:  E(RB3LYP) =  -438.844034716     A.U. after   11 cycles
 SCF Done:  E(RB3LYP) =  -438.844269353     A.U. after   11 cycles
 SCF Done:  E(RB3LYP) =  -438.844406982     A.U. after   11 cycles
 SCF Done:  E(RB3LYP) =  -438.844444216     A.U. after   10 cycles
 SCF Done:  E(RB3LYP) =  -438.844727197     A.U. after   12 cycles
 SCF Done:  E(RB3LYP) =  -438.845063329     A.U. after    7 cycles
 SCF Done:  E(RB3LYP) =  -438.845063430     A.U. after    7 cycles
 SCF Done:  E(RB3LYP) =  -438.845063590     A.U. after    7 cycles
 SCF Done:  E(RB3LYP) =  -438.845063716     A.U. after    7 cycles
 SCF Done:  E(RB3LYP) =  -438.845063809     A.U. after    7 cycles
 SCF Done:  E(RB3LYP) =  -438.845063864     A.U. after    7 cycles
 Optimization completed.
    -- Stationary point found.

 1\1\GINC-NODE109\FOpt\RB3LYP\6-31G(d)\C7H13N3\VSC10255\08-Dec-2020\0\\
 # opt freq B3LYP/6-31G(d) empiricaldispersion=gd3bj scf=xqc\\CID_14176
 674_JID_819_neutraal\\0,1\C,0.9726356688,0.0292394299,0.0614068798\C,0
 .0917530158,1.2387508115,0.3509810185\N,0.5087590084,2.3799050326,-0.4
 607083771\C,-0.2315191283,3.5515734652,-0.3092509205\C,-1.3672193351,3
 .8495875052,0.4298040945\C,-1.6659953234,5.198094441,0.1037583656\N,-0
 .7874091002,5.7014123101,-0.7607099096\N,0.077363014,4.6738830372,-1.0
 189560968\C,1.1804000129,4.8550754605,-1.9310343734\C,-2.7933165747,6.

 Normal termination of Gaussian 16 at Tue Dec  8 12:49:40 2020.

 --------------------------------------------------------------------
 #N Geom=AllCheck Guess=TCheck SCRF=Check GenChk RB3LYP/6-31G(d) Freq
 --------------------------------------------------------------------

 Structure from the checkpoint file:  "JID_819.chk"
 -----------------------------
 CID_14176674_JID_819_neutraal
 -----------------------------
 Charge =  0 Multiplicity = 1

 SCF Done:  E(RB3LYP) =  -438.845063864     A.U. after    1 cycles

  Exact polarizability: 118.054  -4.824 100.657   1.334  -1.152  58.970
 Approx polarizability: 153.004  -4.052 151.570   1.694  -1.833  86.758

                      1                      2                      3
                      A                      A                      A
 Frequencies --     63.1685                79.6853               103.4012
 Red. masses --      2.4331                 1.5707                 1.0438
 Frc consts  --      0.0057                 0.0059                 0.0066
 IR Inten    --      0.5793                 0.8533                 0.0564

                      4                      5                      6
                      A                      A                      A
 Frequencies --    110.0825               127.0210               161.1661
 Red. masses --      1.7436                 2.0046                 2.6108
 Frc consts  --      0.0124                 0.0191                 0.0400
 IR Inten    --      1.0685                 0.6569                 7.2718

                      7                      8                      9
                      A                      A                      A
 Frequencies --    206.4358               258.3764               263.3309
 Red. masses --      3.1466                 2.0365                 1.2846
 Frc consts  --      0.0790                 0.0801                 0.0525
 IR Inten    --      1.7567                 1.8111                 1.1910

                     10                     11                     12
                      A                      A                      A
 Frequencies --    312.0583               354.0885               358.8816
 Red. masses --      3.0792                 4.1051                 3.3246
 Frc consts  --      0.1767                 0.3032                 0.2523
 IR Inten    --      2.8824                 4.4735                 3.1518

                     13                     14                     15
                      A                      A                      A
 Frequencies --    527.9641               592.8927               645.2041
 Red. masses --      3.2617                 2.1886                 4.5395
 Frc consts  --      0.5357                 0.4533                 1.1134
 IR Inten    --     22.3032                79.6365                 3.2015

                     16                     17                     18
                      A                      A                      A
 Frequencies --    654.9741               675.7086               718.1707
 Red. masses --      4.1704                 3.7822                 1.9631
 Frc consts  --      1.0541                 1.0175                 0.5965
 IR Inten    --     22.7057                 0.5848                11.1927

                     19                     20                     21
                      A                      A                      A
 Frequencies --    744.6919               831.9271               880.2019
 Red. masses --      1.5816                 1.1389                 2.3773
 Frc consts  --      0.5168                 0.4644                 1.0852
 IR Inten    --     40.6137                 0.3490                 5.8764

                     22                     23                     24
                      A                      A                      A
 Frequencies --    944.0681              1002.9385              1030.8548
 Red. masses --      2.0500                 1.6733                 2.8723
 Frc consts  --      1.0765                 0.9917                 1.7983
 IR Inten    --      2.1840                 1.7770                21.5723

                     25                     26                     27
                      A                      A                      A
 Frequencies --   1070.2683              1076.9101              1087.9118
 Red. masses --      2.6082                 1.4766                 2.4228
 Frc consts  --      1.7603                 1.0089                 1.6895
 IR Inten    --      3.6930                 2.2431                 3.9146

                     28                     29                     30
                      A                      A                      A
 Frequencies --   1155.4080              1160.4415              1171.1513
 Red. masses --      1.8167                 1.4931                 1.5736
 Frc consts  --      1.4289                 1.1846                 1.2717
 IR Inten    --      1.4100                13.8068                16.5062

                     31                     32                     33
                      A                      A                      A
 Frequencies --   1204.1043              1235.8529              1308.5893
 Red. masses --      1.5942                 3.2050                 1.1944
 Frc consts  --      1.3619                 2.8841                 1.2051
 IR Inten    --      6.1186                42.2191                18.0752

                     34                     35                     36
                      A                      A                      A
 Frequencies --   1320.8587              1392.0419              1423.3761
 Red. masses --      3.9061                 1.4100                 1.7879
 Frc consts  --      4.0152                 1.6098                 2.1342
 IR Inten    --     19.7870                11.6579                28.4800

                     37                     38                     39
                      A                      A                      A
 Frequencies --   1439.5129              1446.1350              1463.4821
 Red. masses --      1.4631                 1.5275                 1.5869
 Frc consts  --      1.7863                 1.8821                 2.0025
 IR Inten    --      3.4754                33.6477                 9.4928

                     40                     41                     42
                      A                      A                      A
 Frequencies --   1483.0815              1513.5046              1514.1774
 Red. masses --      1.4461                 1.0449                 2.7433
 Frc consts  --      1.8741                 1.4102                 3.7057
 IR Inten    --     10.5746                 4.2517                 4.1912

                     43                     44                     45
                      A                      A                      A
 Frequencies --   1515.4710              1521.7454              1527.7575
 Red. masses --      1.1274                 1.1012                 1.1426
 Frc consts  --      1.5255                 1.5024                 1.5713
 IR Inten    --     31.8653                 0.9735                14.8179

                     46                     47                     48
                      A                      A                      A
 Frequencies --   1532.1185              1539.6568              1554.8626
 Red. masses --      1.1486                 1.0792                 1.0928
 Frc consts  --      1.5885                 1.5073                 1.5566
 IR Inten    --      1.1144                 4.4826                15.1566

                     49                     50                     51
                      A                      A                      A
 Frequencies --   1577.1471              1622.3947              2980.9393
 Red. masses --      3.2135                 5.9456                 1.0733
 Frc consts  --      4.7095                 9.2206                 5.6194
 IR Inten    --     84.6995               165.0999                57.8071

                     52                     53                     54
                      A                      A                      A
 Frequencies --   3032.6992              3044.8536              3048.6594
 Red. masses --      1.0471                 1.0381                 1.0402
 Frc consts  --      5.6743                 5.6706                 5.6964
 IR Inten    --     70.2924                38.9246                21.4045

                     55                     56                     57
                      A                      A                      A
 Frequencies --   3081.1983              3093.5107              3106.3238
 Red. masses --      1.0878                 1.1011                 1.0922
 Frc consts  --      6.0847                 6.2086                 6.2094
 IR Inten    --     11.8967                24.9762                19.9027

                     58                     59                     60
                      A                      A                      A
 Frequencies --   3116.8798              3137.6536              3141.4473
 Red. masses --      1.0981                 1.1035                 1.0996
 Frc consts  --      6.2854                 6.4007                 6.3938
 IR Inten    --     42.2963                25.8522                13.0174

                     61                     62                     63
                      A                      A                      A
 Frequencies --   3175.6680              3275.6727              3510.2140
 Red. masses --      1.1004                 1.0964                 1.0743
 Frc consts  --      6.5385                 6.9315                 7.7988
 IR Inten    --      3.8122                 4.3712                 1.2492

 - Thermochemistry -
 -------------------
 Temperature   298.150 Kelvin.  Pressure   1.00000 Atm.
 Atom     1 has atomic number  6 and mass  12.00000

 Molecular mass:   139.11095 amu.
 Principal axes and moments of inertia in atomic units:
                           1         2         3
     Eigenvalues --   759.475472257.603442968.26194
           X            0.99996  -0.00886   0.00134
           Y            0.00887   0.99996  -0.00207
           Z           -0.00133   0.00208   1.00000
 This molecule is an asymmetric top.
 Rotational symmetry number  1.
 Warning -- assumption of classical behavior for rotation
           may cause significant error
 Rotational temperatures (Kelvin)      0.11404     0.03837     0.02918
 Rotational constants (GHZ):           2.37630     0.79941     0.60801
 Zero-point vibrational energy     527858.0 (Joules/Mol)
                                  126.16110 (Kcal/Mol)
 Warning -- explicit consideration of  14 degrees of freedom as
           vibrations may cause significant error
 Vibrational temperatures:     90.89   114.65   148.77   158.38   182.75
          (Kelvin)            231.88   297.02   371.75   378.87   448.98
                              509.45   516.35   759.62   853.04   928.30
                              942.36   972.19  1033.29  1071.45  1196.96
                             1266.41  1358.30  1443.00  1483.17  1539.88
                             1549.43  1565.26  1662.37  1669.62  1685.03
                             1732.44  1778.12  1882.77  1900.42  2002.84
                             2047.92  2071.14  2080.67  2105.62  2133.82
                             2177.60  2178.56  2180.42  2189.45  2198.10
                             2204.38  2215.22  2237.10  2269.16  2334.26
                             4288.91  4363.38  4380.87  4386.34  4433.16
                             4450.87  4469.31  4484.49  4514.38  4519.84
                             4569.08  4712.96  5050.41

 Zero-point correction=                           0.201051 (Hartree/Particle)
 Thermal correction to Energy=                    0.212300
 Thermal correction to Enthalpy=                  0.213244
 Thermal correction to Gibbs Free Energy=         0.163767
 Sum of electronic and zero-point Energies=           -438.644013
 Sum of electronic and thermal Energies=              -438.632764
 Sum of electronic and thermal Enthalpies=            -438.631820
 Sum of electronic and thermal Free Energies=         -438.681297

                     E (Thermal)             CV                S
                      KCal/Mol        Cal/Mol-Kelvin    Cal/Mol-Kelvin
 Total                  133.220             39.953            104.132
 Electronic               0.000              0.000              0.000
 Translational            0.889              2.981             40.702
 Rotational               0.889              2.981             30.010
 Vibrational            131.443             33.991             33.420
 Vibration     1          0.597              1.972              4.356
 Vibration     2          0.600              1.963              3.899
 Vibration     3          0.605              1.946              3.389
 Vibration     4          0.606              1.941              3.267
 Vibration     5          0.611              1.926              2.991
 Vibration     6          0.622              1.890              2.536
 Vibration     7          0.641              1.831              2.075
 Vibration     8          0.667              1.749              1.673
 Vibration     9          0.670              1.740              1.640
 Vibration    10          0.700              1.651              1.351
 Vibration    11          0.730              1.567              1.148
 Vibration    12          0.734              1.557              1.127
 Vibration    13          0.883              1.188              0.592
 Vibration    14          0.950              1.047              0.462

                           ! Non-Optimized Parameters !

 1\1\GINC-NODE109\Freq\RB3LYP\6-31G(d)\C7H13N3\VSC10255\08-Dec-2020\0\\
 #N Geom=AllCheck Guess=TCheck SCRF=Check GenChk RB3LYP/6-31G(d) Freq\\
 CID_14176674_JID_819_neutraal\\0,1\C,0.9726356688,0.0292394299,0.06140
 68798\C,0.0917530158,1.2387508115,0.3509810185\N,0.5087590084,2.379905
 0326,-0.4607083771\C,-0.2315191283,3.5515734652,-0.3092509205\C,-1.367
 2193351,3.8495875052,0.4298040945\C,-1.6659953234,5.198094441,0.103758
 3656\N,-0.7874091002,5.7014123101,-0.7607099096\N,0.077363014,4.673883
 0372,-1.0189560968\C,1.1804000129,4.8550754605,-1.9310343734\C,-2.7933

 Normal termination of Gaussian 16 at Tue Dec  8 13:06:09 2020.

 ----------------------------------------------------------------------
 # B3LYP/6-311++G(d,p) empiricaldispersion=gd3bj scf=xqc pop=npa geom=c
 heck
 ----------------------------------------------------------------------

 -------------------------------------
 CID_14176674_JID_819_Energie_neutraal
 -------------------------------------
 Structure from the checkpoint file:  "JID_819.chk"
 Charge =  0 Multiplicity = 1

 SCF Done:  E(RB3LYP) =  -438.968712051     A.U. after   14 cycles
 Normal termination of Gaussian 16 at Tue Dec  8 13:08:44 2020.

 ----------------------------------------------------------------------
 # B3LYP/6-311++G(d,p) empiricaldispersion=gd3bj scf=xqc pop=npa geom=c
 heck
 ----------------------------------------------------------------------

 -----------------------------------
 CID_14176674_JID_819_Energie_kation
 -----------------------------------
 Structure from the checkpoint file:  "JID_819.chk"
 Charge =  1 Multiplicity = 2

 SCF Done:  E(UB3LYP) =  -438.689157582     A.U. after   20 cycles
 Normal termination of Gaussian 16 at Tue Dec  8 13:17:20 2020.
 Gaussian 16:  ES64L-G16RevA.03 25-Dec-2016

 ----------------------------------
 CID_14176674_JID_819_Energie_anion
 ----------------------------------
 Structure from the checkpoint file:  "JID_819.chk"
 Charge = -1 Multiplicity = 2

                         Standard orientation:
 ---------------------------------------------------------------------
 Center     Atomic      Atomic             Coordinates (Angstroms)
 Number     Number       Type             X           Y           Z
 ---------------------------------------------------------------------
      1          6           0       -3.852191   -0.528280    0.053895
      2          6           0       -2.380470   -0.917167   -0.020462
      3          7           0       -1.535149    0.273954    0.019911
      4          6           0       -0.158287    0.058261   -0.018622
      5          6           0        0.605823   -1.099739   -0.018514
      6          6           0        1.949952   -0.644786    0.000982
      7          7           0        2.019214    0.684773    0.006047
      8          7           0        0.717129    1.102961    0.011676
      9          6           0        0.398590    2.510041    0.019867
     10          6           0        3.202856   -1.464712    0.010680
     11          1           0       -4.055245    0.044029    0.964557
     12          1           0       -4.486076   -1.420651    0.052511
     13          1           0       -4.143354    0.085896   -0.807770
     14          1           0       -2.109857   -1.537454    0.841288
     15          1           0       -2.190616   -1.524456   -0.921904
     16          1           0       -1.839968    0.971098   -0.654677
     17          1           0        0.249871   -2.118879   -0.036693
     18          1           0       -0.459476    2.687652    0.675960
     19          1           0        1.269631    3.043566    0.401513
     20          1           0        0.166033    2.887090   -0.985582
     21          1           0        4.075294   -0.805897    0.008527
     22          1           0        3.255916   -2.105870    0.899156
     23          1           0        3.261843   -2.119648   -0.867281
 ---------------------------------------------------------------------

 SCF Done:  E(UB3LYP) =  -438.955228158     A.U. after   29 cycles

 The electronic state is 2-A.
 Alpha  occ. eigenvalues --  -14.26848 -14.21830 -14.20964 -10.12907 -10.09971
 Alpha  occ. eigenvalues --  -10.09474 -10.08706 -10.07175 -10.05259 -10.04725
 Alpha  occ. eigenvalues --   -0.93515  -0.82535  -0.73788  -0.67184  -0.63712
 Alpha  occ. eigenvalues --   -0.62541  -0.56812  -0.51933  -0.47314  -0.45929
 Alpha  occ. eigenvalues --   -0.41874  -0.38144  -0.36157  -0.35757  -0.34463
 Alpha  occ. eigenvalues --   -0.32338  -0.31912  -0.30796  -0.28676  -0.28329
 Alpha  occ. eigenvalues --   -0.27711  -0.27112  -0.26466  -0.25055  -0.19038
 Alpha  occ. eigenvalues --   -0.18223  -0.13247  -0.10247   0.04692
 Alpha virt. eigenvalues --    0.07117   0.07347   0.08895   0.09187   0.09954
 Alpha virt. eigenvalues --    0.10602   0.11115   0.11363   0.12354   0.12715
 Alpha virt. eigenvalues --    0.13015   0.13632   0.13921   0.14863   0.15962

  Beta  occ. eigenvalues --  -14.26847 -14.21793 -14.20958 -10.12904 -10.09926
  Beta  occ. eigenvalues --  -10.09451 -10.08705 -10.07166 -10.05200 -10.04718
  Beta  occ. eigenvalues --   -0.93507  -0.82484  -0.73773  -0.67156  -0.63686
  Beta  occ. eigenvalues --   -0.62478  -0.56766  -0.51823  -0.47266  -0.45878
  Beta  occ. eigenvalues --   -0.41830  -0.38100  -0.36116  -0.35731  -0.34416
  Beta  occ. eigenvalues --   -0.32322  -0.31860  -0.30773  -0.28648  -0.28297
  Beta  occ. eigenvalues --   -0.27672  -0.27068  -0.26395  -0.24989  -0.19005
  Beta  occ. eigenvalues --   -0.18199  -0.13234  -0.10223
  Beta virt. eigenvalues --    0.06903   0.07824   0.08258   0.09540   0.09629
  Beta virt. eigenvalues --    0.10545   0.10973   0.11586   0.11870   0.12757
  Beta virt. eigenvalues --    0.13015   0.13266   0.14048   0.14314   0.15313

 Mulliken charges and spin densities:
               1          2
     1  C    2.542619  -3.258929
     2  C   -1.125622   1.081757
     3  N   -0.425387   0.305186
     4  C   -0.239387  -0.026862
     5  C    0.323874   0.191693
     6  C   -0.134805  -0.147377
     7  N   -0.333136   0.252181
     8  N    0.096181  -0.024392
     9  C    0.946283  -1.327954
    10  C    0.090885  -0.896068
    11  H   -0.336716   0.486807
    12  H   -0.414644   0.556965
    13  H   -0.699395   0.846606
    14  H   -0.036759   0.186296
    15  H   -0.286482   0.444543
    16  H   -0.169715   0.431822
    17  H   -0.125310   0.290473
    18  H   -0.289022   0.461679
    19  H   -0.047880   0.197893
    20  H   -0.544245   0.733195
    21  H    0.069526   0.072396
    22  H    0.079352   0.060590
    23  H    0.059784   0.081500
 Sum of Mulliken charges =  -1.00000   1.00000

 Dipole moment (field-independent basis, Debye):
    X=              7.0813    Y=             -2.8985    Z=              2.2927  Tot=              7.9877
 Quadrupole moment (field-independent basis, Debye-Ang):
   XX=           -132.3608   YY=           -101.4286   ZZ=            -92.0426
   XY=             -1.6061   XZ=             -5.1711   YZ=              3.1231

 Summary of Natural Population Analysis:

                                       Natural Population
                Natural  -----------------------------------------------
    Atom  No    Charge         Core      Valence    Rydberg      Total
 -----------------------------------------------------------------------
      C    1   -0.28807      0.99967     2.28311    0.00529     3.28807
      C    2   -0.08550      0.99964     2.07381    0.01205     3.08550
      N    3   -0.32341      0.99968     2.81322    0.01051     3.82341
      C    4    0.19374      0.99951     1.79319    0.01357     2.80626
      C    5   -0.19445      0.99946     2.18758    0.00741     3.19445
      C    6    0.07507      0.99961     1.91194    0.01338     2.92493
      N    7   -0.17413      0.99970     2.66323    0.01120     3.67413
      N    8   -0.12324      0.99962     2.61059    0.01303     3.62324
      C    9   -0.17774      0.99964     2.16961    0.00849     3.17774
      C   10   -0.29646      0.99963     2.29231    0.00452     3.29646
      H   11    0.10062      0.00000     0.39787    0.00151     0.39938
      H   12    0.10191      0.00000     0.39632    0.00176     0.39809
      H   13    0.10166      0.00000     0.39495    0.00339     0.39834
      H   14    0.09221      0.00000     0.40624    0.00155     0.40779
      H   15    0.08501      0.00000     0.41299    0.00200     0.41499
      H   16    0.19142      0.00000     0.30065    0.00793     0.30858
      H   17    0.10814      0.00000     0.39090    0.00096     0.39186
      H   18    0.10381      0.00000     0.39452    0.00167     0.39619
      H   19    0.10585      0.00000     0.39264    0.00151     0.39415
      H   20    0.09816      0.00000     0.39949    0.00234     0.40184
      H   21    0.10629      0.00000     0.39260    0.00112     0.39371
      H   22    0.09924      0.00000     0.39942    0.00133     0.40076
      H   23    0.09988      0.00000     0.39879    0.00133     0.40012
 =======================================================================
   * Total *    0.00000      9.99617    27.87598    0.12785    38.00000

 Normal termination of Gaussian 16 at Tue Dec  8 13:23:55 2020.
