 Gaussian 16, Revision A.03,

 -----------------------------------------------------------
 # opt freq B3LYP/6-31G(d) empiricaldispersion=gd3bj scf=xqc
 -----------------------------------------------------------

 -------------------------------
 CID_152995697_JID_4411_neutraal
 -------------------------------
 Symbolic Z-matrix:
 Charge =  0 Multiplicity = 1

 SCF Done:  E(RB3LYP) =  -635.790384127     A.U. after   14 cycles
 SCF Done:  E(RB3LYP) =  -635.792997728     A.U. after   13 cycles
 SCF Done:  E(RB3LYP) =  -635.791879639     A.U. after   13 cycles
 SCF Done:  E(RB3LYP) =  -635.792213271     A.U. after   13 cycles
 SCF Done:  E(RB3LYP) =  -635.793346891     A.U. after    7 cycles
 SCF Done:  E(RB3LYP) =  -635.793559866     A.U. after   12 cycles
 SCF Done:  E(RB3LYP) =  -635.793613478     A.U. after   10 cycles
 SCF Done:  E(RB3LYP) =  -635.793622158     A.U. after    9 cycles
 SCF Done:  E(RB3LYP) =  -635.793623607     A.U. after    8 cycles
 SCF Done:  E(RB3LYP) =  -635.793624938     A.U. after    8 cycles
 SCF Done:  E(RB3LYP) =  -635.797678480     A.U. after    8 cycles
 SCF Done:  E(RB3LYP) =  -635.797679136     A.U. after    8 cycles
 SCF Done:  E(RB3LYP) =  -635.797679393     A.U. after    7 cycles
 SCF Done:  E(RB3LYP) =  -635.797679537     A.U. after    7 cycles
 SCF Done:  E(RB3LYP) =  -635.797679593     A.U. after    6 cycles
 Optimization completed.
    -- Stationary point found.
 Normal termination of Gaussian 16 at Thu Dec 10 09:58:05 2020.

 --------------------------------------------------------------------
 #N Geom=AllCheck Guess=TCheck SCRF=Check GenChk RB3LYP/6-31G(d) Freq
 --------------------------------------------------------------------

 Structure from the checkpoint file:  "JID_4411.chk"
 -------------------------------
 CID_152995697_JID_4411_neutraal
 -------------------------------
 Charge =  0 Multiplicity = 1

 SCF Done:  E(RB3LYP) =  -635.797679593     A.U. after    1 cycles

  Exact polarizability: 152.528   7.735 118.817   0.987  -1.506 105.135
 Approx polarizability: 197.740  12.749 172.887   5.275  -4.500 167.195

                      1                      2                      3
                      A                      A                      A
 Frequencies --     48.9120                65.4200                84.3518
 Red. masses --      4.8537                 3.3301                 4.6497
 Frc consts  --      0.0068                 0.0084                 0.0195
 IR Inten    --      0.3328                 0.6899                 2.8041

                      4                      5                      6
                      A                      A                      A
 Frequencies --    111.9380               123.6021               157.4228
 Red. masses --      1.2773                 1.8504                 3.4208
 Frc consts  --      0.0094                 0.0167                 0.0499
 IR Inten    --      0.0680                 1.2608                 2.7585

                      7                      8                      9
                      A                      A                      A
 Frequencies --    191.9145               214.9163               231.1642
 Red. masses --      3.4276                 3.6926                 2.2732
 Frc consts  --      0.0744                 0.1005                 0.0716
 IR Inten    --      0.3880                 4.9734                 0.1109

                     10                     11                     12
                      A                      A                      A
 Frequencies --    243.7514               258.2852               271.2659
 Red. masses --      2.0638                 1.3334                 2.5866
 Frc consts  --      0.0722                 0.0524                 0.1121
 IR Inten    --      0.5028                 0.7487                 0.7620

                     13                     14                     15
                      A                      A                      A
 Frequencies --    276.2753               288.0201               332.8771
 Red. masses --      1.9188                 3.4322                 2.7189
 Frc consts  --      0.0863                 0.1678                 0.1775
 IR Inten    --      0.5896                 0.5918                 1.7592

                     16                     17                     18
                      A                      A                      A
 Frequencies --    337.0150               383.5094               394.9316
 Red. masses --      2.8991                 3.2039                 1.9428
 Frc consts  --      0.1940                 0.2776                 0.1785
 IR Inten    --      1.9774                 0.6203                 5.1543

                     19                     20                     21
                      A                      A                      A
 Frequencies --    410.9724               412.3018               459.3878
 Red. masses --      1.6714                 1.7431                 3.2101
 Frc consts  --      0.1663                 0.1746                 0.3991
 IR Inten    --     63.7702                57.1587                 5.5988

                     22                     23                     24
                      A                      A                      A
 Frequencies --    573.4121               587.0648               624.5830
 Red. masses --      3.2751                 3.9253                 3.0589
 Frc consts  --      0.6345                 0.7971                 0.7031
 IR Inten    --      3.3134                26.5685                 1.1783

                     25                     26                     27
                      A                      A                      A
 Frequencies --    675.9052               719.3650               759.8892
 Red. masses --      3.0721                 3.2302                 2.4680
 Frc consts  --      0.8269                 0.9849                 0.8396
 IR Inten    --      0.6532                 0.6539                 4.0597

                     28                     29                     30
                      A                      A                      A
 Frequencies --    792.7337               822.8103               893.9757
 Red. masses --      2.4523                 2.7114                 2.0182
 Frc consts  --      0.9080                 1.0816                 0.9503
 IR Inten    --      6.0261                 7.7604                16.7395

                     31                     32                     33
                      A                      A                      A
 Frequencies --    918.4637               942.3538               950.6126
 Red. masses --      1.8666                 1.8519                 1.6322
 Frc consts  --      0.9277                 0.9689                 0.8690
 IR Inten    --     21.0866                 3.5715                 5.2130

                     34                     35                     36
                      A                      A                      A
 Frequencies --    982.4529               983.6920               990.3774
 Red. masses --      5.4003                 1.5012                 1.6990
 Frc consts  --      3.0711                 0.8559                 0.9818
 IR Inten    --    151.0425                11.0360                 3.3539

                     37                     38                     39
                      A                      A                      A
 Frequencies --   1037.5075              1044.8800              1054.9736
 Red. masses --      2.0323                 1.6720                 1.8223
 Frc consts  --      1.2889                 1.0755                 1.1950
 IR Inten    --     19.6079                 1.3590                 6.5191

                     40                     41                     42
                      A                      A                      A
 Frequencies --   1074.3345              1082.7100              1122.4083
 Red. masses --      1.6190                 1.9705                 1.7619
 Frc consts  --      1.1009                 1.3610                 1.3078
 IR Inten    --      3.6095                 5.6554                 4.9967

                     43                     44                     45
                      A                      A                      A
 Frequencies --   1144.1686              1149.9062              1173.3643
 Red. masses --      1.6402                 1.7924                 2.0752
 Frc consts  --      1.2651                 1.3964                 1.6833
 IR Inten    --      7.6774                 2.8949                 8.2365

                     46                     47                     48
                      A                      A                      A
 Frequencies --   1186.5340              1228.6345              1260.3617
 Red. masses --      2.4807                 3.0344                 1.4085
 Frc consts  --      2.0577                 2.6988                 1.3182
 IR Inten    --      7.1372                 3.9299                 0.5568

                     49                     50                     51
                      A                      A                      A
 Frequencies --   1279.3263              1300.0656              1317.0900
 Red. masses --      1.3775                 1.2179                 1.2798
 Frc consts  --      1.3283                 1.2128                 1.3080
 IR Inten    --      1.3127                26.1315                12.3464

                     52                     53                     54
                      A                      A                      A
 Frequencies --   1329.7208              1334.9704              1349.4220
 Red. masses --      1.2543                 1.2887                 1.3529
 Frc consts  --      1.3067                 1.3531                 1.4514
 IR Inten    --      3.3681                12.4312                 3.7361

                     55                     56                     57
                      A                      A                      A
 Frequencies --   1372.8547              1388.6910              1403.5247
 Red. masses --      1.6171                 1.5638                 1.3824
 Frc consts  --      1.7957                 1.7768                 1.6045
 IR Inten    --     18.0264                 6.0748                10.1825

                     58                     59                     60
                      A                      A                      A
 Frequencies --   1410.8977              1413.6432              1417.6135
 Red. masses --      1.3083                 1.3147                 1.3129
 Frc consts  --      1.5344                 1.5480                 1.5545
 IR Inten    --      0.4193                 4.8686                 1.6523

                     61                     62                     63
                      A                      A                      A
 Frequencies --   1440.2276              1447.5119              1448.7290
 Red. masses --      1.2668                 1.2820                 1.2626
 Frc consts  --      1.5482                 1.5827                 1.5613
 IR Inten    --      4.0060                 5.7362                13.2435

                     64                     65                     66
                      A                      A                      A
 Frequencies --   1455.5194              1466.6178              1512.3839
 Red. masses --      1.2271                 1.4320                 1.0865
 Frc consts  --      1.5317                 1.8148                 1.4642
 IR Inten    --     16.5922                26.0517                 1.2839

                     67                     68                     69
                      A                      A                      A
 Frequencies --   1515.4347              1523.1284              1532.8158
 Red. masses --      1.0506                 1.0483                 1.0485
 Frc consts  --      1.4216                 1.4329                 1.4514
 IR Inten    --      0.4807                 5.2835                 8.7916

                     70                     71                     72
                      A                      A                      A
 Frequencies --   1543.2748              1545.0287              1553.2800
 Red. masses --      1.0514                 1.0536                 1.0476
 Frc consts  --      1.4754                 1.4819                 1.4892
 IR Inten    --      5.4487                 3.3737                 2.5835

                     73                     74                     75
                      A                      A                      A
 Frequencies --   1733.9556              1827.2864              2870.8816
 Red. masses --      6.5862                10.5233                 1.0824
 Frc consts  --     11.6670                20.7021                 5.2562
 IR Inten    --      0.3354               151.5083               141.3691

                     76                     77                     78
                      A                      A                      A
 Frequencies --   2946.3779              3002.7750              3017.9508
 Red. masses --      1.0799                 1.0813                 1.0805
 Frc consts  --      5.5235                 5.7443                 5.7985
 IR Inten    --     17.4042                26.3892                22.7041

                     79                     80                     81
                      A                      A                      A
 Frequencies --   3028.3987              3036.9043              3046.2459
 Red. masses --      1.0763                 1.0762                 1.0836
 Frc consts  --      5.8158                 5.8482                 5.9246
 IR Inten    --      7.0287                60.2243                33.1778

                     82                     83                     84
                      A                      A                      A
 Frequencies --   3055.7620              3061.0021              3068.3873
 Red. masses --      1.0433                 1.0454                 1.0978
 Frc consts  --      5.7400                 5.7713                 6.0896
 IR Inten    --     23.3525                11.7030                45.1975

                     85                     86                     87
                      A                      A                      A
 Frequencies --   3079.3575              3108.7535              3114.7934
 Red. masses --      1.0448                 1.1016                 1.1005
 Frc consts  --      5.8374                 6.2727                 6.2908
 IR Inten    --     18.4050                29.9249                35.2149

                     88                     89                     90
                      A                      A                      A
 Frequencies --   3138.1558              3145.8572              3159.7855
 Red. masses --      1.0877                 1.0936                 1.0969
 Frc consts  --      6.3110                 6.3763                 6.4526
 IR Inten    --     15.9144                22.9795                42.5880

                     91                     92                     93
                      A                      A                      A
 Frequencies --   3171.0504              3191.6956              3757.1874
 Red. masses --      1.0991                 1.0918                 1.0676
 Frc consts  --      6.5117                 6.5532                 8.8796
 IR Inten    --     16.6692                22.5505                73.2255

 - Thermochemistry -
 -------------------
 Temperature   298.150 Kelvin.  Pressure   1.00000 Atm.
 Atom     1 has atomic number  6 and mass  12.00000

 Molecular mass:   197.14158 amu.
 Principal axes and moments of inertia in atomic units:
                           1         2         3
     Eigenvalues --  1840.462863917.432874888.40193
           X            0.99982   0.01875  -0.00122
           Y           -0.01874   0.99981   0.00576
           Z            0.00133  -0.00573   0.99998
 This molecule is an asymmetric top.
 Rotational symmetry number  1.
 Warning -- assumption of classical behavior for rotation
           may cause significant error
 Rotational temperatures (Kelvin)      0.04706     0.02211     0.01772
 Rotational constants (GHZ):           0.98059     0.46069     0.36919
 Zero-point vibrational energy     765251.4 (Joules/Mol)
                                  182.89948 (Kcal/Mol)
 Warning -- explicit consideration of  23 degrees of freedom as
           vibrations may cause significant error
 Vibrational temperatures:     70.37    94.12   121.36   161.05   177.84
          (Kelvin)            226.50   276.12   309.22   332.59   350.70
                              371.61   390.29   397.50   414.40   478.94
                              484.89   551.78   568.22   591.30   593.21
                              660.96   825.01   844.66   898.64   972.48
                             1035.01  1093.31  1140.57  1183.84  1286.23
                             1321.46  1355.84  1367.72  1413.53  1415.31
                             1424.93  1492.74  1503.35  1517.87  1545.73
                             1557.78  1614.90  1646.20  1654.46  1688.21
                             1707.16  1767.73  1813.38  1840.67  1870.50
                             1895.00  1913.17  1920.72  1941.52  1975.23
                             1998.02  2019.36  2029.97  2033.92  2039.63
                             2072.17  2082.65  2084.40  2094.17  2110.14
                             2175.98  2180.37  2191.44  2205.38  2220.43
                             2222.95  2234.82  2494.78  2629.06  4130.56
                             4239.18  4320.32  4342.16  4357.19  4369.43
                             4382.87  4396.56  4404.10  4414.72  4430.51
                             4472.80  4481.49  4515.11  4526.19  4546.23
                             4562.43  4592.14  5405.75

 Zero-point correction=                           0.291469 (Hartree/Particle)
 Thermal correction to Energy=                    0.306646
 Thermal correction to Enthalpy=                  0.307590
 Thermal correction to Gibbs Free Energy=         0.249975
 Sum of electronic and zero-point Energies=           -635.506211
 Sum of electronic and thermal Energies=              -635.491033
 Sum of electronic and thermal Enthalpies=            -635.490089
 Sum of electronic and thermal Free Energies=         -635.547705

                     E (Thermal)             CV                S
                      KCal/Mol        Cal/Mol-Kelvin    Cal/Mol-Kelvin
 Total                  192.423             57.587            121.262
 Electronic               0.000              0.000              0.000
 Translational            0.889              2.981             41.741
 Rotational               0.889              2.981             31.933
 Vibrational            190.646             51.626             47.588
 Vibration     1          0.595              1.978              4.861
 Vibration     2          0.597              1.971              4.287
 Vibration     3          0.601              1.960              3.787
 Vibration     4          0.607              1.940              3.235
 Vibration     5          0.610              1.929              3.043
 Vibration     6          0.621              1.894              2.581
 Vibration     7          0.634              1.851              2.209
 Vibration     8          0.645              1.818              2.002
 Vibration     9          0.653              1.793              1.870
 Vibration    10          0.659              1.773              1.775
 Vibration    11          0.667              1.749              1.673
 Vibration    12          0.675              1.726              1.588
 Vibration    13          0.678              1.717              1.557
 Vibration    14          0.685              1.696              1.486
 Vibration    15          0.715              1.610              1.246
 Vibration    16          0.718              1.602              1.226
 Vibration    17          0.753              1.505              1.025
 Vibration    18          0.762              1.481              0.981
 Vibration    19          0.775              1.446              0.923
 Vibration    20          0.776              1.444              0.919
 Vibration    21          0.817              1.340              0.768
 Vibration    22          0.930              1.089              0.498
 Vibration    23          0.944              1.059              0.472

                           ! Non-Optimized Parameters !
 Normal termination of Gaussian 16 at Thu Dec 10 10:08:46 2020.

 ----------------------------------------------------------------------
 # B3LYP/6-311++G(d,p) empiricaldispersion=gd3bj scf=xqc pop=npa geom=c
 heck
 ----------------------------------------------------------------------

 ---------------------------------------
 CID_152995697_JID_4411_Energie_neutraal
 ---------------------------------------
 Structure from the checkpoint file:  "JID_4411.chk"
 Charge =  0 Multiplicity = 1

 SCF Done:  E(RB3LYP) =  -635.987182766     A.U. after   15 cycles
 Normal termination of Gaussian 16 at Thu Dec 10 10:13:39 2020.

 ----------------------------------------------------------------------
 # B3LYP/6-311++G(d,p) empiricaldispersion=gd3bj scf=xqc pop=npa geom=c
 heck
 ----------------------------------------------------------------------

 -------------------------------------
 CID_152995697_JID_4411_Energie_kation
 -------------------------------------
 Structure from the checkpoint file:  "JID_4411.chk"
 Charge =  1 Multiplicity = 2

 SCF Done:  E(UB3LYP) =  -635.665371137     A.U. after   28 cycles
 Normal termination of Gaussian 16 at Thu Dec 10 10:25:41 2020.
 Gaussian 16:  ES64L-G16RevA.03 25-Dec-2016

 ----------------------------------------------------------------------
 # B3LYP/6-311++G(d,p) empiricaldispersion=gd3bj scf=xqc pop=npa geom=c
 heck
 ----------------------------------------------------------------------

 ------------------------------------
 CID_152995697_JID_4411_Energie_anion
 ------------------------------------
 Structure from the checkpoint file:  "JID_4411.chk"
 Charge = -1 Multiplicity = 2

                         Standard orientation:
 ---------------------------------------------------------------------
 Center     Atomic      Atomic             Coordinates (Angstroms)
 Number     Number       Type             X           Y           Z
 ---------------------------------------------------------------------
      1          6           0       -0.769809    2.193198    1.034935
      2          6           0       -0.598143    1.575157   -0.362221
      3          6           0        0.777772    1.857437   -1.004026
      4          6           0        1.935533    0.937528   -0.569655
      5          6           0        1.482875   -0.538149   -0.703973
      6          6           0        0.166151   -0.914357    0.009212
      7          6           0       -0.942575    0.060405   -0.487148
      8          6           0       -2.282047   -0.260937    0.107104
      9          7           0       -3.228206   -0.645256   -0.658814
     10          8           0       -4.403693   -0.893879    0.078069
     11          6           0        0.259688   -1.090236    1.534167
     12          6           0        2.632205   -1.492605   -0.467656
     13          8           0        2.566761   -2.568894    0.085249
     14          6           0        2.562271    1.298130    0.785803
     15          1           0       -0.131356    1.743884    1.796531
     16          1           0       -1.805417    2.104310    1.379283
     17          1           0       -0.529536    3.261886    0.995846
     18          1           0       -1.336900    2.085466   -0.995427
     19          1           0        0.662606    1.743855   -2.090908
     20          1           0        1.054248    2.905629   -0.831632
     21          1           0        2.735403    1.077120   -1.312258
     22          1           0        1.283801   -0.666304   -1.785191
     23          1           0       -0.109821   -1.902645   -0.380040
     24          1           0       -1.044805   -0.129596   -1.564172
     25          1           0       -2.449606   -0.166288    1.181571
     26          1           0       -5.021896   -1.179804   -0.612252
     27          1           0       -0.676727   -1.504863    1.921222
     28          1           0        1.055142   -1.797240    1.775855
     29          1           0        0.451526   -0.161931    2.072771
     30          1           0        3.600823   -1.142094   -0.897448
     31          1           0        3.411574    0.642799    1.012977
     32          1           0        2.936763    2.327732    0.760686
     33          1           0        1.863554    1.223640    1.618495
 ---------------------------------------------------------------------

 SCF Done:  E(UB3LYP) =  -635.977050822     A.U. after   33 cycles
 SCF Done:  E(UB3LYP) =  -635.977050822     a.u. after    1 cycles

 The electronic state is 2-A.
 Alpha  occ. eigenvalues --  -19.06911 -19.00594 -14.26901 -10.13913 -10.10935
 Alpha  occ. eigenvalues --  -10.08249 -10.07972 -10.07868 -10.07585 -10.07526
 Alpha  occ. eigenvalues --  -10.06277 -10.06073 -10.05709 -10.05541  -0.98873
 Alpha  occ. eigenvalues --   -0.93715  -0.78186  -0.74348  -0.68286  -0.67612
 Alpha  occ. eigenvalues --   -0.60645  -0.60052  -0.58573  -0.51833  -0.50930
 Alpha  occ. eigenvalues --   -0.46939  -0.45119  -0.44310  -0.40971  -0.39560
 Alpha  occ. eigenvalues --   -0.37521  -0.36699  -0.34962  -0.34507  -0.33006
 Alpha  occ. eigenvalues --   -0.32504  -0.32001  -0.31107  -0.30981  -0.29870
 Alpha  occ. eigenvalues --   -0.29618  -0.29050  -0.27544  -0.26699  -0.25158
 Alpha  occ. eigenvalues --   -0.24401  -0.23641  -0.23284  -0.21373  -0.20544
 Alpha  occ. eigenvalues --   -0.20132  -0.18731  -0.16625  -0.14262   0.04428
 Alpha virt. eigenvalues --    0.06011   0.06843   0.07591   0.08016   0.08346
 Alpha virt. eigenvalues --    0.08693   0.09917   0.10163   0.10471   0.10777
 Alpha virt. eigenvalues --    0.11695   0.12843   0.13133   0.13468   0.13575

  Beta  occ. eigenvalues --  -19.06888 -19.00460 -14.26880 -10.13757 -10.10933
  Beta  occ. eigenvalues --  -10.08239 -10.07961 -10.07863 -10.07597 -10.07504
  Beta  occ. eigenvalues --  -10.06260 -10.06040 -10.05705 -10.05501  -0.98829
  Beta  occ. eigenvalues --   -0.93450  -0.78147  -0.74300  -0.68229  -0.67578
  Beta  occ. eigenvalues --   -0.60564  -0.59997  -0.58504  -0.51721  -0.50833
  Beta  occ. eigenvalues --   -0.46825  -0.45038  -0.44197  -0.40927  -0.39483
  Beta  occ. eigenvalues --   -0.37465  -0.36566  -0.34870  -0.34390  -0.32915
  Beta  occ. eigenvalues --   -0.32448  -0.31961  -0.31059  -0.30939  -0.29788
  Beta  occ. eigenvalues --   -0.29578  -0.29002  -0.27044  -0.26642  -0.25123
  Beta  occ. eigenvalues --   -0.24345  -0.23595  -0.23122  -0.21279  -0.20486
  Beta  occ. eigenvalues --   -0.20084  -0.18682  -0.16580  -0.14148
  Beta virt. eigenvalues --    0.06660   0.07152   0.07900   0.08262   0.08342
  Beta virt. eigenvalues --    0.08782   0.09149   0.10182   0.10583   0.10759
  Beta virt. eigenvalues --    0.11032   0.11919   0.13123   0.13306   0.13683

 Mulliken charges and spin densities:
               1          2
     1  C    0.124147  -0.811886
     2  C   -0.232017   0.513704
     3  C    0.432140  -1.224441
     4  C   -0.330582   0.652651
     5  C    0.003757   0.107253
     6  C    0.973600  -0.669647
     7  C   -0.159373  -0.284832
     8  C   -0.355415   0.164302
     9  N   -0.260826   0.021435
    10  O   -0.022215  -0.013723
    11  C   -0.583704  -0.080255
    12  C    0.123286  -0.569456
    13  O   -0.270897   0.057375
    14  C    0.587073  -1.238953
    15  H    0.082386   0.054123
    16  H    0.002577   0.138796
    17  H   -0.092285   0.240254
    18  H   -0.071905   0.295714
    19  H   -0.224199   0.379883
    20  H   -0.254360   0.432218
    21  H   -0.477414   0.719247
    22  H   -0.149877   0.383014
    23  H    0.254939  -0.005482
    24  H   -0.070915   0.332430
    25  H    0.131022   0.026986
    26  H   -0.003251   0.272985
    27  H    0.103333   0.030296
    28  H    0.188209  -0.012252
    29  H    0.110818   0.012730
    30  H   -0.155180   0.243157
    31  H   -0.054159   0.216335
    32  H   -0.322041   0.476581
    33  H   -0.026672   0.139458
 Sum of Mulliken charges =  -1.00000   1.00000

 Dipole moment (field-independent basis, Debye):
    X=             -2.3110    Y=             -1.4180    Z=              3.1019  Tot=              4.1199
 Quadrupole moment (field-independent basis, Debye-Ang):
   XX=           -154.1512   YY=           -136.5454   ZZ=           -118.3515
   XY=             -3.8292   XZ=              0.8822   YZ=              3.8839

 Summary of Natural Population Analysis:

                                       Natural Population
                Natural  -----------------------------------------------
    Atom  No    Charge         Core      Valence    Rydberg      Total
 -----------------------------------------------------------------------
      C    1   -0.28540      0.99963     2.28022    0.00555     3.28540
      C    2   -0.10668      0.99957     2.09566    0.01144     3.10668
      C    3   -0.18363      0.99959     2.17308    0.01096     3.18363
      C    4   -0.10981      0.99958     2.09608    0.01415     3.10981
      C    5   -0.15985      0.99953     2.14799    0.01233     3.15985
      C    6   -0.10253      0.99956     2.09124    0.01173     3.10253
      C    7   -0.13045      0.99954     2.11697    0.01394     3.13045
      C    8    0.04506      0.99960     1.93845    0.01689     2.95494
      N    9   -0.07840      0.99962     2.56538    0.01339     3.57840
      O   10   -0.29049      0.99990     3.28393    0.00666     4.29049
      C   11   -0.29009      0.99963     2.28580    0.00466     3.29009
      C   12    0.25404      0.99969     1.72591    0.02036     2.74596
      O   13   -0.27409      0.99988     3.26807    0.00615     4.27409
      C   14   -0.28444      0.99963     2.27869    0.00612     3.28444
      H   15    0.09466      0.00000     0.40434    0.00100     0.40534
      H   16    0.09729      0.00000     0.40176    0.00095     0.40271
      H   17    0.10145      0.00000     0.39769    0.00086     0.39855
      H   18    0.09907      0.00000     0.39918    0.00175     0.40093
      H   19    0.10335      0.00000     0.39462    0.00202     0.39665
      H   20    0.10136      0.00000     0.39718    0.00147     0.39864
      H   21    0.10145      0.00000     0.39560    0.00295     0.39855
      H   22    0.12010      0.00000     0.37774    0.00216     0.37990
      H   23    0.10427      0.00000     0.39433    0.00140     0.39573
      H   24    0.11186      0.00000     0.38570    0.00244     0.38814
      H   25    0.08629      0.00000     0.41184    0.00188     0.41371
      H   26    0.23360      0.00000     0.26156    0.00484     0.26640
      H   27    0.09607      0.00000     0.40317    0.00076     0.40393
      H   28    0.11298      0.00000     0.38613    0.00090     0.38702
      H   29    0.09269      0.00000     0.40638    0.00093     0.40731
      H   30    0.04433      0.00000     0.45323    0.00244     0.45567
      H   31    0.09998      0.00000     0.39903    0.00099     0.40002
      H   32    0.10201      0.00000     0.39679    0.00120     0.39799
      H   33    0.09397      0.00000     0.40491    0.00111     0.40603
 =======================================================================
   * Total *    0.00000     13.99497    39.81864    0.18639    54.00000

 Normal termination of Gaussian 16 at Thu Dec 10 10:38:53 2020.
