 Gaussian 16, Revision A.03,

 -----------------------------------------------------------
 # opt freq B3LYP/6-31G(d) empiricaldispersion=gd3bj scf=xqc
 -----------------------------------------------------------

 -------------------------------
 CID_134933290_JID_4019_neutraal
 -------------------------------
 Symbolic Z-matrix:
 Charge =  0 Multiplicity = 1

 SCF Done:  E(RB3LYP) =  -906.878665160     A.U. after   14 cycles
 SCF Done:  E(RB3LYP) =  -906.885948641     A.U. after   12 cycles
 SCF Done:  E(RB3LYP) =  -906.888095707     A.U. after   12 cycles
 SCF Done:  E(RB3LYP) =  -906.888665277     A.U. after   13 cycles
 SCF Done:  E(RB3LYP) =  -906.889335048     A.U. after   12 cycles
 SCF Done:  E(RB3LYP) =  -906.890688431     A.U. after   12 cycles
 SCF Done:  E(RB3LYP) =  -906.892160218     A.U. after   12 cycles
 SCF Done:  E(RB3LYP) =  -906.892853826     A.U. after   14 cycles
 SCF Done:  E(RB3LYP) =  -906.893388496     A.U. after   12 cycles
 SCF Done:  E(RB3LYP) =  -906.893685836     A.U. after   12 cycles
 SCF Done:  E(RB3LYP) =  -906.894497746     A.U. after    7 cycles
 SCF Done:  E(RB3LYP) =  -906.894497894     A.U. after    7 cycles
 SCF Done:  E(RB3LYP) =  -906.894497974     A.U. after    7 cycles
 SCF Done:  E(RB3LYP) =  -906.894497979     A.U. after    6 cycles
 Optimization completed.
    -- Stationary point found.
 Normal termination of Gaussian 16 at Thu Dec 10 09:23:02 2020.

 --------------------------------------------------------------------
 #N Geom=AllCheck Guess=TCheck SCRF=Check GenChk RB3LYP/6-31G(d) Freq
 --------------------------------------------------------------------

 Structure from the checkpoint file:  "JID_4019.chk"
 -------------------------------
 CID_134933290_JID_4019_neutraal
 -------------------------------
 Charge =  0 Multiplicity = 1

 SCF Done:  E(RB3LYP) =  -906.894497979     A.U. after    1 cycles

  Exact polarizability: 176.816   6.891 144.031  -6.730  -4.489 130.273
 Approx polarizability: 229.908  13.939 212.791 -14.737  -9.310 203.956

                      1                      2                      3
                      A                      A                      A
 Frequencies --     28.9457                53.3031                65.5845
 Red. masses --      2.9027                 3.3790                 3.3745
 Frc consts  --      0.0014                 0.0057                 0.0086
 IR Inten    --      0.0206                 0.0543                 0.2403

                      4                      5                      6
                      A                      A                      A
 Frequencies --    103.4502               137.3364               148.5248
 Red. masses --      2.3611                 2.1715                 2.2587
 Frc consts  --      0.0149                 0.0241                 0.0294
 IR Inten    --      0.0253                 0.0094                 0.0131

                      7                      8                      9
                      A                      A                      A
 Frequencies --    167.9970               177.1061               212.9880
 Red. masses --      1.0816                 2.1872                 3.4443
 Frc consts  --      0.0180                 0.0404                 0.0921
 IR Inten    --      0.3153                 0.0621                 0.1141

                     10                     11                     12
                      A                      A                      A
 Frequencies --    257.8119               301.2368               306.0025
 Red. masses --      1.6941                 2.0379                 4.7977
 Frc consts  --      0.0663                 0.1090                 0.2647
 IR Inten    --      0.2214                 1.1118                 2.5781

                     13                     14                     15
                      A                      A                      A
 Frequencies --    322.4647               335.6177               377.1336
 Red. masses --      2.8561                 3.7697                 3.0104
 Frc consts  --      0.1750                 0.2502                 0.2523
 IR Inten    --      2.9936                 0.6573                 1.1967

                     16                     17                     18
                      A                      A                      A
 Frequencies --    417.7424               434.4404               451.3269
 Red. masses --      3.0510                 2.5052                 3.1582
 Frc consts  --      0.3137                 0.2786                 0.3790
 IR Inten    --      0.5535                 1.0763                 0.3710

                     19                     20                     21
                      A                      A                      A
 Frequencies --    478.3479               530.4329               554.2974
 Red. masses --      3.6234                 2.2411                 2.5758
 Frc consts  --      0.4885                 0.3715                 0.4663
 IR Inten    --      0.0909                 0.3352                 0.9438

                     22                     23                     24
                      A                      A                      A
 Frequencies --    561.9068               647.7774               721.1338
 Red. masses --      3.6689                 3.0617                 2.1323
 Frc consts  --      0.6825                 0.7570                 0.6533
 IR Inten    --      1.7661                 2.1364                 4.8384

                     25                     26                     27
                      A                      A                      A
 Frequencies --    786.3686               827.0268               829.0849
 Red. masses --      1.3642                 2.3288                 2.5245
 Frc consts  --      0.4970                 0.9385                 1.0224
 IR Inten    --      4.3233                 1.3555                 6.7488

                     28                     29                     30
                      A                      A                      A
 Frequencies --    841.0069               868.2682               887.3419
 Red. masses --      1.5420                 2.0987                 2.4440
 Frc consts  --      0.6426                 0.9322                 1.1338
 IR Inten    --      1.4376                 0.8130                 0.7751

                     31                     32                     33
                      A                      A                      A
 Frequencies --    903.2675               915.0036               923.6591
 Red. masses --      1.9464                 1.5589                 1.8701
 Frc consts  --      0.9356                 0.7690                 0.9400
 IR Inten    --      1.2014                 0.1057                 0.4981

                     34                     35                     36
                      A                      A                      A
 Frequencies --    939.1635               940.4836              1002.4322
 Red. masses --      1.8539                 2.2477                 1.9806
 Frc consts  --      0.9634                 1.1713                 1.1726
 IR Inten    --      0.5498                 1.8953                 6.3501

                     37                     38                     39
                      A                      A                      A
 Frequencies --   1006.8134              1037.7307              1053.2639
 Red. masses --      2.5224                 1.6971                 1.9681
 Frc consts  --      1.5065                 1.0768                 1.2864
 IR Inten    --      2.8936                 3.8277                 0.1647

                     40                     41                     42
                      A                      A                      A
 Frequencies --   1055.7023              1085.0879              1090.2236
 Red. masses --      1.4083                 1.8608                 2.0165
 Frc consts  --      0.9248                 1.2909                 1.4121
 IR Inten    --      2.1866                 0.4036                 2.1119

                     43                     44                     45
                      A                      A                      A
 Frequencies --   1108.6526              1117.9534              1129.4836
 Red. masses --      3.7809                 1.8683                 1.1642
 Frc consts  --      2.7380                 1.3758                 0.8751
 IR Inten    --      0.1444                 0.4853                 0.8665

                     46                     47                     48
                      A                      A                      A
 Frequencies --   1134.1112              1159.4754              1179.6334
 Red. masses --      2.2395                 2.1365                 1.2311
 Frc consts  --      1.6971                 1.6923                 1.0093
 IR Inten    --      4.7245                 3.8858                 2.2946

                     49                     50                     51
                      A                      A                      A
 Frequencies --   1211.4216              1220.2202              1227.7205
 Red. masses --      1.4003                 1.2904                 2.4432
 Frc consts  --      1.2108                 1.1320                 2.1697
 IR Inten    --      0.2432                 0.0896                 2.9196

                     52                     53                     54
                      A                      A                      A
 Frequencies --   1256.6432              1274.9233              1290.6411
 Red. masses --      1.2658                 1.2953                 1.2670
 Frc consts  --      1.1777                 1.2404                 1.2434
 IR Inten    --      3.1620                 5.8922                 0.8566

                     55                     56                     57
                      A                      A                      A
 Frequencies --   1307.2259              1313.5209              1323.9192
 Red. masses --      1.1753                 1.1905                 1.2240
 Frc consts  --      1.1834                 1.2102                 1.2640
 IR Inten    --      3.2755                 4.8113                 5.7610

                     58                     59                     60
                      A                      A                      A
 Frequencies --   1335.0878              1371.8323              1380.9462
 Red. masses --      1.2111                 1.4358                 1.3703
 Frc consts  --      1.2719                 1.5921                 1.5396
 IR Inten    --      1.3151                12.9973                 0.6053

                     61                     62                     63
                      A                      A                      A
 Frequencies --   1382.4800              1386.0783              1389.3654
 Red. masses --      1.4184                 1.3428                 1.3290
 Frc consts  --      1.5973                 1.5200                 1.5116
 IR Inten    --      2.0647                 1.3497                 1.1420

                     64                     65                     66
                      A                      A                      A
 Frequencies --   1395.5202              1399.0359              1401.8922
 Red. masses --      1.6265                 1.4103                 1.4430
 Frc consts  --      1.8663                 1.6263                 1.6708
 IR Inten    --      3.4639                 0.4506                 0.5098

                     67                     68                     69
                      A                      A                      A
 Frequencies --   1405.7387              1435.3080              1500.1534
 Red. masses --      1.5715                 1.2690                 1.0953
 Frc consts  --      1.8296                 1.5403                 1.4522
 IR Inten    --      2.6666                 5.4045                 0.9375

                     70                     71                     72
                      A                      A                      A
 Frequencies --   1504.8033              1511.1616              1515.7587
 Red. masses --      1.0802                 1.0730                 1.0734
 Frc consts  --      1.4412                 1.4436                 1.4530
 IR Inten    --      2.9595                 5.5639                 1.3781

                     73                     74                     75
                      A                      A                      A
 Frequencies --   1517.3875              1520.2833              1522.1740
 Red. masses --      1.0731                 1.0857                 1.0598
 Frc consts  --      1.4558                 1.4785                 1.4467
 IR Inten    --      3.2578                 2.8393                 4.0960

                     76                     77                     78
                      A                      A                      A
 Frequencies --   1527.6513              1531.1969              1532.8260
 Red. masses --      1.0863                 1.1016                 1.0892
 Frc consts  --      1.4937                 1.5217                 1.5077
 IR Inten    --      2.1729                 0.4330                 7.6941

                     79                     80                     81
                      A                      A                      A
 Frequencies --   1546.5676              1699.5324              3005.3756
 Red. masses --      1.0955                 6.5123                 1.0675
 Frc consts  --      1.5439                11.0826                 5.6809
 IR Inten    --      1.9826                 4.8661                29.2520

                     82                     83                     84
                      A                      A                      A
 Frequencies --   3028.1984              3030.2234              3031.0080
 Red. masses --      1.0706                 1.0599                 1.0714
 Frc consts  --      5.7844                 5.7338                 5.7996
 IR Inten    --     18.6540                12.9243                21.5586

                     85                     86                     87
                      A                      A                      A
 Frequencies --   3032.1375              3037.4478              3039.4295
 Red. masses --      1.0540                 1.0628                 1.0616
 Frc consts  --      5.7094                 5.7770                 5.7784
 IR Inten    --     32.9218                28.3348                20.9295

                     88                     89                     90
                      A                      A                      A
 Frequencies --   3042.5567              3047.4288              3049.3075
 Red. masses --      1.0716                 1.0699                 1.0854
 Frc consts  --      5.8448                 5.8539                 5.9462
 IR Inten    --      4.2012                55.7544                51.3310

                     91                     92                     93
                      A                      A                      A
 Frequencies --   3058.7092              3061.3725              3073.2464
 Red. masses --      1.0696                 1.0666                 1.0992
 Frc consts  --      5.8961                 5.8894                 6.1165
 IR Inten    --     15.1784                14.5200                26.4747

                     94                     95                     96
                      A                      A                      A
 Frequencies --   3075.0061              3077.9215              3082.1600
 Red. masses --      1.0970                 1.0919                 1.0972
 Frc consts  --      6.1118                 6.0948                 6.1412
 IR Inten    --     26.9872                21.2363                66.4676

                     97                     98                     99
                      A                      A                      A
 Frequencies --   3083.1554              3086.8330              3091.1407
 Red. masses --      1.0928                 1.1048                 1.1007
 Frc consts  --      6.1205                 6.2026                 6.1967
 IR Inten    --     52.8015                50.6215                61.6904

                    100                    101                    102
                      A                      A                      A
 Frequencies --   3109.6931              3113.7701              3168.7661
 Red. masses --      1.1023                 1.1032                 1.0955
 Frc consts  --      6.2805                 6.3019                 6.4810
 IR Inten    --     18.5105                52.4333                 6.7013

 - Thermochemistry -
 -------------------
 Temperature   298.150 Kelvin.  Pressure   1.00000 Atm.
 Atom     1 has atomic number  6 and mass  12.00000

 Molecular mass:   210.14422 amu.
 Principal axes and moments of inertia in atomic units:
                           1         2         3
     Eigenvalues --  1847.695894940.096325179.75848
           X            1.00000   0.00141  -0.00155
           Y           -0.00147   0.99922  -0.03949
           Z            0.00150   0.03949   0.99922
 This molecule is an asymmetric top.
 Rotational symmetry number  1.
 Warning -- assumption of classical behavior for rotation
           may cause significant error
 Rotational temperatures (Kelvin)      0.04688     0.01753     0.01672
 Rotational constants (GHZ):           0.97675     0.36533     0.34842
 Zero-point vibrational energy     862376.3 (Joules/Mol)
                                  206.11287 (Kcal/Mol)
 Warning -- explicit consideration of  22 degrees of freedom as
           vibrations may cause significant error
 Vibrational temperatures:     41.65    76.69    94.36   148.84   197.60
          (Kelvin)            213.69   241.71   254.82   306.44   370.93
                              433.41   440.27   463.95   482.88   542.61
                              601.04   625.06   649.36   688.24   763.17
                              797.51   808.46   932.01  1037.55  1131.41
                             1189.91  1192.87  1210.02  1249.24  1276.69
                             1299.60  1316.49  1328.94  1351.25  1353.15
                             1442.28  1448.58  1493.06  1515.41  1518.92
                             1561.20  1568.59  1595.10  1608.49  1625.08
                             1631.73  1668.23  1697.23  1742.97  1755.62
                             1766.42  1808.03  1834.33  1856.94  1880.81
                             1889.86  1904.82  1920.89  1973.76  1986.87
                             1989.08  1994.26  1998.99  2007.84  2012.90
                             2017.01  2022.54  2065.09  2158.39  2165.08
                             2174.22  2180.84  2183.18  2187.35  2190.07
                             2197.95  2203.05  2205.39  2225.17  2445.25
                             4324.07  4356.90  4359.82  4360.94  4362.57
                             4370.21  4373.06  4377.56  4384.57  4387.27
                             4400.80  4404.63  4421.72  4424.25  4428.44
                             4434.54  4435.97  4441.26  4447.46  4474.15
                             4480.02  4559.15

 Zero-point correction=                           0.328462 (Hartree/Particle)
 Thermal correction to Energy=                    0.343143
 Thermal correction to Enthalpy=                  0.344087
 Thermal correction to Gibbs Free Energy=         0.286325
 Sum of electronic and zero-point Energies=           -906.566036
 Sum of electronic and thermal Energies=              -906.551355
 Sum of electronic and thermal Enthalpies=            -906.550411
 Sum of electronic and thermal Free Energies=         -906.608173

                     E (Thermal)             CV                S
                      KCal/Mol        Cal/Mol-Kelvin    Cal/Mol-Kelvin
 Total                  215.325             56.877            121.571
 Electronic               0.000              0.000              0.000
 Translational            0.889              2.981             41.932
 Rotational               0.889              2.981             32.225
 Vibrational            213.548             50.916             47.414
 Vibration     1          0.593              1.984              5.900
 Vibration     2          0.596              1.976              4.691
 Vibration     3          0.597              1.971              4.282
 Vibration     4          0.605              1.946              3.388
 Vibration     5          0.614              1.916              2.841
 Vibration     6          0.618              1.904              2.691
 Vibration     7          0.625              1.882              2.458
 Vibration     8          0.628              1.871              2.359
 Vibration     9          0.644              1.821              2.018
 Vibration    10          0.667              1.750              1.677
 Vibration    11          0.693              1.671              1.410
 Vibration    12          0.696              1.662              1.384
 Vibration    13          0.707              1.630              1.298
 Vibration    14          0.717              1.604              1.233
 Vibration    15          0.748              1.519              1.051
 Vibration    16          0.781              1.432              0.900
 Vibration    17          0.795              1.395              0.844
 Vibration    18          0.810              1.358              0.792
 Vibration    19          0.835              1.298              0.715
 Vibration    20          0.885              1.183              0.586
 Vibration    21          0.910              1.130              0.535
 Vibration    22          0.918              1.114              0.520

 Optimization completed.
    -- Stationary point found.
 Normal termination of Gaussian 16 at Thu Dec 10 09:34:15 2020.

 ----------------------------------------------------------------------
 # B3LYP/6-311++G(d,p) empiricaldispersion=gd3bj scf=xqc pop=npa geom=c
 heck
 ----------------------------------------------------------------------

 ---------------------------------------
 CID_134933290_JID_4019_Energie_neutraal
 ---------------------------------------
 Structure from the checkpoint file:  "JID_4019.chk"
 Charge =  0 Multiplicity = 1

 SCF Done:  E(RB3LYP) =  -907.054689903     A.U. after   14 cycles
 Normal termination of Gaussian 16 at Thu Dec 10 09:39:23 2020.

 ----------------------------------------------------------------------
 # B3LYP/6-311++G(d,p) empiricaldispersion=gd3bj scf=xqc pop=npa geom=c
 heck
 ----------------------------------------------------------------------

 -------------------------------------
 CID_134933290_JID_4019_Energie_kation
 -------------------------------------
 Structure from the checkpoint file:  "JID_4019.chk"
 Charge =  1 Multiplicity = 2

 SCF Done:  E(UB3LYP) =  -906.764816650     A.U. after   33 cycles
 SCF Done:  E(UB3LYP) =  -906.764816658     a.u. after    2 cycles
 Normal termination of Gaussian 16 at Thu Dec 10 10:04:52 2020.
 Gaussian 16:  ES64L-G16RevA.03 25-Dec-2016

 ----------------------------------------------------------------------
 # B3LYP/6-311++G(d,p) empiricaldispersion=gd3bj scf=xqc pop=npa geom=c
 heck
 ----------------------------------------------------------------------

 ------------------------------------
 CID_134933290_JID_4019_Energie_anion
 ------------------------------------
 Structure from the checkpoint file:  "JID_4019.chk"
 Charge = -1 Multiplicity = 2

                         Standard orientation:
 ---------------------------------------------------------------------
 Center     Atomic      Atomic             Coordinates (Angstroms)
 Number     Number       Type             X           Y           Z
 ---------------------------------------------------------------------
      1          6           0        1.687603    2.399713    0.215357
      2          6           0        1.933818    0.929656    0.006803
      3          6           0        1.261030   -0.065873    0.620862
      4          6           0        1.607832   -1.532414    0.438729
      5          6           0        2.970544   -1.752464   -0.225253
      6          6           0        3.119103   -0.824901   -1.430545
      7          6           0        3.056117    0.633001   -0.971544
      8         16           0       -0.059800    0.266907    1.798019
      9          6           0       -1.601881    0.158716    0.771678
     10          6           0       -1.616513    1.161182   -0.397056
     11          6           0       -2.677324    0.792060   -1.462816
     12          6           0       -3.864644    0.055929   -0.833225
     13          6           0       -3.412724   -1.291967   -0.224650
     14          6           0       -1.948066   -1.247969    0.275286
     15          1           0        2.629484    2.905182    0.468937
     16          1           0        1.324643    2.864588   -0.711467
     17          1           0        0.960906    2.590106    1.005198
     18          1           0        1.573884   -2.022776    1.418351
     19          1           0        0.823278   -2.018405   -0.158711
     20          1           0        3.769339   -1.535632    0.497201
     21          1           0        3.080190   -2.803622   -0.517220
     22          1           0        4.058695   -1.011647   -1.963627
     23          1           0        2.303997   -1.021278   -2.140769
     24          1           0        2.952020    1.302206   -1.837025
     25          1           0        4.009351    0.917747   -0.498268
     26          1           0       -2.356210    0.451890    1.513082
     27          1           0       -1.798236    2.166616   -0.001244
     28          1           0       -0.626975    1.177709   -0.864627
     29          1           0       -2.225199    0.145017   -2.226332
     30          1           0       -3.010320    1.696211   -1.985337
     31          1           0       -4.657317   -0.109360   -1.571864
     32          1           0       -4.301661    0.691852   -0.051714
     33          1           0       -3.510363   -2.089766   -0.970993
     34          1           0       -4.078135   -1.560501    0.604742
     35          1           0       -1.267057   -1.507755   -0.544131
     36          1           0       -1.786894   -1.986917    1.065748
 ---------------------------------------------------------------------

 SCF Done:  E(UB3LYP) =  -907.039598014     A.U. after   33 cycles
 SCF Done:  E(UB3LYP) =  -907.039598015     a.u. after    1 cycles

 The electronic state is 2-A.
 Alpha  occ. eigenvalues --  -88.73414 -10.10410 -10.09491 -10.08835 -10.07340
 Alpha  occ. eigenvalues --  -10.07255 -10.06945 -10.06919 -10.06844 -10.06688
 Alpha  occ. eigenvalues --  -10.06679 -10.06641 -10.06623 -10.06480  -7.82055
 Alpha  occ. eigenvalues --   -5.78448  -5.78082  -5.77430  -0.75535  -0.73915
 Alpha  occ. eigenvalues --   -0.68399  -0.67140  -0.64450  -0.64236  -0.59723
 Alpha  occ. eigenvalues --   -0.57321  -0.52621  -0.51876  -0.50577  -0.48376
 Alpha  occ. eigenvalues --   -0.43531  -0.40113  -0.39223  -0.37980  -0.36182
 Alpha  occ. eigenvalues --   -0.34898  -0.34580  -0.33764  -0.33582  -0.31595
 Alpha  occ. eigenvalues --   -0.30756  -0.29538  -0.28442  -0.28099  -0.27969
 Alpha  occ. eigenvalues --   -0.27512  -0.27254  -0.26890  -0.25863  -0.25016
 Alpha  occ. eigenvalues --   -0.23335  -0.22503  -0.21409  -0.21082  -0.20576
 Alpha  occ. eigenvalues --   -0.19593  -0.14186  -0.12585   0.04389
 Alpha virt. eigenvalues --    0.05919   0.06868   0.07519   0.07923   0.08194
 Alpha virt. eigenvalues --    0.08325   0.09325   0.09768   0.09972   0.10343
 Alpha virt. eigenvalues --    0.10834   0.10967   0.11346   0.12000   0.12831

  Beta  occ. eigenvalues --  -88.73411 -10.10407 -10.09488 -10.08835 -10.07316
  Beta  occ. eigenvalues --  -10.07246 -10.06928 -10.06906 -10.06827 -10.06678
  Beta  occ. eigenvalues --  -10.06660 -10.06616 -10.06606 -10.06455  -7.82052
  Beta  occ. eigenvalues --   -5.78446  -5.78073  -5.77428  -0.75516  -0.73891
  Beta  occ. eigenvalues --   -0.68369  -0.67114  -0.64417  -0.64200  -0.59689
  Beta  occ. eigenvalues --   -0.57287  -0.52576  -0.51826  -0.50537  -0.48314
  Beta  occ. eigenvalues --   -0.43477  -0.40084  -0.39198  -0.37933  -0.36139
  Beta  occ. eigenvalues --   -0.34865  -0.34558  -0.33737  -0.33556  -0.31570
  Beta  occ. eigenvalues --   -0.30726  -0.29507  -0.28419  -0.28072  -0.27936
  Beta  occ. eigenvalues --   -0.27477  -0.27226  -0.26857  -0.25833  -0.24987
  Beta  occ. eigenvalues --   -0.23294  -0.22466  -0.21379  -0.21051  -0.20545
  Beta  occ. eigenvalues --   -0.19566  -0.14173  -0.12575
  Beta virt. eigenvalues --    0.06460   0.06616   0.07419   0.07940   0.08365
  Beta virt. eigenvalues --    0.08623   0.08833   0.09508   0.10135   0.10274
  Beta virt. eigenvalues --    0.10759   0.11044   0.11225   0.11623   0.12255

 Mulliken charges and spin densities:
               1          2
     1  C    0.360062  -0.717642
     2  C   -0.925732   0.998202
     3  C    1.101300  -0.403556
     4  C    0.025129  -0.123530
     5  C   -0.282551  -0.110222
     6  C   -0.354014   0.084022
     7  C    0.890852  -1.656744
     8  S   -0.172232  -0.268870
     9  C   -0.220895   0.315707
    10  C   -0.142172  -0.279081
    11  C    0.601037  -1.076325
    12  C   -0.982608   0.669783
    13  C    1.138023  -1.742859
    14  C   -0.943754   0.756363
    15  H   -0.095654   0.245309
    16  H   -0.181934   0.361176
    17  H    0.109040   0.026363
    18  H    0.124300   0.043673
    19  H   -0.002356   0.135532
    20  H    0.088542   0.038640
    21  H   -0.333579   0.510780
    22  H   -0.505386   0.680909
    23  H   -0.077724   0.223850
    24  H   -0.183624   0.355269
    25  H   -0.036657   0.189382
    26  H    0.162731   0.087462
    27  H   -0.011147   0.156993
    28  H    0.737342  -0.578765
    29  H   -0.078437   0.219867
    30  H   -0.428543   0.608427
    31  H   -0.462700   0.651170
    32  H    0.138180  -0.021095
    33  H   -0.323253   0.484717
    34  H   -0.032864   0.166111
    35  H    0.228217  -0.137285
    36  H    0.073061   0.106267
 Sum of Mulliken charges =  -1.00000   1.00000

 Dipole moment (field-independent basis, Debye):
    X=             -0.0173    Y=              0.5987    Z=              5.2781  Tot=              5.3120
 Quadrupole moment (field-independent basis, Debye-Ang):
   XX=           -177.7727   YY=           -140.5179   ZZ=           -141.2876
   XY=             -0.0238   XZ=             -1.8670   YZ=              0.1867

 Summary of Natural Population Analysis:

                                       Natural Population
                Natural  -----------------------------------------------
    Atom  No    Charge         Core      Valence    Rydberg      Total
 -----------------------------------------------------------------------
      C    1   -0.30207      0.99962     2.29628    0.00617     3.30207
      C    2    0.00087      0.99940     1.98948    0.01025     2.99913
      C    3   -0.09609      0.99931     2.08280    0.01398     3.09609
      C    4   -0.20316      0.99957     2.19374    0.00985     3.20316
      C    5   -0.18702      0.99963     2.17879    0.00859     3.18702
      C    6   -0.18798      0.99963     2.18009    0.00826     3.18798
      C    7   -0.19973      0.99958     2.19070    0.00945     3.19973
      S    8    0.09490      4.99953     2.88807    0.01750     7.90510
      C    9   -0.15789      0.99953     2.14620    0.01216     3.15789
      C   10   -0.19660      0.99959     2.18697    0.01004     3.19660
      C   11   -0.19116      0.99963     2.18290    0.00863     3.19116
      C   12   -0.19251      0.99963     2.18462    0.00826     3.19251
      C   13   -0.18809      0.99963     2.17988    0.00857     3.18809
      C   14   -0.19974      0.99959     2.19038    0.00976     3.19974
      H   15    0.10104      0.00000     0.39800    0.00096     0.39896
      H   16    0.10532      0.00000     0.39354    0.00114     0.39468
      H   17    0.11193      0.00000     0.38680    0.00127     0.38807
      H   18    0.10422      0.00000     0.39459    0.00119     0.39578
      H   19    0.10196      0.00000     0.39630    0.00174     0.39804
      H   20    0.09219      0.00000     0.40657    0.00124     0.40781
      H   21    0.10014      0.00000     0.39879    0.00107     0.39986
      H   22    0.10042      0.00000     0.39795    0.00163     0.39958
      H   23    0.09590      0.00000     0.40245    0.00165     0.40410
      H   24    0.10558      0.00000     0.39302    0.00140     0.39442
      H   25    0.10078      0.00000     0.39799    0.00123     0.39922
      H   26    0.09996      0.00000     0.39883    0.00121     0.40004
      H   27    0.09774      0.00000     0.40113    0.00113     0.40226
      H   28    0.10504      0.00000     0.39296    0.00200     0.39496
      H   29    0.09553      0.00000     0.40294    0.00153     0.40447
      H   30    0.10177      0.00000     0.39688    0.00134     0.39823
      H   31    0.10228      0.00000     0.39627    0.00145     0.39772
      H   32    0.09030      0.00000     0.40844    0.00125     0.40970
      H   33    0.09910      0.00000     0.39967    0.00123     0.40090
      H   34    0.09411      0.00000     0.40491    0.00098     0.40589
      H   35    0.09725      0.00000     0.40089    0.00186     0.40275
      H   36    0.10368      0.00000     0.39511    0.00122     0.39632
 =======================================================================
   * Total *    0.00000     17.99388    39.83494    0.17118    58.00000

 Normal termination of Gaussian 16 at Thu Dec 10 10:23:33 2020.
