 Gaussian 16, Revision A.03,

 -----------------------------------------------------------
 # opt freq B3LYP/6-31G(d) empiricaldispersion=gd3bj scf=xqc
 -----------------------------------------------------------

 -------------------------------
 CID_154098393_JID_1997_neutraal
 -------------------------------
 Symbolic Z-matrix:
 Charge =  0 Multiplicity = 1

 SCF Done:  E(RB3LYP) =  -431.254709836     A.U. after   13 cycles
 SCF Done:  E(RB3LYP) =  -431.256795114     A.U. after   11 cycles
 SCF Done:  E(RB3LYP) =  -431.257002042     A.U. after   10 cycles
 SCF Done:  E(RB3LYP) =  -431.257042474     A.U. after    9 cycles
 SCF Done:  E(RB3LYP) =  -431.257047837     A.U. after    8 cycles
 SCF Done:  E(RB3LYP) =  -431.257049198     A.U. after    7 cycles
 SCF Done:  E(RB3LYP) =  -431.257049491     A.U. after    7 cycles
 SCF Done:  E(RB3LYP) =  -431.257049598     A.U. after    6 cycles
 Optimization completed.
    -- Stationary point found.
 Normal termination of Gaussian 16 at Tue Dec  8 21:49:42 2020.

 --------------------------------------------------------------------
 #N Geom=AllCheck Guess=TCheck SCRF=Check GenChk RB3LYP/6-31G(d) Freq
 --------------------------------------------------------------------

 Structure from the checkpoint file:  "JID_1997.chk"
 -------------------------------
 CID_154098393_JID_1997_neutraal
 -------------------------------
 Charge =  0 Multiplicity = 1

 SCF Done:  E(RB3LYP) =  -431.257049598     A.U. after    1 cycles

  Exact polarizability: 140.064  -1.391 105.247   6.789  -4.256  98.737
 Approx polarizability: 165.855  -4.536 148.187  17.627 -12.248 154.667

                      1                      2                      3
                      A                      A                      A
 Frequencies --     40.0690                61.8443               100.2601
 Red. masses --      2.6706                 2.4893                 2.7808
 Frc consts  --      0.0025                 0.0056                 0.0165
 IR Inten    --      0.0413                 0.0032                 0.1910

                      4                      5                      6
                      A                      A                      A
 Frequencies --    109.7282               178.2889               185.1999
 Red. masses --      2.6605                 1.9998                 1.8910
 Frc consts  --      0.0189                 0.0375                 0.0382
 IR Inten    --      0.1236                 0.5210                 0.1232

                      7                      8                      9
                      A                      A                      A
 Frequencies --    238.4367               254.5512               296.9074
 Red. masses --      1.4501                 1.9526                 2.4890
 Frc consts  --      0.0486                 0.0745                 0.1293
 IR Inten    --      0.0359                 0.2728                 0.2078

                     10                     11                     12
                      A                      A                      A
 Frequencies --    322.4624               333.7173               369.7287
 Red. masses --      2.8816                 2.0703                 2.1713
 Frc consts  --      0.1765                 0.1358                 0.1749
 IR Inten    --      0.1892                 0.0495                 0.1738

                     13                     14                     15
                      A                      A                      A
 Frequencies --    413.1749               480.8304               503.7773
 Red. masses --      2.5235                 2.1486                 1.5312
 Frc consts  --      0.2538                 0.2927                 0.2290
 IR Inten    --      0.0790                 0.6476                 0.3528

                     16                     17                     18
                      A                      A                      A
 Frequencies --    558.0840               601.9575               726.4095
 Red. masses --      2.3432                 2.6991                 2.5034
 Frc consts  --      0.4300                 0.5762                 0.7783
 IR Inten    --      0.0533                 0.4717                 0.0757

                     19                     20                     21
                      A                      A                      A
 Frequencies --    781.8510               813.6170               826.0727
 Red. masses --      1.4451                 1.9101                 1.6723
 Frc consts  --      0.5205                 0.7450                 0.6724
 IR Inten    --      1.2713                 0.5175                 1.4066

                     22                     23                     24
                      A                      A                      A
 Frequencies --    836.9980               869.0863               872.6082
 Red. masses --      1.6774                 1.4557                 1.9860
 Frc consts  --      0.6924                 0.6478                 0.8910
 IR Inten    --      2.3007                 1.0051                 0.3530

                     25                     26                     27
                      A                      A                      A
 Frequencies --    922.2387               941.8367               976.8579
 Red. masses --      1.7760                 2.1827                 2.2383
 Frc consts  --      0.8900                 1.1408                 1.2585
 IR Inten    --      5.5054                 5.5876                 1.8753

                     28                     29                     30
                      A                      A                      A
 Frequencies --   1001.6091              1015.0617              1022.7076
 Red. masses --      2.0670                 1.4197                 1.2689
 Frc consts  --      1.2218                 0.8618                 0.7820
 IR Inten    --      3.4203                 4.3740                13.7956

                     31                     32                     33
                      A                      A                      A
 Frequencies --   1036.1751              1038.8652              1073.5517
 Red. masses --      2.2208                 1.7936                 1.8882
 Frc consts  --      1.4048                 1.1405                 1.2822
 IR Inten    --      0.2857                 5.2439                 3.9087

                     34                     35                     36
                      A                      A                      A
 Frequencies --   1099.0813              1109.0789              1133.8151
 Red. masses --      1.7508                 1.8774                 2.0220
 Frc consts  --      1.2461                 1.3606                 1.5315
 IR Inten    --      0.9666                 1.1018                 0.1055

                     37                     38                     39
                      A                      A                      A
 Frequencies --   1141.5946              1160.9578              1197.8769
 Red. masses --      2.0002                 1.3957                 1.9393
 Frc consts  --      1.5359                 1.1083                 1.6395
 IR Inten    --      0.2339                 4.5263                 0.8806

                     40                     41                     42
                      A                      A                      A
 Frequencies --   1236.7943              1247.0884              1269.6067
 Red. masses --      1.2179                 1.2485                 1.2532
 Frc consts  --      1.0977                 1.1440                 1.1902
 IR Inten    --      0.1261                 0.7402                 0.6760

                     43                     44                     45
                      A                      A                      A
 Frequencies --   1288.7945              1309.4436              1326.8330
 Red. masses --      1.2595                 1.2758                 1.1736
 Frc consts  --      1.2325                 1.2889                 1.2173
 IR Inten    --      0.2876                 2.3948                 0.7504

                     46                     47                     48
                      A                      A                      A
 Frequencies --   1337.9893              1342.9084              1354.6902
 Red. masses --      1.1932                 1.2911                 1.2777
 Frc consts  --      1.2585                 1.3719                 1.3815
 IR Inten    --      8.2927                 0.3121                 0.6469

                     49                     50                     51
                      A                      A                      A
 Frequencies --   1366.0833              1378.0048              1388.0473
 Red. masses --      1.3042                 1.3607                 1.4410
 Frc consts  --      1.4340                 1.5223                 1.6358
 IR Inten    --     12.2037                 2.6711                 1.2263

                     52                     53                     54
                      A                      A                      A
 Frequencies --   1397.0330              1410.2983              1411.6188
 Red. masses --      1.3864                 1.4688                 1.3988
 Frc consts  --      1.5942                 1.7212                 1.6422
 IR Inten    --      2.7488                 3.9172                 4.9025

                     55                     56                     57
                      A                      A                      A
 Frequencies --   1416.7854              1432.2588              1435.8055
 Red. masses --      1.4258                 1.4802                 1.2314
 Frc consts  --      1.6862                 1.7890                 1.4957
 IR Inten    --      1.4851                 1.6372                 0.9190

                     58                     59                     60
                      A                      A                      A
 Frequencies --   1512.3249              1512.9955              1518.2531
 Red. masses --      1.0724                 1.0804                 1.0905
 Frc consts  --      1.4451                 1.4572                 1.4810
 IR Inten    --      2.2791                 1.2499                 0.5885

                     61                     62                     63
                      A                      A                      A
 Frequencies --   1520.3873              1522.3933              1527.7192
 Red. masses --      1.0891                 1.0967                 1.0409
 Frc consts  --      1.4832                 1.4975                 1.4314
 IR Inten    --      3.9103                 3.3850                 5.5122

                     64                     65                     66
                      A                      A                      A
 Frequencies --   1536.9817              1537.7423              1540.0173
 Red. masses --      1.0722                 1.0787                 1.0813
 Frc consts  --      1.4924                 1.5029                 1.5110
 IR Inten    --      4.1824                 8.0780                 6.4832

                     67                     68                     69
                      A                      A                      A
 Frequencies --   1752.1639              2981.1199              3017.3558
 Red. masses --      6.0175                 1.0820                 1.0669
 Frc consts  --     10.8847                 5.6656                 5.7230
 IR Inten    --      1.0890                25.1144                18.9078

                     70                     71                     72
                      A                      A                      A
 Frequencies --   3018.4914              3019.0678              3030.0529
 Red. masses --      1.0636                 1.0656                 1.0630
 Frc consts  --      5.7097                 5.7223                 5.7503
 IR Inten    --     19.3278                36.5261                10.0206

                     73                     74                     75
                      A                      A                      A
 Frequencies --   3033.1859              3036.9044              3042.0569
 Red. masses --      1.0631                 1.0633                 1.0641
 Frc consts  --      5.7628                 5.7779                 5.8019
 IR Inten    --     17.2312                33.0797                 6.5389

                     76                     77                     78
                      A                      A                      A
 Frequencies --   3045.4943              3057.9249              3062.6708
 Red. masses --      1.0351                 1.0924                 1.1019
 Frc consts  --      5.6565                 6.0187                 6.0897
 IR Inten    --     38.5830                83.6970                27.2796

                     79                     80                     81
                      A                      A                      A
 Frequencies --   3067.1947              3067.4300              3072.3013
 Red. masses --      1.0999                 1.0984                 1.1000
 Frc consts  --      6.0965                 6.0894                 6.1176
 IR Inten    --     47.9888                 8.4007                77.1197

                     82                     83                     84
                      A                      A                      A
 Frequencies --   3074.9226              3080.8128              3111.5826
 Red. masses --      1.0995                 1.1015                 1.1017
 Frc consts  --      6.1254                 6.1595                 6.2845
 IR Inten    --     48.5275                88.9831                29.5911

                     85                     86                     87
                      A                      A                      A
 Frequencies --   3115.5492              3120.0409              3158.1993
 Red. masses --      1.0882                 1.1032                 1.0873
 Frc consts  --      6.2233                 6.3276                 6.3897
 IR Inten    --     49.3340                41.0812                27.0510

 - Thermochemistry -
 -------------------
 Temperature   298.150 Kelvin.  Pressure   1.00000 Atm.
 Atom     1 has atomic number  6 and mass  12.00000

 Molecular mass:   152.15650 amu.
 Principal axes and moments of inertia in atomic units:
                           1         2         3
     Eigenvalues --   827.036713690.507603970.04620
           X            1.00000  -0.00241   0.00109
           Y            0.00243   0.99993  -0.01191
           Z           -0.00106   0.01192   0.99993
 This molecule is an asymmetric top.
 Rotational symmetry number  1.
 Warning -- assumption of classical behavior for rotation
           may cause significant error
 Rotational temperatures (Kelvin)      0.10473     0.02347     0.02182
 Rotational constants (GHZ):           2.18218     0.48902     0.45459
 Zero-point vibrational energy     763758.1 (Joules/Mol)
                                  182.54258 (Kcal/Mol)
 Warning -- explicit consideration of  17 degrees of freedom as
           vibrations may cause significant error
 Vibrational temperatures:     57.65    88.98   144.25   157.87   256.52
          (Kelvin)            266.46   343.06   366.24   427.18   463.95
                              480.14   531.96   594.47   691.81   724.82
                              802.96   866.08  1045.14  1124.91  1170.61
                             1188.53  1204.25  1250.42  1255.49  1326.90
                             1355.09  1405.48  1441.09  1460.45  1471.45
                             1490.82  1494.70  1544.60  1581.33  1595.72
                             1631.31  1642.50  1670.36  1723.48  1779.47
                             1794.28  1826.68  1854.29  1884.00  1909.02
                             1925.07  1932.15  1949.10  1965.49  1982.64
                             1997.09  2010.02  2029.10  2031.00  2038.44
                             2060.70  2065.80  2175.90  2176.86  2184.43
                             2187.50  2190.38  2198.05  2211.37  2212.47
                             2215.74  2520.97  4289.17  4341.30  4342.94
                             4343.77  4359.57  4364.08  4369.43  4376.84
                             4381.79  4399.67  4406.50  4413.01  4413.35
                             4420.36  4424.13  4432.60  4476.87  4482.58
                             4489.04  4543.94

 Zero-point correction=                           0.290900 (Hartree/Particle)
 Thermal correction to Energy=                    0.302840
 Thermal correction to Enthalpy=                  0.303784
 Thermal correction to Gibbs Free Energy=         0.252612
 Sum of electronic and zero-point Energies=           -430.966149
 Sum of electronic and thermal Energies=              -430.954210
 Sum of electronic and thermal Enthalpies=            -430.953266
 Sum of electronic and thermal Free Energies=         -431.004438

                     E (Thermal)             CV                S
                      KCal/Mol        Cal/Mol-Kelvin    Cal/Mol-Kelvin
 Total                  190.035             45.827            107.700
 Electronic               0.000              0.000              0.000
 Translational            0.889              2.981             40.969
 Rotational               0.889              2.981             30.872
 Vibrational            188.257             39.866             35.859
 Vibration     1          0.594              1.981              5.256
 Vibration     2          0.597              1.973              4.397
 Vibration     3          0.604              1.949              3.449
 Vibration     4          0.606              1.941              3.274
 Vibration     5          0.629              1.869              2.346
 Vibration     6          0.631              1.860              2.275
 Vibration     7          0.656              1.782              1.815
 Vibration     8          0.665              1.755              1.699
 Vibration     9          0.691              1.679              1.434
 Vibration    10          0.707              1.630              1.298
 Vibration    11          0.715              1.608              1.242
 Vibration    12          0.742              1.534              1.081
 Vibration    13          0.777              1.442              0.915
 Vibration    14          0.837              1.293              0.708
 Vibration    15          0.859              1.242              0.649
 Vibration    16          0.914              1.122              0.528
 Vibration    17          0.960              1.028              0.446

 Optimization completed.
    -- Stationary point found.
 Normal termination of Gaussian 16 at Tue Dec  8 21:56:47 2020.

 ----------------------------------------------------------------------
 # B3LYP/6-311++G(d,p) empiricaldispersion=gd3bj scf=xqc pop=npa geom=c
 heck
 ----------------------------------------------------------------------

 ---------------------------------------
 CID_154098393_JID_1997_Energie_neutraal
 ---------------------------------------
 Structure from the checkpoint file:  "JID_1997.chk"
 Charge =  0 Multiplicity = 1

 SCF Done:  E(RB3LYP) =  -431.374575741     A.U. after   13 cycles
 Normal termination of Gaussian 16 at Tue Dec  8 21:59:29 2020.

 ----------------------------------------------------------------------
 # B3LYP/6-311++G(d,p) empiricaldispersion=gd3bj scf=xqc pop=npa geom=c
 heck
 ----------------------------------------------------------------------

 -------------------------------------
 CID_154098393_JID_1997_Energie_kation
 -------------------------------------
 Structure from the checkpoint file:  "JID_1997.chk"
 Charge =  1 Multiplicity = 2

 SCF Done:  E(UB3LYP) =  -431.056703788     A.U. after   18 cycles
 Normal termination of Gaussian 16 at Tue Dec  8 22:04:16 2020.
 Gaussian 16:  ES64L-G16RevA.03 25-Dec-2016

 ----------------------------------------------------------------------
 # B3LYP/6-311++G(d,p) empiricaldispersion=gd3bj scf=xqc pop=npa geom=c
 heck
 ----------------------------------------------------------------------

 ------------------------------------
 CID_154098393_JID_1997_Energie_anion
 ------------------------------------
 Structure from the checkpoint file:  "JID_1997.chk"
 Charge = -1 Multiplicity = 2

                         Standard orientation:
 ---------------------------------------------------------------------
 Center     Atomic      Atomic             Coordinates (Angstroms)
 Number     Number       Type             X           Y           Z
 ---------------------------------------------------------------------
      1          6           0       -4.565698    0.556976   -0.230231
      2          6           0       -3.472188   -0.460841   -0.591265
      3          6           0       -2.092080    0.041597   -0.266644
      4          6           0       -1.266534   -0.527961    0.614924
      5          6           0        0.122377   -0.088397    1.020306
      6          6           0        1.119171   -1.267134    0.866824
      7          6           0        1.748903   -1.427276   -0.527205
      8          6           0        3.044472   -0.617508   -0.696381
      9          6           0        2.886646    0.908411   -0.735272
     10          6           0        2.071181    1.535962    0.407713
     11          6           0        0.569272    1.210409    0.325986
     12          1           0       -4.560783    0.766280    0.845119
     13          1           0       -5.559816    0.185277   -0.503335
     14          1           0       -4.407265    1.507288   -0.754108
     15          1           0       -3.655158   -1.405584   -0.063886
     16          1           0       -3.538977   -0.684664   -1.666400
     17          1           0       -1.792810    0.950964   -0.786988
     18          1           0       -1.614297   -1.430671    1.123528
     19          1           0        0.075492    0.120197    2.101751
     20          1           0        1.927780   -1.153315    1.600315
     21          1           0        0.594614   -2.189563    1.145476
     22          1           0        1.019394   -1.161012   -1.304332
     23          1           0        1.989347   -2.485687   -0.687910
     24          1           0        3.552045   -0.933603   -1.617571
     25          1           0        3.719671   -0.886212    0.129405
     26          1           0        2.409653    1.194746   -1.684069
     27          1           0        3.888857    1.357226   -0.752381
     28          1           0        2.195680    2.624576    0.349644
     29          1           0        2.482053    1.236901    1.382079
     30          1           0        0.299165    1.165903   -0.736400
     31          1           0       -0.017769    2.035529    0.747526
 ---------------------------------------------------------------------

 SCF Done:  E(UB3LYP) =  -431.356819104     A.U. after   31 cycles

 The electronic state is 2-A.
 Alpha  occ. eigenvalues --  -10.07199 -10.06894 -10.06170 -10.06084 -10.06059
 Alpha  occ. eigenvalues --  -10.06038 -10.06034 -10.06012 -10.05989 -10.05889
 Alpha  occ. eigenvalues --  -10.05806  -0.73154  -0.69864  -0.66776  -0.65600
 Alpha  occ. eigenvalues --   -0.61471  -0.55360  -0.54631  -0.50970  -0.46585
 Alpha  occ. eigenvalues --   -0.45793  -0.42394  -0.37974  -0.36520  -0.35918
 Alpha  occ. eigenvalues --   -0.33732  -0.33398  -0.32759  -0.30579  -0.30120
 Alpha  occ. eigenvalues --   -0.28961  -0.27495  -0.27182  -0.26913  -0.24797
 Alpha  occ. eigenvalues --   -0.23986  -0.22964  -0.22128  -0.22003  -0.20925
 Alpha  occ. eigenvalues --   -0.20560  -0.20392  -0.14360   0.04641
 Alpha virt. eigenvalues --    0.06286   0.07245   0.07465   0.08402   0.08834
 Alpha virt. eigenvalues --    0.09180   0.09890   0.10192   0.10740   0.11147
 Alpha virt. eigenvalues --    0.11309   0.11770   0.12048   0.12929   0.13184

  Beta  occ. eigenvalues --  -10.07197 -10.06879 -10.06158 -10.06068 -10.06042
  Beta  occ. eigenvalues --  -10.06020 -10.06015 -10.05991 -10.05975 -10.05850
  Beta  occ. eigenvalues --  -10.05795  -0.73122  -0.69829  -0.66737  -0.65567
  Beta  occ. eigenvalues --   -0.61427  -0.55314  -0.54582  -0.50904  -0.46529
  Beta  occ. eigenvalues --   -0.45733  -0.42352  -0.37926  -0.36482  -0.35887
  Beta  occ. eigenvalues --   -0.33690  -0.33361  -0.32731  -0.30541  -0.30083
  Beta  occ. eigenvalues --   -0.28916  -0.27455  -0.27138  -0.26872  -0.24759
  Beta  occ. eigenvalues --   -0.23951  -0.22928  -0.22088  -0.21968  -0.20889
  Beta  occ. eigenvalues --   -0.20524  -0.20359  -0.14292
  Beta virt. eigenvalues --    0.06698   0.07256   0.07814   0.07990   0.08933
  Beta virt. eigenvalues --    0.09289   0.09532   0.10373   0.10547   0.11036
  Beta virt. eigenvalues --    0.11485   0.11640   0.12064   0.12405   0.13383

 Mulliken charges and spin densities:
               1          2
     1  C    1.099193  -1.715118
     2  C   -0.712978   0.348958
     3  C    0.006492   0.131063
     4  C   -0.049249  -0.413450
     5  C    1.292832  -0.678144
     6  C    0.548132  -0.966088
     7  C   -0.755771   0.535352
     8  C    0.637273  -1.110154
     9  C    0.103470  -0.387342
    10  C   -0.153523  -0.191266
    11  C   -0.488269   0.071795
    12  H   -0.107603   0.245411
    13  H   -0.431914   0.568698
    14  H   -0.146920   0.284990
    15  H   -0.178863   0.301561
    16  H   -0.091153   0.230552
    17  H   -0.381352   0.526067
    18  H   -0.084029   0.235824
    19  H   -0.128792   0.325640
    20  H   -0.063803   0.192506
    21  H   -0.063328   0.219246
    22  H    0.082778   0.047517
    23  H   -0.140207   0.293634
    24  H   -0.110638   0.252305
    25  H   -0.200380   0.343379
    26  H   -0.029368   0.164160
    27  H   -0.236290   0.390462
    28  H   -0.418904   0.587518
    29  H   -0.046998   0.179834
    30  H    0.145178  -0.094546
    31  H    0.104987   0.079635
 Sum of Mulliken charges =  -1.00000   1.00000

 Dipole moment (field-independent basis, Debye):
    X=              1.7662    Y=             -0.9583    Z=              0.0706  Tot=              2.0107
 Quadrupole moment (field-independent basis, Debye-Ang):
   XX=           -166.8916   YY=           -112.0804   ZZ=           -102.6576
   XY=             -0.3400   XZ=             -2.5328   YZ=             -0.3223

 Summary of Natural Population Analysis:

                                       Natural Population
                Natural  -----------------------------------------------
    Atom  No    Charge         Core      Valence    Rydberg      Total
 -----------------------------------------------------------------------
      C    1   -0.27924      0.99966     2.27548    0.00410     3.27924
      C    2   -0.20315      0.99963     2.19405    0.00947     3.20315
      C    3   -0.09401      0.99950     2.08636    0.00815     3.09401
      C    4   -0.08139      0.99951     2.07082    0.01106     3.08139
      C    5   -0.12267      0.99957     2.11217    0.01093     3.12267
      C    6   -0.18545      0.99961     2.17700    0.00885     3.18545
      C    7   -0.19592      0.99962     2.18758    0.00872     3.19592
      C    8   -0.18590      0.99962     2.17809    0.00818     3.18590
      C    9   -0.18624      0.99962     2.17824    0.00839     3.18624
      C   10   -0.19132      0.99963     2.18323    0.00847     3.19132
      C   11   -0.19346      0.99961     2.18395    0.00990     3.19346
      H   12    0.09658      0.00000     0.40200    0.00141     0.40342
      H   13    0.09808      0.00000     0.39994    0.00198     0.40192
      H   14    0.09504      0.00000     0.40327    0.00169     0.40496
      H   15    0.09535      0.00000     0.40334    0.00131     0.40465
      H   16    0.09714      0.00000     0.40162    0.00124     0.40286
      H   17    0.09179      0.00000     0.40671    0.00150     0.40821
      H   18    0.08919      0.00000     0.40942    0.00139     0.41081
      H   19    0.10085      0.00000     0.39746    0.00169     0.39915
      H   20    0.09571      0.00000     0.40266    0.00163     0.40429
      H   21    0.09873      0.00000     0.40000    0.00126     0.40127
      H   22    0.09667      0.00000     0.40194    0.00139     0.40333
      H   23    0.09845      0.00000     0.40057    0.00098     0.40155
      H   24    0.09618      0.00000     0.40274    0.00108     0.40382
      H   25    0.09134      0.00000     0.40719    0.00147     0.40866
      H   26    0.08995      0.00000     0.40867    0.00138     0.41005
      H   27    0.09770      0.00000     0.40105    0.00125     0.40230
      H   28    0.09923      0.00000     0.39955    0.00122     0.40077
      H   29    0.09439      0.00000     0.40425    0.00136     0.40561
      H   30    0.09388      0.00000     0.40426    0.00185     0.40612
      H   31    0.10249      0.00000     0.39633    0.00118     0.39751
 =======================================================================
   * Total *   -0.00000     10.99559    31.87992    0.12449    43.00000

 Normal termination of Gaussian 16 at Tue Dec  8 22:12:14 2020.
