 Gaussian 16, Revision A.03,

 -----------------------------------------------------------
 # opt freq B3LYP/6-31G(d) empiricaldispersion=gd3bj scf=xqc
 -----------------------------------------------------------

 -------------------------------
 CID_123398639_JID_2671_neutraal
 -------------------------------
 Symbolic Z-matrix:
 Charge =  0 Multiplicity = 1

 SCF Done:  E(RB3LYP) =  -512.654696193     A.U. after   15 cycles
 SCF Done:  E(RB3LYP) =  -512.657706340     A.U. after   12 cycles
 SCF Done:  E(RB3LYP) =  -512.658694185     A.U. after   12 cycles
 SCF Done:  E(RB3LYP) =  -512.659506957     A.U. after   14 cycles
 SCF Done:  E(RB3LYP) =  -512.659780539     A.U. after   12 cycles
 SCF Done:  E(RB3LYP) =  -512.659861236     A.U. after   12 cycles
 SCF Done:  E(RB3LYP) =  -512.659875318     A.U. after   10 cycles
 SCF Done:  E(RB3LYP) =  -512.659880804     A.U. after    9 cycles
 SCF Done:  E(RB3LYP) =  -512.659881469     A.U. after    8 cycles
 SCF Done:  E(RB3LYP) =  -512.659881523     A.U. after    7 cycles
 Optimization completed.
    -- Stationary point found.
 Normal termination of Gaussian 16 at Wed Dec  9 17:48:28 2020.

 --------------------------------------------------------------------
 #N Geom=AllCheck Guess=TCheck SCRF=Check GenChk RB3LYP/6-31G(d) Freq
 --------------------------------------------------------------------

 Structure from the checkpoint file:  "JID_2671.chk"
 -------------------------------
 CID_123398639_JID_2671_neutraal
 -------------------------------
 Charge =  0 Multiplicity = 1

 SCF Done:  E(RB3LYP) =  -512.659881523     A.U. after    1 cycles

  Exact polarizability: 148.198  -4.862 136.025  -0.003   0.001  44.733
 Approx polarizability: 227.488 -12.600 256.251  -0.001   0.000  70.031

                      1                      2                      3
                      A                      A                      A
 Frequencies --     47.2424               126.4547               217.6769
 Red. masses --      3.1446                 4.3957                 4.2583
 Frc consts  --      0.0041                 0.0414                 0.1189
 IR Inten    --      0.3874                 5.8833                 2.9699

                      4                      5                      6
                      A                      A                      A
 Frequencies --    227.6461               250.4460               268.4649
 Red. masses --      3.6582                 1.7280                 1.8614
 Frc consts  --      0.1117                 0.0639                 0.0790
 IR Inten    --      3.8729                 1.1825                 0.6715

                      7                      8                      9
                      A                      A                      A
 Frequencies --    346.6585               391.6018               424.7832
 Red. masses --      3.5172                 3.8723                 3.1105
 Frc consts  --      0.2490                 0.3499                 0.3307
 IR Inten    --      0.9781                 0.5283                 6.6207

                     10                     11                     12
                      A                      A                      A
 Frequencies --    454.5351               490.1955               534.8230
 Red. masses --      1.4029                 4.8234                 3.3707
 Frc consts  --      0.1708                 0.6829                 0.5680
 IR Inten    --    116.0994                 1.8226                 1.4790

                     13                     14                     15
                      A                      A                      A
 Frequencies --    592.4662               625.6885               642.6024
 Red. masses --      2.8107                 3.0643                 5.4929
 Frc consts  --      0.5813                 0.7068                 1.3364
 IR Inten    --      5.1229                 0.0071                 1.3036

                     16                     17                     18
                      A                      A                      A
 Frequencies --    659.7375               666.9885               747.5432
 Red. masses --      2.7531                 6.5360                 1.4915
 Frc consts  --      0.7060                 1.7132                 0.4911
 IR Inten    --      1.3331                 2.4966                 1.1638

                     19                     20                     21
                      A                      A                      A
 Frequencies --    808.6208               862.7582               868.1325
 Red. masses --      3.1239                 1.3879                 5.2814
 Frc consts  --      1.2035                 0.6087                 2.3451
 IR Inten    --      1.2307                12.2018                19.0289

                     22                     23                     24
                      A                      A                      A
 Frequencies --    887.7609               925.5820               939.2489
 Red. masses --      1.4812                 4.0245                 1.4621
 Frc consts  --      0.6878                 2.0314                 0.7600
 IR Inten    --     10.3923                 5.1122                 4.7775

                     25                     26                     27
                      A                      A                      A
 Frequencies --    959.7202               966.2506              1034.2512
 Red. masses --      5.1763                 1.3532                 1.5134
 Frc consts  --      2.8091                 0.7444                 0.9538
 IR Inten    --      2.3938                34.1756                 1.2478

                     28                     29                     30
                      A                      A                      A
 Frequencies --   1059.4399              1087.8193              1119.3445
 Red. masses --      2.0957                 1.4816                 1.6235
 Frc consts  --      1.3859                 1.0330                 1.1985
 IR Inten    --      3.4144                 0.2256                18.1460

                     31                     32                     33
                      A                      A                      A
 Frequencies --   1178.6353              1204.4825              1284.2562
 Red. masses --      2.9839                 2.7902                 1.9307
 Frc consts  --      2.4423                 2.3850                 1.8762
 IR Inten    --     12.0197                 3.0749                43.6879

                     34                     35                     36
                      A                      A                      A
 Frequencies --   1289.8315              1337.5068              1345.3835
 Red. masses --      2.8183                 4.8962                 2.5231
 Frc consts  --      2.7625                 5.1606                 2.6908
 IR Inten    --     14.4842                 2.2352                 7.9756

                     37                     38                     39
                      A                      A                      A
 Frequencies --   1373.2091              1417.4180              1438.4746
 Red. masses --      2.9089                 3.0310                 1.3280
 Frc consts  --      3.2319                 3.5878                 1.6191
 IR Inten    --      3.2131                73.7781                10.7291

                     40                     41                     42
                      A                      A                      A
 Frequencies --   1448.3036              1479.9422              1514.9413
 Red. masses --      1.7415                 1.4087                 1.0446
 Frc consts  --      2.1523                 1.8179                 1.4125
 IR Inten    --     17.3636                34.4787                 7.0573

                     43                     44                     45
                      A                      A                      A
 Frequencies --   1530.2947              1533.0226              1545.3431
 Red. masses --      2.0354                 1.5526                 2.3126
 Frc consts  --      2.8084                 2.1498                 3.2539
 IR Inten    --      1.5123                47.7140                30.1972

                     46                     47                     48
                      A                      A                      A
 Frequencies --   1616.8199              1650.9932              1701.3813
 Red. masses --      8.2751                 5.8995                 4.6712
 Frc consts  --     12.7452                 9.4745                 7.9667
 IR Inten    --      2.8978                 3.2313                 6.2060

                     49                     50                     51
                      A                      A                      A
 Frequencies --   3041.7183              3091.8789              3134.9953
 Red. masses --      1.0386                 1.1005                 1.0995
 Frc consts  --      5.6616                 6.1983                 6.3669
 IR Inten    --     20.4784                22.0232                20.5412

                     52                     53                     54
                      A                      A                      A
 Frequencies --   3168.3198              3172.0198              3213.8148
 Red. masses --      1.0907                 1.0641                 1.0890
 Frc consts  --      6.4506                 6.3085                 6.6269
 IR Inten    --     28.2429                25.0417                18.7615

                     55                     56                     57
                      A                      A                      A
 Frequencies --   3262.5491              3281.8046              3659.3013
 Red. masses --      1.0973                 1.1121                 1.0809
 Frc consts  --      6.8813                 7.0570                 8.5280
 IR Inten    --      2.9875                 1.6551                72.8475

 - Thermochemistry -
 -------------------
 Temperature   298.150 Kelvin.  Pressure   1.00000 Atm.
 Atom     1 has atomic number  6 and mass  12.00000

 Molecular mass:   159.07965 amu.
 Principal axes and moments of inertia in atomic units:
                           1         2         3
     Eigenvalues --  1125.461722055.848533170.11385
           X            1.00000   0.00083  -0.00000
           Y           -0.00083   1.00000   0.00000
           Z            0.00000  -0.00000   1.00000
 This molecule is an asymmetric top.
 Rotational symmetry number  1.
 Warning -- assumption of classical behavior for rotation
           may cause significant error
 Rotational temperatures (Kelvin)      0.07696     0.04213     0.02732
 Rotational constants (GHZ):           1.60356     0.87786     0.56930
 Zero-point vibrational energy     443522.2 (Joules/Mol)
                                  106.00436 (Kcal/Mol)
 Warning -- explicit consideration of  13 degrees of freedom as
           vibrations may cause significant error
 Vibrational temperatures:     67.97   181.94   313.19   327.53   360.34
          (Kelvin)            386.26   498.76   563.43   611.17   653.97
                              705.28   769.49   852.43   900.23   924.56
                              949.22   959.65  1075.55  1163.42  1241.32
                             1249.05  1277.29  1331.71  1351.37  1380.82
                             1390.22  1488.06  1524.30  1565.13  1610.49
                             1695.79  1732.98  1847.76  1855.78  1924.37
                             1935.71  1975.74  2039.35  2069.64  2083.79
                             2129.31  2179.66  2201.75  2205.68  2223.40
                             2326.24  2375.41  2447.91  4376.35  4448.52
                             4510.56  4558.51  4563.83  4623.96  4694.08
                             4721.78  5264.92

 Zero-point correction=                           0.168929 (Hartree/Particle)
 Thermal correction to Energy=                    0.178428
 Thermal correction to Enthalpy=                  0.179372
 Thermal correction to Gibbs Free Energy=         0.133923
 Sum of electronic and zero-point Energies=           -512.490953
 Sum of electronic and thermal Energies=              -512.481454
 Sum of electronic and thermal Enthalpies=            -512.480509
 Sum of electronic and thermal Free Energies=         -512.525958

                     E (Thermal)             CV                S
                      KCal/Mol        Cal/Mol-Kelvin    Cal/Mol-Kelvin
 Total                  111.965             37.850             95.655
 Electronic               0.000              0.000              0.000
 Translational            0.889              2.981             41.102
 Rotational               0.889              2.981             30.373
 Vibrational            110.188             31.889             24.180
 Vibration     1          0.595              1.979              4.930
 Vibration     2          0.611              1.927              2.999
 Vibration     3          0.646              1.814              1.978
 Vibration     4          0.651              1.799              1.897
 Vibration     5          0.663              1.762              1.727
 Vibration     6          0.673              1.731              1.606
 Vibration     7          0.725              1.582              1.181
 Vibration     8          0.759              1.488              0.994
 Vibration     9          0.787              1.416              0.876
 Vibration    10          0.813              1.351              0.782
 Vibration    11          0.846              1.272              0.683
 Vibration    12          0.890              1.173              0.577
 Vibration    13          0.950              1.048              0.463

 Optimization completed.
    -- Stationary point found.
 Normal termination of Gaussian 16 at Wed Dec  9 17:52:57 2020.

 ----------------------------------------------------------------------
 # B3LYP/6-311++G(d,p) empiricaldispersion=gd3bj scf=xqc pop=npa geom=c
 heck
 ----------------------------------------------------------------------

 ---------------------------------------
 CID_123398639_JID_2671_Energie_neutraal
 ---------------------------------------
 Structure from the checkpoint file:  "JID_2671.chk"
 Charge =  0 Multiplicity = 1

 SCF Done:  E(RB3LYP) =  -512.793709599     A.U. after   15 cycles
 Normal termination of Gaussian 16 at Wed Dec  9 17:55:06 2020.

 ----------------------------------------------------------------------
 # B3LYP/6-311++G(d,p) empiricaldispersion=gd3bj scf=xqc pop=npa geom=c
 heck
 ----------------------------------------------------------------------

 -------------------------------------
 CID_123398639_JID_2671_Energie_kation
 -------------------------------------
 Structure from the checkpoint file:  "JID_2671.chk"
 Charge =  1 Multiplicity = 2

 SCF Done:  E(UB3LYP) =  -512.500331973     A.U. after   21 cycles
 Normal termination of Gaussian 16 at Wed Dec  9 17:58:28 2020.
 Gaussian 16:  ES64L-G16RevA.03 25-Dec-2016

 ----------------------------------------------------------------------
 # B3LYP/6-311++G(d,p) empiricaldispersion=gd3bj scf=xqc pop=npa geom=c
 heck
 ----------------------------------------------------------------------

 ------------------------------------
 CID_123398639_JID_2671_Energie_anion
 ------------------------------------
 Structure from the checkpoint file:  "JID_2671.chk"
 Charge = -1 Multiplicity = 2

                         Standard orientation:
 ---------------------------------------------------------------------
 Center     Atomic      Atomic             Coordinates (Angstroms)
 Number     Number       Type             X           Y           Z
 ---------------------------------------------------------------------
      1          6           0        3.344398    0.303160    0.000157
      2          6           0        2.071373   -0.513815   -0.000036
      3          6           0        2.135271   -1.855942   -0.000143
      4          6           0        0.787614    0.219239   -0.000043
      5          6           0        0.755179    1.623539   -0.000072
      6          7           0       -0.344178    2.404808   -0.000044
      7          6           0       -1.542261    1.828395   -0.000022
      8          6           0       -1.639854    0.438071    0.000046
      9          6           0       -0.492399   -0.387784    0.000027
     10          7           0       -0.876591   -1.723917    0.000088
     11          6           0       -2.187461   -1.704329    0.000049
     12          7           0       -2.713486   -0.438147   -0.000184
     13          1           0        4.217137   -0.354997    0.000254
     14          1           0        3.411317    0.952325    0.882106
     15          1           0        3.411691    0.952426   -0.881686
     16          1           0        1.248095   -2.475783   -0.000227
     17          1           0        3.101218   -2.354148   -0.000155
     18          1           0        1.689276    2.175177   -0.000089
     19          1           0       -2.416351    2.477558   -0.000013
     20          1           0       -2.821413   -2.581730    0.000016
     21          1           0       -3.692340   -0.193247    0.000998
 ---------------------------------------------------------------------

 SCF Done:  E(UB3LYP) =  -512.793403718     A.U. after   30 cycles

 The electronic state is 2-A.
 Alpha  occ. eigenvalues --  -14.22432 -14.14837 -14.13626 -10.07881 -10.05544
 Alpha  occ. eigenvalues --  -10.03802 -10.03114 -10.02968 -10.02821 -10.02018
 Alpha  occ. eigenvalues --  -10.00818  -9.98454  -0.87161  -0.76884  -0.73392
 Alpha  occ. eigenvalues --   -0.66068  -0.61657  -0.58484  -0.53962  -0.49679
 Alpha  occ. eigenvalues --   -0.47917  -0.45765  -0.42450  -0.37076  -0.34730
 Alpha  occ. eigenvalues --   -0.33443  -0.30678  -0.30290  -0.30227  -0.28057
 Alpha  occ. eigenvalues --   -0.27080  -0.25326  -0.22785  -0.22385  -0.22033
 Alpha  occ. eigenvalues --   -0.19844  -0.17307  -0.12574  -0.12527  -0.09895
 Alpha  occ. eigenvalues --   -0.09673  -0.07038   0.05940
 Alpha virt. eigenvalues --    0.08133   0.09694   0.10220   0.11677   0.12163
 Alpha virt. eigenvalues --    0.12663   0.13558   0.14707   0.15032   0.15856
 Alpha virt. eigenvalues --    0.16366   0.16637   0.16965   0.18173   0.18240

  Beta  occ. eigenvalues --  -14.22356 -14.14900 -14.13504 -10.07523 -10.05635
  Beta  occ. eigenvalues --  -10.03676 -10.03123 -10.02970 -10.02436 -10.02011
  Beta  occ. eigenvalues --  -10.00540  -9.98172  -0.86924  -0.76491  -0.73259
  Beta  occ. eigenvalues --   -0.65712  -0.61358  -0.58110  -0.53680  -0.48981
  Beta  occ. eigenvalues --   -0.47671  -0.45616  -0.42101  -0.36744  -0.34488
  Beta  occ. eigenvalues --   -0.33280  -0.30524  -0.30081  -0.29505  -0.27929
  Beta  occ. eigenvalues --   -0.26955  -0.25213  -0.22636  -0.22222  -0.20897
  Beta  occ. eigenvalues --   -0.19711  -0.16440  -0.12507  -0.11523  -0.09486
  Beta  occ. eigenvalues --   -0.08784  -0.05416
  Beta virt. eigenvalues --    0.08056   0.09617   0.10171   0.11332   0.11606
  Beta virt. eigenvalues --    0.12081   0.13016   0.13484   0.14930   0.15220
  Beta virt. eigenvalues --    0.16120   0.16286   0.16854   0.17068   0.18164

 Mulliken charges and spin densities:
               1          2
     1  C   -0.608382   0.023813
     2  C    0.554710  -0.065813
     3  C   -1.233625   0.290992
     4  C    1.194390   0.204966
     5  C   -1.126034  -0.005254
     6  N   -0.098521   0.046591
     7  C   -0.520333   0.309419
     8  C    0.292413  -0.037084
     9  C   -0.502557   0.043454
    10  N   -0.137685  -0.037542
    11  C    0.151630   0.292367
    12  N   -0.231413   0.007086
    13  H    0.114792  -0.000686
    14  H    0.127860   0.003918
    15  H    0.127887   0.003883
    16  H    0.168387  -0.014127
    17  H    0.067125  -0.016394
    18  H    0.144971   0.000467
    19  H    0.103255  -0.026587
    20  H    0.135548  -0.023448
    21  H    0.275582  -0.000020
 Sum of Mulliken charges =  -1.00000   1.00000

 Dipole moment (field-independent basis, Debye):
    X=             -3.0888    Y=             -0.5290    Z=              0.0049  Tot=              3.1338
 Quadrupole moment (field-independent basis, Debye-Ang):
   XX=            -77.2042   YY=           -101.6043   ZZ=            -81.5606
   XY=              5.7561   XZ=             -0.0201   YZ=             -0.0032

 Summary of Natural Population Analysis:

                                       Natural Population
                Natural  -----------------------------------------------
    Atom  No    Charge         Core      Valence    Rydberg      Total
 -----------------------------------------------------------------------
      C    1   -0.29367      0.99964     2.28935    0.00467     3.29367
      C    2   -0.02601      0.99952     2.01776    0.00873     3.02601
      C    3   -0.13684      0.99953     2.12922    0.00809     3.13684
      C    4   -0.00816      0.99944     2.00046    0.00826     3.00816
      C    5    0.00703      0.99957     1.97921    0.01419     2.99297
      N    6   -0.23484      0.99972     2.72153    0.01359     3.73484
      C    7    0.06861      0.99956     1.91775    0.01407     2.93139
      C    8    0.01933      0.99946     1.96847    0.01273     2.98067
      C    9    0.09222      0.99944     1.89452    0.01382     2.90778
      N   10   -0.27818      0.99970     2.76779    0.01068     3.77818
      C   11    0.18311      0.99968     1.80034    0.01686     2.81689
      N   12   -0.27906      0.99966     2.77045    0.00895     3.77906
      H   13    0.09358      0.00000     0.40532    0.00110     0.40642
      H   14    0.09485      0.00000     0.40357    0.00158     0.40515
      H   15    0.09485      0.00000     0.40357    0.00158     0.40515
      H   16    0.10702      0.00000     0.39176    0.00122     0.39298
      H   17    0.07322      0.00000     0.42562    0.00116     0.42678
      H   18    0.08064      0.00000     0.41818    0.00118     0.41936
      H   19    0.07260      0.00000     0.42571    0.00169     0.42740
      H   20    0.07694      0.00000     0.42206    0.00100     0.42306
      H   21    0.19276      0.00000     0.30592    0.00132     0.30724
 =======================================================================
   * Total *   -0.00000     11.99494    29.85859    0.14648    42.00000

 Normal termination of Gaussian 16 at Wed Dec  9 18:03:10 2020.
