 Gaussian 16, Revision A.03,

 -----------------------------------------------------------
 # opt freq B3LYP/6-31G(d) empiricaldispersion=gd3bj scf=xqc
 -----------------------------------------------------------

 ------------------------------
 CID_53013932_JID_3340_neutraal
 ------------------------------
 Symbolic Z-matrix:
 Charge =  0 Multiplicity = 1

 SCF Done:  E(RB3LYP) =  -569.186138427     A.U. after   15 cycles
 SCF Done:  E(RB3LYP) =  -569.193344796     A.U. after   13 cycles
 SCF Done:  E(RB3LYP) =  -569.194128204     A.U. after   12 cycles
 SCF Done:  E(RB3LYP) =  -569.194278179     A.U. after   11 cycles
 SCF Done:  E(RB3LYP) =  -569.194375959     A.U. after   11 cycles
 SCF Done:  E(RB3LYP) =  -569.194399656     A.U. after   10 cycles
 SCF Done:  E(RB3LYP) =  -569.194413041     A.U. after   10 cycles
 SCF Done:  E(RB3LYP) =  -569.194421487     A.U. after    9 cycles
 SCF Done:  E(RB3LYP) =  -569.194428745     A.U. after   10 cycles
 SCF Done:  E(RB3LYP) =  -569.194438191     A.U. after    9 cycles
 SCF Done:  E(RB3LYP) =  -569.194850559     A.U. after   10 cycles
 SCF Done:  E(RB3LYP) =  -569.194855042     A.U. after    9 cycles
 SCF Done:  E(RB3LYP) =  -569.194855743     A.U. after    8 cycles
 SCF Done:  E(RB3LYP) =  -569.194855996     A.U. after    8 cycles
 SCF Done:  E(RB3LYP) =  -569.194856030     A.U. after    7 cycles
 Optimization completed.
    -- Stationary point found.

 1\1\GINC-NODE309\FOpt\RB3LYP\6-31G(d)\C9H12N4\VSC10255\09-Dec-2020\0\\
 # opt freq B3LYP/6-31G(d) empiricaldispersion=gd3bj scf=xqc\\CID_53013
 932_JID_3340_neutraal\\0,1\C,1.0860788979,0.1270403432,-0.1457148313\C
 ,0.5133511706,0.1914339058,-1.5249038426\N,0.374556089,1.332276887,-2.
 126480456\N,-0.1155894801,1.4058206002,-3.4045601978\C,-0.5010535867,0
 .3092244653,-4.0333979023\C,-0.4514406932,-0.9822059067,-3.4072680299\
 C,-0.8628207051,-2.2810824108,-3.685518088\C,-0.5183128747,-3.08154473
 66,-2.5708380267\C,0.0855641237,-2.2755859614,-1.623421825\N,0.1211389

 Normal termination of Gaussian 16 at Wed Dec  9 23:06:11 2020.

 --------------------------------------------------------------------
 #N Geom=AllCheck Guess=TCheck SCRF=Check GenChk RB3LYP/6-31G(d) Freq
 --------------------------------------------------------------------

 Structure from the checkpoint file:  "JID_3340.chk"
 ------------------------------
 CID_53013932_JID_3340_neutraal
 ------------------------------
 Charge =  0 Multiplicity = 1

 SCF Done:  E(RB3LYP) =  -569.194856030     A.U. after    1 cycles

  Exact polarizability: 167.358   1.967 136.469   0.721  -2.758  62.149
 Approx polarizability: 247.584   9.766 245.781   5.010  -7.265  95.234

                      1                      2                      3
                      A                      A                      A
 Frequencies --     67.0974                96.7930               125.1714
 Red. masses --      2.4086                 3.3436                 1.7769
 Frc consts  --      0.0064                 0.0185                 0.0164
 IR Inten    --      4.3307                 4.4818                 4.3286

                      4                      5                      6
                      A                      A                      A
 Frequencies --    148.7620               197.2090               203.5807
 Red. masses --      3.2428                 2.6862                 1.1543
 Frc consts  --      0.0423                 0.0616                 0.0282
 IR Inten    --      0.4782                 1.9209                 0.3374

                      7                      8                      9
                      A                      A                      A
 Frequencies --    218.5473               253.6136               277.7513
 Red. masses --      1.3370                 2.0126                 2.5676
 Frc consts  --      0.0376                 0.0763                 0.1167
 IR Inten    --      0.4499                 0.9886                 5.3025

                     10                     11                     12
                      A                      A                      A
 Frequencies --    287.8322               358.7115               377.8843
 Red. masses --      2.7894                 3.0112                 3.5140
 Frc consts  --      0.1362                 0.2283                 0.2956
 IR Inten    --      0.8516                 0.5886                 7.1725

                     13                     14                     15
                      A                      A                      A
 Frequencies --    404.8935               505.3993               529.9861
 Red. masses --      4.2936                 3.8224                 4.9144
 Frc consts  --      0.4147                 0.5753                 0.8133
 IR Inten    --      0.9963                 6.0248                 0.2155

                     16                     17                     18
                      A                      A                      A
 Frequencies --    591.4582               616.9644               627.5872
 Red. masses --      5.8334                 4.6039                 4.6265
 Frc consts  --      1.2023                 1.0325                 1.0736
 IR Inten    --      0.2108                 2.2548                 2.2527

                     19                     20                     21
                      A                      A                      A
 Frequencies --    653.5022               658.4263               705.0674
 Red. masses --      5.1758                 6.5310                 1.3390
 Frc consts  --      1.3023                 1.6682                 0.3922
 IR Inten    --     13.7587                 4.2460                30.0897

                     22                     23                     24
                      A                      A                      A
 Frequencies --    734.6654               750.3087               794.2873
 Red. masses --      3.7776                 3.4814                 1.7180
 Frc consts  --      1.2013                 1.1547                 0.6386
 IR Inten    --      9.0182                13.9640                14.3459

                     25                     26                     27
                      A                      A                      A
 Frequencies --    882.4603               910.9525               941.3695
 Red. masses --      1.2835                 5.3058                 3.8583
 Frc consts  --      0.5889                 2.5941                 2.0145
 IR Inten    --      0.3186                 2.2029                34.0214

                     28                     29                     30
                      A                      A                      A
 Frequencies --   1001.1840              1037.2312              1075.6800
 Red. masses --      2.0572                 1.9208                 1.4791
 Frc consts  --      1.2149                 1.2175                 1.0083
 IR Inten    --      1.8748                16.4144                 1.8179

                     31                     32                     33
                      A                      A                      A
 Frequencies --   1088.6613              1094.3818              1117.4734
 Red. masses --      1.5621                 1.5682                 1.5503
 Frc consts  --      1.0908                 1.1066                 1.1406
 IR Inten    --     16.9418                 4.6653                11.4934

                     34                     35                     36
                      A                      A                      A
 Frequencies --   1135.8881              1143.1250              1179.7697
 Red. masses --      1.4054                 2.9178                 2.6270
 Frc consts  --      1.0684                 2.2464                 2.1543
 IR Inten    --      9.7655                 6.2800                60.2110

                     37                     38                     39
                      A                      A                      A
 Frequencies --   1180.0469              1259.1904              1264.8073
 Red. masses --      1.4286                 1.5437                 4.6430
 Frc consts  --      1.1721                 1.4421                 4.3762
 IR Inten    --     27.3362                 2.1364                17.0812

                     40                     41                     42
                      A                      A                      A
 Frequencies --   1309.0011              1360.8005              1403.8874
 Red. masses --      3.1058                 7.0730                 3.2532
 Frc consts  --      3.1355                 7.7169                 3.7777
 IR Inten    --     19.0326                30.5059                67.6005

                     43                     44                     45
                      A                      A                      A
 Frequencies --   1435.7557              1442.7093              1443.8915
 Red. masses --      1.6530                 6.0485                 2.7460
 Frc consts  --      2.0076                 7.4175                 3.3730
 IR Inten    --     40.4311                42.1122                90.3944

                     46                     47                     48
                      A                      A                      A
 Frequencies --   1469.5618              1474.7921              1505.0467
 Red. masses --      1.2367                 1.7165                 1.3423
 Frc consts  --      1.5735                 2.1997                 1.7914
 IR Inten    --      5.3675                97.3944                 0.7696

                     49                     50                     51
                      A                      A                      A
 Frequencies --   1505.8074              1508.8589              1513.2043
 Red. masses --      1.1759                 1.0465                 2.2516
 Frc consts  --      1.5709                 1.4038                 3.0376
 IR Inten    --     44.6135                 8.8946                 9.3642

                     52                     53                     54
                      A                      A                      A
 Frequencies --   1516.2014              1529.2034              1537.1947
 Red. masses --      1.1746                 1.0809                 1.2884
 Frc consts  --      1.5910                 1.4893                 1.7937
 IR Inten    --     22.2714                13.4605                38.4815

                     55                     56                     57
                      A                      A                      A
 Frequencies --   1561.9002              1576.6319              1647.4334
 Red. masses --      2.2748                 2.2802                 6.9503
 Frc consts  --      3.2696                 3.3395                11.1139
 IR Inten    --     13.8268               182.7117                 1.8044

                     58                     59                     60
                      A                      A                      A
 Frequencies --   3004.1354              3024.4564              3043.4098
 Red. masses --      1.0555                 1.0493                 1.0403
 Frc consts  --      5.6126                 5.6552                 5.6772
 IR Inten    --     76.2312                84.4416                22.3514

                     61                     62                     63
                      A                      A                      A
 Frequencies --   3084.8604              3093.1943              3098.8703
 Red. masses --      1.0875                 1.1009                 1.0914
 Frc consts  --      6.0976                 6.2061                 6.1749
 IR Inten    --     41.2246                15.1682                39.4246

                     64                     65                     66
                      A                      A                      A
 Frequencies --   3176.8707              3177.0358              3196.2269
 Red. masses --      1.0978                 1.0987                 1.0942
 Frc consts  --      6.5278                 6.5340                 6.5858
 IR Inten    --      3.0855                 7.0650                 8.1341

                     67                     68                     69
                      A                      A                      A
 Frequencies --   3261.2720              3286.8228              3304.4776
 Red. masses --      1.0920                 1.0971                 1.0996
 Frc consts  --      6.8428                 6.9829                 7.0747
 IR Inten    --      5.6314                 1.7040                 0.1643

 - Thermochemistry -
 -------------------
 Temperature   298.150 Kelvin.  Pressure   1.00000 Atm.
 Atom     1 has atomic number  6 and mass  12.00000

 Molecular mass:   176.10620 amu.
 Principal axes and moments of inertia in atomic units:
                           1         2         3
     Eigenvalues --  1347.713132531.333163759.13381
           X            0.99981  -0.01914  -0.00211
           Y            0.01915   0.99981   0.00469
           Z            0.00202  -0.00473   0.99999
 This molecule is an asymmetric top.
 Rotational symmetry number  1.
 Warning -- assumption of classical behavior for rotation
           may cause significant error
 Rotational temperatures (Kelvin)      0.06427     0.03422     0.02304
 Rotational constants (GHZ):           1.33911     0.71296     0.48009
 Zero-point vibrational energy     544248.5 (Joules/Mol)
                                  130.07850 (Kcal/Mol)
 Warning -- explicit consideration of  17 degrees of freedom as
           vibrations may cause significant error
 Vibrational temperatures:     96.54   139.26   180.09   214.04   283.74
          (Kelvin)            292.91   314.44   364.89   399.62   414.13
                              516.11   543.69   582.55   727.16   762.53
                              850.98   887.67   902.96   940.24   947.33
                             1014.43  1057.02  1079.53  1142.80  1269.66
                             1310.66  1354.42  1440.48  1492.34  1547.66
                             1566.34  1574.57  1607.80  1634.29  1644.70
                             1697.43  1697.82  1811.69  1819.78  1883.36
                             1957.89  2019.88  2065.73  2075.74  2077.44
                             2114.37  2121.90  2165.43  2166.52  2170.91
                             2177.16  2181.48  2200.18  2211.68  2247.23
                             2268.42  2370.29  4322.28  4351.52  4378.79
                             4438.43  4450.42  4458.58  4570.81  4571.05
                             4598.66  4692.24  4729.00  4754.41

 Zero-point correction=                           0.207293 (Hartree/Particle)
 Thermal correction to Energy=                    0.219067
 Thermal correction to Enthalpy=                  0.220011
 Thermal correction to Gibbs Free Energy=         0.169888
 Sum of electronic and zero-point Energies=           -568.987563
 Sum of electronic and thermal Energies=              -568.975789
 Sum of electronic and thermal Enthalpies=            -568.974845
 Sum of electronic and thermal Free Energies=         -569.024968

                     E (Thermal)             CV                S
                      KCal/Mol        Cal/Mol-Kelvin    Cal/Mol-Kelvin
 Total                  137.467             45.209            105.494
 Electronic               0.000              0.000              0.000
 Translational            0.889              2.981             41.405
 Rotational               0.889              2.981             30.929
 Vibrational            135.689             39.248             33.160
 Vibration     1          0.598              1.970              4.237
 Vibration     2          0.603              1.951              3.518
 Vibration     3          0.610              1.928              3.019
 Vibration     4          0.618              1.904              2.688
 Vibration     5          0.637              1.844              2.159
 Vibration     6          0.639              1.835              2.100
 Vibration     7          0.646              1.813              1.971
 Vibration     8          0.665              1.757              1.705
 Vibration     9          0.679              1.715              1.547
 Vibration    10          0.685              1.696              1.487
 Vibration    11          0.734              1.557              1.128
 Vibration    12          0.748              1.517              1.048
 Vibration    13          0.770              1.460              0.945
 Vibration    14          0.861              1.238              0.645
 Vibration    15          0.885              1.184              0.587
 Vibration    16          0.949              1.050              0.465
 Vibration    17          0.977              0.996              0.421

 Optimization completed.
    -- Stationary point found.

 1\1\GINC-NODE309\Freq\RB3LYP\6-31G(d)\C9H12N4\VSC10255\09-Dec-2020\0\\
 #N Geom=AllCheck Guess=TCheck SCRF=Check GenChk RB3LYP/6-31G(d) Freq\\
 CID_53013932_JID_3340_neutraal\\0,1\C,1.0860788979,0.1270403432,-0.145
 7148313\C,0.5133511706,0.1914339058,-1.5249038426\N,0.374556089,1.3322
 76887,-2.126480456\N,-0.1155894801,1.4058206002,-3.4045601978\C,-0.501
 0535867,0.3092244653,-4.0333979023\C,-0.4514406932,-0.9822059067,-3.40
 72680299\C,-0.8628207051,-2.2810824108,-3.685518088\C,-0.5183128747,-3
 .0815447366,-2.5708380267\C,0.0855641237,-2.2755859614,-1.623421825\N,

 Normal termination of Gaussian 16 at Wed Dec  9 23:12:16 2020.

 ----------------------------------------------------------------------
 # B3LYP/6-311++G(d,p) empiricaldispersion=gd3bj scf=xqc pop=npa geom=c
 heck
 ----------------------------------------------------------------------

 --------------------------------------
 CID_53013932_JID_3340_Energie_neutraal
 --------------------------------------
 Structure from the checkpoint file:  "JID_3340.chk"
 Charge =  0 Multiplicity = 1

 SCF Done:  E(RB3LYP) =  -569.342704535     A.U. after   15 cycles
 Normal termination of Gaussian 16 at Wed Dec  9 23:14:26 2020.

 ----------------------------------------------------------------------
 # B3LYP/6-311++G(d,p) empiricaldispersion=gd3bj scf=xqc pop=npa geom=c
 heck
 ----------------------------------------------------------------------

 ------------------------------------
 CID_53013932_JID_3340_Energie_kation
 ------------------------------------
 Structure from the checkpoint file:  "JID_3340.chk"
 Charge =  1 Multiplicity = 2

 SCF Done:  E(UB3LYP) =  -569.066096270     A.U. after   26 cycles
 Normal termination of Gaussian 16 at Wed Dec  9 23:19:37 2020.
 Gaussian 16:  ES64L-G16RevA.03 25-Dec-2016

 -----------------------------------
 CID_53013932_JID_3340_Energie_anion
 -----------------------------------
 Structure from the checkpoint file:  "JID_3340.chk"
 Charge = -1 Multiplicity = 2

                         Standard orientation:
 ---------------------------------------------------------------------
 Center     Atomic      Atomic             Coordinates (Angstroms)
 Number     Number       Type             X           Y           Z
 ---------------------------------------------------------------------
      1          6           0        3.076883   -1.555707    0.172738
      2          6           0        1.651169   -1.116266    0.080243
      3          7           0        0.695686   -1.991837    0.024475
      4          7           0       -0.618774   -1.605932   -0.024626
      5          6           0       -0.934588   -0.323211   -0.062451
      6          6           0        0.067613    0.705134   -0.082249
      7          6           0        0.127460    2.085726   -0.237553
      8          6           0        1.491981    2.457310   -0.193452
      9          6           0        2.251363    1.314338   -0.023781
     10          7           0        1.387832    0.245743    0.036966
     11          7           0       -2.276413    0.002748   -0.167740
     12          6           0       -2.830589    1.063055    0.668501
     13          6           0       -3.206577   -1.098243   -0.384553
     14          1           0        3.656918   -1.210968   -0.692848
     15          1           0        3.098572   -2.645423    0.205140
     16          1           0        3.559666   -1.158712    1.074692
     17          1           0       -0.710910    2.747210   -0.392810
     18          1           0        1.885261    3.460725   -0.283165
     19          1           0        3.318179    1.174643    0.044922
     20          1           0       -3.618090    1.597505    0.125248
     21          1           0       -3.269589    0.646878    1.589220
     22          1           0       -2.057840    1.771791    0.958766
     23          1           0       -2.817428   -1.763598   -1.154923
     24          1           0       -3.368557   -1.693343    0.526185
     25          1           0       -4.162792   -0.674565   -0.708607
 ---------------------------------------------------------------------

 SCF Done:  E(UB3LYP) =  -569.330562774     A.U. after   33 cycles
 SCF Done:  E(UB3LYP) =  -569.330562774     a.u. after    1 cycles

 The electronic state is 2-A.
 Alpha  occ. eigenvalues --  -14.28322 -14.22981 -14.22315 -14.20819 -10.14125
 Alpha  occ. eigenvalues --  -10.13616 -10.11107 -10.10038 -10.09441 -10.09031
 Alpha  occ. eigenvalues --  -10.07860 -10.07123 -10.06679  -0.93324  -0.87279
 Alpha  occ. eigenvalues --   -0.84124  -0.74286  -0.68692  -0.65342  -0.63623
 Alpha  occ. eigenvalues --   -0.61123  -0.57302  -0.53133  -0.50683  -0.47947
 Alpha  occ. eigenvalues --   -0.46129  -0.40734  -0.37811  -0.37320  -0.37183
 Alpha  occ. eigenvalues --   -0.35979  -0.34120  -0.33299  -0.31512  -0.31082
 Alpha  occ. eigenvalues --   -0.30152  -0.29697  -0.29646  -0.28783  -0.27402
 Alpha  occ. eigenvalues --   -0.27092  -0.22114  -0.20533  -0.16502  -0.13366
 Alpha  occ. eigenvalues --   -0.12505  -0.10498   0.04399
 Alpha virt. eigenvalues --    0.06180   0.07185   0.07617   0.08215   0.08801
 Alpha virt. eigenvalues --    0.09004   0.09505   0.10599   0.10939   0.12039
 Alpha virt. eigenvalues --    0.12319   0.12562   0.13425   0.13481   0.14621

  Beta  occ. eigenvalues --  -14.28272 -14.22981 -14.22334 -14.20762 -10.14044
  Beta  occ. eigenvalues --  -10.13521 -10.11122 -10.10027 -10.09388 -10.09018
  Beta  occ. eigenvalues --  -10.07836 -10.07099 -10.06640  -0.93235  -0.87195
  Beta  occ. eigenvalues --   -0.84078  -0.74180  -0.68626  -0.65280  -0.63541
  Beta  occ. eigenvalues --   -0.61072  -0.57216  -0.53069  -0.50590  -0.47883
  Beta  occ. eigenvalues --   -0.46060  -0.40680  -0.37628  -0.37238  -0.37121
  Beta  occ. eigenvalues --   -0.35871  -0.34065  -0.33224  -0.31416  -0.31039
  Beta  occ. eigenvalues --   -0.30103  -0.29652  -0.29607  -0.28742  -0.27359
  Beta  occ. eigenvalues --   -0.26873  -0.21877  -0.20488  -0.16322  -0.13304
  Beta  occ. eigenvalues --   -0.12449  -0.10239
  Beta virt. eigenvalues --    0.06779   0.07251   0.07940   0.08243   0.08361
  Beta virt. eigenvalues --    0.09270   0.09647   0.10124   0.11092   0.11290
  Beta virt. eigenvalues --    0.12213   0.12614   0.12718   0.13635   0.13902

 Mulliken charges and spin densities:
               1          2
     1  C    1.008146  -1.660432
     2  C   -1.001346   1.199667
     3  N    0.116768  -0.007001
     4  N   -0.338730   0.044262
     5  C   -0.030447  -0.084941
     6  C    0.548537  -0.768588
     7  C   -0.151675   0.101035
     8  C    0.202266  -0.704264
     9  C    0.581237  -0.588972
    10  N    0.046396   0.167638
    11  N   -0.051582   0.203995
    12  C    0.891010  -1.279421
    13  C   -0.241503  -0.133367
    14  H   -0.260474   0.428484
    15  H    0.046494   0.134719
    16  H   -0.076170   0.236274
    17  H   -0.244907   0.412038
    18  H   -0.658186   0.831576
    19  H   -0.739897   0.925997
    20  H   -0.401390   0.574616
    21  H   -0.386413   0.531313
    22  H    0.034529   0.072994
    23  H    0.066441   0.109354
    24  H    0.082190   0.081342
    25  H   -0.041293   0.171682
 Sum of Mulliken charges =  -1.00000   1.00000

 Dipole moment (field-independent basis, Debye):
    X=             -1.0441    Y=             -2.1750    Z=             -0.6828  Tot=              2.5074
 Quadrupole moment (field-independent basis, Debye-Ang):
   XX=           -145.2758   YY=           -125.6029   ZZ=           -103.0177
   XY=             -0.0471   XZ=              4.4910   YZ=             -0.3251

 Summary of Natural Population Analysis:

                                       Natural Population
                Natural  -----------------------------------------------
    Atom  No    Charge         Core      Valence    Rydberg      Total
 -----------------------------------------------------------------------
      C    1   -0.30815      0.99964     2.30259    0.00592     3.30815
      C    2    0.21684      0.99960     1.76818    0.01538     2.78316
      N    3   -0.15888      0.99965     2.64578    0.01345     3.65888
      N    4   -0.17174      0.99966     2.65884    0.01323     3.67174
      C    5    0.21342      0.99949     1.77312    0.01397     2.78658
      C    6    0.04524      0.99952     1.94313    0.01211     2.95476
      C    7   -0.13267      0.99953     2.12336    0.00978     3.13267
      C    8   -0.12203      0.99958     2.11259    0.00986     3.12203
      C    9   -0.02368      0.99957     2.01152    0.01259     3.02368
      N   10   -0.18622      0.99959     2.67671    0.00991     3.68622
      N   11   -0.25044      0.99967     2.73951    0.01126     3.75044
      C   12   -0.17324      0.99963     2.16527    0.00834     3.17324
      C   13   -0.17486      0.99965     2.16783    0.00738     3.17486
      H   14    0.10847      0.00000     0.38944    0.00210     0.39153
      H   15    0.11462      0.00000     0.38404    0.00133     0.38538
      H   16    0.10558      0.00000     0.39313    0.00128     0.39442
      H   17    0.10956      0.00000     0.38931    0.00112     0.39044
      H   18    0.10698      0.00000     0.39167    0.00135     0.39302
      H   19    0.10725      0.00000     0.39031    0.00244     0.39275
      H   20    0.09475      0.00000     0.40349    0.00176     0.40525
      H   21    0.08900      0.00000     0.40907    0.00193     0.41100
      H   22    0.10302      0.00000     0.39530    0.00168     0.39698
      H   23    0.10641      0.00000     0.39223    0.00136     0.39359
      H   24    0.09015      0.00000     0.40787    0.00198     0.40985
      H   25    0.09060      0.00000     0.40824    0.00116     0.40940
 =======================================================================
   * Total *    0.00000     12.99477    33.84255    0.16268    47.00000

 Normal termination of Gaussian 16 at Wed Dec  9 23:26:01 2020.
