 Gaussian 16, Revision A.03,

 -----------------------------------------------------------
 # opt freq B3LYP/6-31G(d) empiricaldispersion=gd3bj scf=xqc
 -----------------------------------------------------------

 ------------------------------
 CID_57752923_JID_4386_neutraal
 ------------------------------
 Symbolic Z-matrix:
 Charge =  0 Multiplicity = 1

 SCF Done:  E(RB3LYP) =  -618.382175031     A.U. after   12 cycles
 SCF Done:  E(RB3LYP) =  -618.385375058     A.U. after   11 cycles
 SCF Done:  E(RB3LYP) =  -618.384754348     A.U. after   11 cycles
 SCF Done:  E(RB3LYP) =  -618.385986923     A.U. after   10 cycles
 SCF Done:  E(RB3LYP) =  -618.386107250     A.U. after   10 cycles
 SCF Done:  E(RB3LYP) =  -618.386150072     A.U. after    9 cycles
 SCF Done:  E(RB3LYP) =  -618.386181395     A.U. after    9 cycles
 SCF Done:  E(RB3LYP) =  -618.386183942     A.U. after    8 cycles
 SCF Done:  E(RB3LYP) =  -618.386184275     A.U. after    7 cycles
 SCF Done:  E(RB3LYP) =  -618.386184404     A.U. after    6 cycles
 Optimization completed.
    -- Stationary point found.
 Normal termination of Gaussian 16 at Thu Dec 10 09:26:29 2020.

 --------------------------------------------------------------------
 #N Geom=AllCheck Guess=TCheck SCRF=Check GenChk RB3LYP/6-31G(d) Freq
 --------------------------------------------------------------------

 Structure from the checkpoint file:  "JID_4386.chk"
 ------------------------------
 CID_57752923_JID_4386_neutraal
 ------------------------------
 Charge =  0 Multiplicity = 1

 SCF Done:  E(RB3LYP) =  -618.386184404     A.U. after    1 cycles

  Exact polarizability: 141.973   3.510 133.574  -1.086  -4.155 116.741
 Approx polarizability: 187.667   1.158 178.546   0.860  -6.775 176.873

                      1                      2                      3
                      A                      A                      A
 Frequencies --     37.7718                49.4169                80.6360
 Red. masses --      2.7842                 2.9799                 3.3691
 Frc consts  --      0.0023                 0.0043                 0.0129
 IR Inten    --      0.7030                 0.3374                 0.3026

                      4                      5                      6
                      A                      A                      A
 Frequencies --    102.0842               120.2696               140.2974
 Red. masses --      2.8901                 2.7535                 3.5091
 Frc consts  --      0.0177                 0.0235                 0.0407
 IR Inten    --      0.7795                 1.1797                 1.3735

                      7                      8                      9
                      A                      A                      A
 Frequencies --    203.3090               219.0447               238.3766
 Red. masses --      3.2997                 1.8483                 1.3848
 Frc consts  --      0.0804                 0.0522                 0.0464
 IR Inten    --      0.8581                 0.4247                 1.3251

                     10                     11                     12
                      A                      A                      A
 Frequencies --    239.2298               273.4550               282.7074
 Red. masses --      1.0730                 1.7645                 2.3879
 Frc consts  --      0.0362                 0.0777                 0.1124
 IR Inten    --      0.0466                 0.7976                 2.7026

                     13                     14                     15
                      A                      A                      A
 Frequencies --    292.8035               314.8428               322.5530
 Red. masses --      1.3060                 3.2010                 1.0427
 Frc consts  --      0.0660                 0.1870                 0.0639
 IR Inten    --      1.2488                 2.7052                 0.1262

                     16                     17                     18
                      A                      A                      A
 Frequencies --    347.6710               357.0456               400.7464
 Red. masses --      2.0947                 2.2960                 2.2853
 Frc consts  --      0.1492                 0.1725                 0.2162
 IR Inten    --      3.1442                 2.5608                 2.4572

                     19                     20                     21
                      A                      A                      A
 Frequencies --    413.2399               424.8805               460.9423
 Red. masses --      2.4646                 2.3265                 2.0991
 Frc consts  --      0.2480                 0.2474                 0.2628
 IR Inten    --      2.7953                 0.8368                 6.8704

                     22                     23                     24
                      A                      A                      A
 Frequencies --    495.4625               498.9191               529.2859
 Red. masses --      2.6399                 2.4871                 2.3213
 Frc consts  --      0.3818                 0.3648                 0.3831
 IR Inten    --      2.6121                 3.4710                 1.0714

                     25                     26                     27
                      A                      A                      A
 Frequencies --    586.6551               659.1367               706.8301
 Red. masses --      3.0190                 1.6329                 2.6748
 Frc consts  --      0.6122                 0.4180                 0.7874
 IR Inten    --      2.4282                43.4022                41.9706

                     28                     29                     30
                      A                      A                      A
 Frequencies --    772.6763               776.6579               840.2294
 Red. masses --      2.3878                 1.9050                 2.9959
 Frc consts  --      0.8399                 0.6770                 1.2462
 IR Inten    --     42.5945                74.3782                17.3728

                     31                     32                     33
                      A                      A                      A
 Frequencies --    871.4081               892.5288               920.4369
 Red. masses --      1.8231                 2.2389                 1.7722
 Frc consts  --      0.8157                 1.0508                 0.8846
 IR Inten    --      1.2664                 1.4476                 1.6944

                     34                     35                     36
                      A                      A                      A
 Frequencies --    923.4149               938.1525               943.5968
 Red. masses --      1.8303                 1.7666                 3.5870
 Frc consts  --      0.9195                 0.9161                 1.8817
 IR Inten    --     10.1890                 1.3476                23.4660

                     37                     38                     39
                      A                      A                      A
 Frequencies --    968.9368               973.4776               994.9103
 Red. masses --      1.3674                 1.4157                 2.8814
 Frc consts  --      0.7564                 0.7904                 1.6805
 IR Inten    --      0.8137                 1.5512                19.2006

                     40                     41                     42
                      A                      A                      A
 Frequencies --   1005.4093              1047.5072              1056.9005
 Red. masses --      1.8505                 1.7153                 1.5668
 Frc consts  --      1.1021                 1.1089                 1.0311
 IR Inten    --      5.0155                 1.0868                 3.4947

                     43                     44                     45
                      A                      A                      A
 Frequencies --   1060.3364              1069.4608              1109.3802
 Red. masses --      1.6248                 1.6104                 2.4384
 Frc consts  --      1.0763                 1.0852                 1.7681
 IR Inten    --     10.2371                 9.4251                15.7424

                     46                     47                     48
                      A                      A                      A
 Frequencies --   1111.9114              1152.0773              1163.6988
 Red. masses --      3.0183                 3.5595                 2.2369
 Frc consts  --      2.1987                 2.7836                 1.7847
 IR Inten    --     11.0349                86.9824                27.5424

                     49                     50                     51
                      A                      A                      A
 Frequencies --   1169.4595              1191.0050              1225.9977
 Red. masses --      2.0997                 1.2994                 1.6833
 Frc consts  --      1.6919                 1.0860                 1.4907
 IR Inten    --     22.0567                 3.3698                 8.6207

                     52                     53                     54
                      A                      A                      A
 Frequencies --   1231.6779              1242.9061              1255.9700
 Red. masses --      1.5954                 1.9508                 1.7665
 Frc consts  --      1.4260                 1.7755                 1.6418
 IR Inten    --     28.1904                15.1496                36.1506

                     55                     56                     57
                      A                      A                      A
 Frequencies --   1270.5261              1280.1623              1294.9941
 Red. masses --      2.2819                 1.7360                 1.4309
 Frc consts  --      2.1703                 1.6762                 1.4138
 IR Inten    --     42.9734                13.1996                10.5448

                     58                     59                     60
                      A                      A                      A
 Frequencies --   1313.3976              1328.3981              1363.0346
 Red. masses --      1.4752                 1.3483                 1.2689
 Frc consts  --      1.4993                 1.4018                 1.3890
 IR Inten    --      1.6305                 8.6145                 1.0111

                     61                     62                     63
                      A                      A                      A
 Frequencies --   1371.4178              1376.2558              1391.3266
 Red. masses --      1.3336                 1.3505                 1.3968
 Frc consts  --      1.4778                 1.5071                 1.5931
 IR Inten    --      0.1788                 1.0317                 4.0016

                     64                     65                     66
                      A                      A                      A
 Frequencies --   1408.7684              1420.3118              1422.4840
 Red. masses --      1.3336                 1.3562                 1.2488
 Frc consts  --      1.5593                 1.6119                 1.4889
 IR Inten    --      2.9375                 9.7204                 7.6189

                     67                     68                     69
                      A                      A                      A
 Frequencies --   1427.0432              1429.5144              1452.4475
 Red. masses --      1.2872                 1.2766                 1.2284
 Frc consts  --      1.5445                 1.5371                 1.5268
 IR Inten    --      8.9282                14.6766                14.2877

                     70                     71                     72
                      A                      A                      A
 Frequencies --   1495.8907              1499.9312              1502.6771
 Red. masses --      1.1410                 1.1173                 1.1035
 Frc consts  --      1.5043                 1.4810                 1.4681
 IR Inten    --     15.4340                 0.9703                 9.6631

                     73                     74                     75
                      A                      A                      A
 Frequencies --   1509.0378              1513.1874              1514.6628
 Red. masses --      1.1196                 1.1007                 1.0627
 Frc consts  --      1.5022                 1.4850                 1.4364
 IR Inten    --      7.2286                 0.7985                 1.2650

                     76                     77                     78
                      A                      A                      A
 Frequencies --   1515.6431              1518.6548              1522.8483
 Red. masses --      1.0876                 1.0660                 1.0664
 Frc consts  --      1.4720                 1.4485                 1.4571
 IR Inten    --     14.0587                 3.4806                 8.5427

                     79                     80                     81
                      A                      A                      A
 Frequencies --   1524.3194              1531.5754              1533.2208
 Red. masses --      1.0908                 1.0849                 1.0575
 Frc consts  --      1.4934                 1.4994                 1.4647
 IR Inten    --      4.3426                 3.6065                 3.5269

                     82                     83                     84
                      A                      A                      A
 Frequencies --   1543.9400              1546.5428              1549.4735
 Red. masses --      1.0643                 1.1252                 1.0641
 Frc consts  --      1.4948                 1.5857                 1.5052
 IR Inten    --     12.4663                16.5919                 5.0530

                     85                     86                     87
                      A                      A                      A
 Frequencies --   2993.0799              3016.5276              3025.4045
 Red. masses --      1.0366                 1.0806                 1.0675
 Frc consts  --      5.4716                 5.7933                 5.7566
 IR Inten    --     47.3344                 3.5939                30.8648

                     88                     89                     90
                      A                      A                      A
 Frequencies --   3028.5216              3032.8048              3036.2890
 Red. masses --      1.0607                 1.0668                 1.0674
 Frc consts  --      5.7319                 5.7813                 5.7980
 IR Inten    --      3.2038                 0.7775                97.0171

                     91                     92                     93
                      A                      A                      A
 Frequencies --   3038.3667              3039.5564              3044.4081
 Red. masses --      1.1008                 1.0378                 1.0384
 Frc consts  --      5.9874                 5.6491                 5.6706
 IR Inten    --     54.9911                29.7185                36.7041

                     94                     95                     96
                      A                      A                      A
 Frequencies --   3057.8345              3070.7829              3087.8813
 Red. masses --      1.0373                 1.0996                 1.1007
 Frc consts  --      5.7144                 6.1089                 6.1835
 IR Inten    --     11.8448                57.1268                50.4598

                     97                     98                     99
                      A                      A                      A
 Frequencies --   3092.0450              3094.3461              3104.4230
 Red. masses --      1.1008                 1.0850                 1.1004
 Frc consts  --      6.2007                 6.1208                 6.2484
 IR Inten    --     43.5816                29.5352                 9.2333

                    100                    101                    102
                      A                      A                      A
 Frequencies --   3110.1335              3117.2740              3121.2648
 Red. masses --      1.0983                 1.1013                 1.0983
 Frc consts  --      6.2595                 6.3054                 6.3043
 IR Inten    --     58.3697                21.4830                94.5750

                    103                    104                    105
                      A                      A                      A
 Frequencies --   3123.5653              3125.0386              3132.1725
 Red. masses --      1.0958                 1.0977                 1.1028
 Frc consts  --      6.2994                 6.3158                 6.3746
 IR Inten    --     25.3367                15.9098                14.9223

                    106                    107                    108
                      A                      A                      A
 Frequencies --   3136.6560              3472.0314              3492.5550
 Red. masses --      1.1026                 1.0736                 1.0729
 Frc consts  --      6.3913                 7.6252                 7.7110
 IR Inten    --     50.4560                 5.8181                 2.3383

 - Thermochemistry -
 -------------------
 Temperature   298.150 Kelvin.  Pressure   1.00000 Atm.
 Atom     1 has atomic number  6 and mass  12.00000

 Molecular mass:   200.18886 amu.
 Principal axes and moments of inertia in atomic units:
                           1         2         3
     Eigenvalues --  2574.737853115.030534652.97931
           X            0.99835   0.05739   0.00065
           Y           -0.05738   0.99823  -0.01543
           Z           -0.00153   0.01537   0.99988
 This molecule is an asymmetric top.
 Rotational symmetry number  1.
 Warning -- assumption of classical behavior for rotation
           may cause significant error
 Rotational temperatures (Kelvin)      0.03364     0.02781     0.01861
 Rotational constants (GHZ):           0.70094     0.57937     0.38787
 Zero-point vibrational energy     925146.3 (Joules/Mol)
                                  221.11528 (Kcal/Mol)
 Warning -- explicit consideration of  25 degrees of freedom as
           vibrations may cause significant error
 Vibrational temperatures:     54.35    71.10   116.02   146.88   173.04
          (Kelvin)            201.86   292.52   315.16   342.97   344.20
                              393.44   406.75   421.28   452.99   464.08
                              500.22   513.71   576.58   594.56   611.31
                              663.19   712.86   717.83   761.52   844.07
                              948.35  1016.97  1111.71  1117.44  1208.90
                             1253.76  1284.15  1324.30  1328.59  1349.79
                             1357.63  1394.08  1400.62  1431.45  1446.56
                             1507.13  1520.64  1525.59  1538.72  1596.15
                             1599.79  1657.58  1674.30  1682.59  1713.59
                             1763.94  1772.11  1788.26  1807.06  1828.00
                             1841.87  1863.21  1889.69  1911.27  1961.10
                             1973.16  1980.13  2001.81  2026.90  2043.51
                             2046.64  2053.20  2056.75  2089.75  2152.25
                             2158.07  2162.02  2171.17  2177.14  2179.26
                             2180.67  2185.01  2191.04  2193.16  2203.60
                             2205.96  2221.39  2225.13  2229.35  4306.37
                             4340.11  4352.88  4357.37  4363.53  4368.54
                             4371.53  4373.24  4380.22  4399.54  4418.17
                             4442.77  4448.76  4452.07  4466.57  4474.79
                             4485.06  4490.80  4494.11  4496.23  4506.50
                             4512.95  4995.48  5025.01

 Zero-point correction=                           0.352370 (Hartree/Particle)
 Thermal correction to Energy=                    0.368097
 Thermal correction to Enthalpy=                  0.369041
 Thermal correction to Gibbs Free Energy=         0.310138
 Sum of electronic and zero-point Energies=           -618.033815
 Sum of electronic and thermal Energies=              -618.018088
 Sum of electronic and thermal Enthalpies=            -618.017143
 Sum of electronic and thermal Free Energies=         -618.076046

                     E (Thermal)             CV                S
                      KCal/Mol        Cal/Mol-Kelvin    Cal/Mol-Kelvin
 Total                  230.984             61.271            123.972
 Electronic               0.000              0.000              0.000
 Translational            0.889              2.981             41.787
 Rotational               0.889              2.981             31.990
 Vibrational            229.207             55.310             50.195
 Vibration     1          0.594              1.982              5.373
 Vibration     2          0.595              1.978              4.841
 Vibration     3          0.600              1.962              3.875
 Vibration     4          0.604              1.947              3.414
 Vibration     5          0.609              1.932              3.096
 Vibration     6          0.615              1.913              2.800
 Vibration     7          0.639              1.835              2.103
 Vibration     8          0.647              1.812              1.967
 Vibration     9          0.656              1.782              1.815
 Vibration    10          0.657              1.780              1.809
 Vibration    11          0.676              1.722              1.574
 Vibration    12          0.682              1.706              1.517
 Vibration    13          0.688              1.687              1.458
 Vibration    14          0.702              1.645              1.337
 Vibration    15          0.708              1.630              1.297
 Vibration    16          0.725              1.580              1.177
 Vibration    17          0.732              1.561              1.135
 Vibration    18          0.767              1.469              0.960
 Vibration    19          0.777              1.441              0.915
 Vibration    20          0.787              1.416              0.876
 Vibration    21          0.819              1.337              0.763
 Vibration    22          0.851              1.260              0.670
 Vibration    23          0.854              1.252              0.661
 Vibration    24          0.884              1.185              0.589
 Vibration    25          0.944              1.060              0.473

 Optimization completed.
    -- Stationary point found.
 Normal termination of Gaussian 16 at Thu Dec 10 09:41:13 2020.

 ----------------------------------------------------------------------
 # B3LYP/6-311++G(d,p) empiricaldispersion=gd3bj scf=xqc pop=npa geom=c
 heck
 ----------------------------------------------------------------------

 --------------------------------------
 CID_57752923_JID_4386_Energie_neutraal
 --------------------------------------
 Structure from the checkpoint file:  "JID_4386.chk"
 Charge =  0 Multiplicity = 1

 SCF Done:  E(RB3LYP) =  -618.567938385     A.U. after   14 cycles
 Normal termination of Gaussian 16 at Thu Dec 10 09:48:31 2020.

 ----------------------------------------------------------------------
 # B3LYP/6-311++G(d,p) empiricaldispersion=gd3bj scf=xqc pop=npa geom=c
 heck
 ----------------------------------------------------------------------

 ------------------------------------
 CID_57752923_JID_4386_Energie_kation
 ------------------------------------
 Structure from the checkpoint file:  "JID_4386.chk"
 Charge =  1 Multiplicity = 2

 SCF Done:  E(UB3LYP) =  -618.289761329     A.U. after   21 cycles
 Normal termination of Gaussian 16 at Thu Dec 10 10:04:06 2020.
 Gaussian 16:  ES64L-G16RevA.03 25-Dec-2016

 ----------------------------------------------------------------------
 # B3LYP/6-311++G(d,p) empiricaldispersion=gd3bj scf=xqc pop=npa geom=c
 heck
 ----------------------------------------------------------------------

 -----------------------------------
 CID_57752923_JID_4386_Energie_anion
 -----------------------------------
 Structure from the checkpoint file:  "JID_4386.chk"
 Charge = -1 Multiplicity = 2

                         Standard orientation:
 ---------------------------------------------------------------------
 Center     Atomic      Atomic             Coordinates (Angstroms)
 Number     Number       Type             X           Y           Z
 ---------------------------------------------------------------------
      1          6           0        2.876200   -0.426393   -1.048287
      2          6           0        2.225034    0.248559    0.177188
      3          6           0        3.081562   -0.031316    1.420834
      4          6           0        2.163506    1.766470   -0.052691
      5          7           0        0.872712   -0.252449    0.499111
      6          6           0       -0.168771   -0.278801   -0.535767
      7          6           0       -0.246787   -1.618794   -1.309846
      8          7           0       -0.632755   -2.766263   -0.488285
      9          6           0       -1.882652   -2.525763    0.239307
     10          6           0       -1.923612   -1.201113    1.015882
     11          6           0       -1.557299   -0.012629    0.108328
     12          6           0       -1.660031    1.326083    0.861916
     13          8           0       -2.292325    2.366375    0.124699
     14          6           0       -1.505681    2.913472   -0.908029
     15          1           0        3.894110   -0.049821   -1.203496
     16          1           0        2.308791   -0.228252   -1.963692
     17          1           0        2.937127   -1.512456   -0.911445
     18          1           0        4.095203    0.363070    1.295175
     19          1           0        2.630465    0.431414    2.304261
     20          1           0        3.164770   -1.110743    1.603249
     21          1           0        1.564289    2.020287   -0.933026
     22          1           0        1.723290    2.266048    0.815560
     23          1           0        3.170099    2.167528   -0.214455
     24          1           0        0.956411   -1.175063    0.919931
     25          1           0        0.051378    0.519236   -1.250729
     26          1           0       -0.996179   -1.520314   -2.108042
     27          1           0        0.708167   -1.846958   -1.790330
     28          1           0        0.113707   -2.988299    0.169454
     29          1           0       -2.063617   -3.377201    0.905198
     30          1           0       -2.692866   -2.524981   -0.504037
     31          1           0       -1.224142   -1.238759    1.863360
     32          1           0       -2.924331   -1.050152    1.441276
     33          1           0       -2.300980    0.025932   -0.701728
     34          1           0       -2.290636    1.200765    1.748507
     35          1           0       -0.662280    1.637749    1.202793
     36          1           0       -0.521275    3.241912   -0.539303
     37          1           0       -1.345437    2.208471   -1.738775
     38          1           0       -2.045963    3.781915   -1.296075
 ---------------------------------------------------------------------

 SCF Done:  E(UB3LYP) =  -618.555168544     A.U. after   28 cycles

 The electronic state is 2-A.
 Alpha  occ. eigenvalues --  -19.02857 -14.19948 -14.19177 -10.11734 -10.11162
 Alpha  occ. eigenvalues --  -10.10870 -10.09718 -10.09518 -10.08996 -10.07424
 Alpha  occ. eigenvalues --  -10.06852 -10.05555 -10.05445 -10.05429  -0.93977
 Alpha  occ. eigenvalues --   -0.82731  -0.79631  -0.70716  -0.67651  -0.63710
 Alpha  occ. eigenvalues --   -0.62002  -0.58836  -0.58626  -0.55849  -0.52786
 Alpha  occ. eigenvalues --   -0.50490  -0.47526  -0.44694  -0.40658  -0.39398
 Alpha  occ. eigenvalues --   -0.38493  -0.38317  -0.36794  -0.35894  -0.34596
 Alpha  occ. eigenvalues --   -0.33494  -0.33456  -0.32535  -0.31736  -0.29821
 Alpha  occ. eigenvalues --   -0.29365  -0.29069  -0.28207  -0.27590  -0.27441
 Alpha  occ. eigenvalues --   -0.26513  -0.25550  -0.25375  -0.24305  -0.23748
 Alpha  occ. eigenvalues --   -0.22311  -0.21952  -0.20905  -0.16605  -0.14050
 Alpha  occ. eigenvalues --   -0.11281   0.04316
 Alpha virt. eigenvalues --    0.06306   0.06887   0.07811   0.08236   0.08908
 Alpha virt. eigenvalues --    0.09307   0.09380   0.09947   0.10574   0.11000
 Alpha virt. eigenvalues --    0.11700   0.12043   0.12359   0.12537   0.12958

  Beta  occ. eigenvalues --  -19.02852 -14.19923 -14.19160 -10.11714 -10.11157
  Beta  occ. eigenvalues --  -10.10867 -10.09712 -10.09504 -10.08986 -10.07423
  Beta  occ. eigenvalues --  -10.06838 -10.05522 -10.05407 -10.05392  -0.93966
  Beta  occ. eigenvalues --   -0.82698  -0.79596  -0.70694  -0.67623  -0.63679
  Beta  occ. eigenvalues --   -0.61970  -0.58774  -0.58559  -0.55812  -0.52746
  Beta  occ. eigenvalues --   -0.50449  -0.47484  -0.44634  -0.40620  -0.39371
  Beta  occ. eigenvalues --   -0.38462  -0.38290  -0.36769  -0.35868  -0.34555
  Beta  occ. eigenvalues --   -0.33460  -0.33425  -0.32506  -0.31710  -0.29786
  Beta  occ. eigenvalues --   -0.29339  -0.29036  -0.28177  -0.27554  -0.27417
  Beta  occ. eigenvalues --   -0.26476  -0.25518  -0.25344  -0.24275  -0.23713
  Beta  occ. eigenvalues --   -0.22284  -0.21924  -0.20886  -0.16591  -0.14020
  Beta  occ. eigenvalues --   -0.11256
  Beta virt. eigenvalues --    0.06445   0.07183   0.07446   0.08051   0.08911
  Beta virt. eigenvalues --    0.09408   0.09562   0.09772   0.10192   0.11029
  Beta virt. eigenvalues --    0.11444   0.11972   0.12238   0.12431   0.12808

 Mulliken charges and spin densities:
               1          2
     1  C    1.259187  -1.795364
     2  C   -2.063376   1.984770
     3  C    0.278009  -0.729963
     4  C    0.836453  -1.334421
     5  N    0.319411  -0.033877
     6  C   -0.747565   0.606071
     7  C    0.368609  -1.337942
     8  N   -0.118370   0.094014
     9  C   -0.032792  -0.517792
    10  C   -0.246141  -0.188251
    11  C    0.553390   0.040002
    12  C   -0.465146  -0.307267
    13  O   -0.111343   0.014885
    14  C    0.079347  -0.427238
    15  H   -0.188227   0.345054
    16  H   -0.390019   0.534065
    17  H   -0.059240   0.225317
    18  H   -0.171195   0.311837
    19  H   -0.101382   0.255369
    20  H   -0.513581   0.658176
    21  H   -0.406032   0.553728
    22  H    0.031197   0.107848
    23  H   -0.262143   0.425730
    24  H    0.559017  -0.319963
    25  H    0.738129  -0.533039
    26  H   -0.103162   0.260012
    27  H    0.209396  -0.039822
    28  H   -0.180657   0.419160
    29  H   -0.390731   0.574079
    30  H    0.194410  -0.045157
    31  H   -0.118817   0.278399
    32  H   -0.022240   0.167484
    33  H    0.176971   0.041375
    34  H    0.049549   0.127824
    35  H    0.282034  -0.083060
    36  H    0.100423   0.032099
    37  H   -0.218443   0.342365
    38  H   -0.124931   0.293492
 Sum of Mulliken charges =  -1.00000   1.00000

 Dipole moment (field-independent basis, Debye):
    X=             -4.6088    Y=              1.5809    Z=             -0.3253  Tot=              4.8832
 Quadrupole moment (field-independent basis, Debye-Ang):
   XX=           -153.8747   YY=           -151.0370   ZZ=           -129.1924
   XY=              1.9129   XZ=              0.9675   YZ=              6.5709

 Summary of Natural Population Analysis:

                                       Natural Population
                Natural  -----------------------------------------------
    Atom  No    Charge         Core      Valence    Rydberg      Total
 -----------------------------------------------------------------------
      C    1   -0.29518      0.99962     2.28826    0.00730     3.29518
      C    2    0.05555      0.99959     1.93133    0.01353     2.94445
      C    3   -0.28426      0.99962     2.27726    0.00739     3.28426
      C    4   -0.28741      0.99961     2.28031    0.00749     3.28741
      N    5   -0.36061      0.99971     2.84717    0.01373     3.86061
      C    6   -0.01999      0.99956     2.00757    0.01285     3.01999
      C    7   -0.09470      0.99960     2.08330    0.01181     3.09470
      N    8   -0.33720      0.99976     2.82465    0.01279     3.83720
      C    9   -0.08752      0.99962     2.07599    0.01191     3.08752
      C   10   -0.19935      0.99961     2.19113    0.00861     3.19935
      C   11   -0.12691      0.99957     2.11701    0.01032     3.12691
      C   12   -0.00531      0.99954     1.99404    0.01173     3.00531
      O   13   -0.30000      0.99989     3.29076    0.00936     4.30000
      C   14   -0.09926      0.99962     2.09007    0.00957     3.09926
      H   15    0.10246      0.00000     0.39637    0.00117     0.39754
      H   16    0.09853      0.00000     0.40025    0.00122     0.40147
      H   17    0.10081      0.00000     0.39765    0.00154     0.39919
      H   18    0.10127      0.00000     0.39758    0.00115     0.39873
      H   19    0.10260      0.00000     0.39628    0.00112     0.39740
      H   20    0.10055      0.00000     0.39782    0.00164     0.39945
      H   21    0.09810      0.00000     0.40052    0.00138     0.40190
      H   22    0.10082      0.00000     0.39797    0.00121     0.39918
      H   23    0.10211      0.00000     0.39679    0.00110     0.39789
      H   24    0.17525      0.00000     0.32018    0.00457     0.32475
      H   25    0.09970      0.00000     0.39775    0.00255     0.40030
      H   26    0.08903      0.00000     0.40979    0.00118     0.41097
      H   27    0.10070      0.00000     0.39810    0.00121     0.39930
      H   28    0.17144      0.00000     0.32491    0.00364     0.32856
      H   29    0.09639      0.00000     0.40260    0.00101     0.40361
      H   30    0.08554      0.00000     0.41322    0.00124     0.41446
      H   31    0.09899      0.00000     0.39939    0.00162     0.40101
      H   32    0.09790      0.00000     0.40106    0.00104     0.40210
      H   33    0.09839      0.00000     0.39992    0.00170     0.40161
      H   34    0.08663      0.00000     0.41205    0.00132     0.41337
      H   35    0.08986      0.00000     0.40858    0.00156     0.41014
      H   36    0.08100      0.00000     0.41778    0.00122     0.41900
      H   37    0.07704      0.00000     0.42172    0.00124     0.42296
      H   38    0.08705      0.00000     0.41200    0.00094     0.41295
 =======================================================================
   * Total *   -0.00000     13.99490    41.81914    0.18596    56.00000

 Normal termination of Gaussian 16 at Thu Dec 10 10:24:40 2020.
