 Gaussian 16, Revision A.03,

 -----------------------------------------------------------
 # opt freq B3LYP/6-31G(d) empiricaldispersion=gd3bj scf=xqc
 -----------------------------------------------------------

 --------------------------------
 CID_115629993_JID_10872_neutraal
 --------------------------------
 Symbolic Z-matrix:
 Charge =  0 Multiplicity = 1

 SCF Done:  E(RB3LYP) =  -897.785777343     A.U. after   15 cycles
 SCF Done:  E(RB3LYP) =  -897.797058088     A.U. after   13 cycles
 SCF Done:  E(RB3LYP) =  -897.788230189     A.U. after   15 cycles
 SCF Done:  E(RB3LYP) =  -897.792021685     A.U. after   14 cycles
 SCF Done:  E(RB3LYP) =  -897.799387168     A.U. after   12 cycles
 SCF Done:  E(RB3LYP) =  -897.800590655     A.U. after   13 cycles
 SCF Done:  E(RB3LYP) =  -897.801454362     A.U. after   13 cycles
 SCF Done:  E(RB3LYP) =  -897.802878600     A.U. after   12 cycles
 SCF Done:  E(RB3LYP) =  -897.804121537     A.U. after   13 cycles
 SCF Done:  E(RB3LYP) =  -897.804693015     A.U. after   13 cycles
 SCF Done:  E(RB3LYP) =  -897.806063244     A.U. after    9 cycles
 SCF Done:  E(RB3LYP) =  -897.806063751     A.U. after    8 cycles
 SCF Done:  E(RB3LYP) =  -897.806063901     A.U. after    7 cycles
 SCF Done:  E(RB3LYP) =  -897.806063922     A.U. after    6 cycles
 SCF Done:  E(RB3LYP) =  -897.806063929     A.U. after    6 cycles
 Optimization completed.
    -- Stationary point found.
 Normal termination of Gaussian 16 at Sat Dec 12 16:50:39 2020.

 --------------------------------------------------------------------
 #N Geom=AllCheck Guess=TCheck SCRF=Check GenChk RB3LYP/6-31G(d) Freq
 --------------------------------------------------------------------

 Structure from the checkpoint file:  "JID_10872.chk"
 --------------------------------
 CID_115629993_JID_10872_neutraal
 --------------------------------
 Charge =  0 Multiplicity = 1

 SCF Done:  E(RB3LYP) =  -897.806063929     A.U. after    1 cycles

  Exact polarizability: 234.716  17.589 153.585  -8.331   7.532 141.661
 Approx polarizability: 326.367  24.811 237.816 -24.907  11.578 238.327

                      1                      2                      3
                      A                      A                      A
 Frequencies --     24.5992                36.3664                54.6596
 Red. masses --      4.1568                 4.4883                 4.5147
 Frc consts  --      0.0015                 0.0035                 0.0079
 IR Inten    --      0.1889                 0.4691                 0.5223

                      4                      5                      6
                      A                      A                      A
 Frequencies --     62.3919                71.2473                87.6624
 Red. masses --      4.1150                 1.1896                 3.1976
 Frc consts  --      0.0094                 0.0036                 0.0145
 IR Inten    --      0.4437                 0.2020                 0.0070

                      7                      8                      9
                      A                      A                      A
 Frequencies --     95.7106               107.2095               127.8612
 Red. masses --      5.0974                 3.5307                 5.4791
 Frc consts  --      0.0275                 0.0239                 0.0528
 IR Inten    --      2.2535                 1.0838                 0.5194

                     10                     11                     12
                      A                      A                      A
 Frequencies --    154.4869               169.5126               205.7759
 Red. masses --      4.3990                 3.6715                 3.0434
 Frc consts  --      0.0619                 0.0622                 0.0759
 IR Inten    --      2.1534                 1.8021                 1.0619

                     13                     14                     15
                      A                      A                      A
 Frequencies --    241.0417               253.0522               257.9648
 Red. masses --      1.0672                 3.1651                 3.7258
 Frc consts  --      0.0365                 0.1194                 0.1461
 IR Inten    --      0.0573                 0.3672                 0.6790

                     16                     17                     18
                      A                      A                      A
 Frequencies --    272.5453               293.3212               301.5714
 Red. masses --      1.2038                 2.9650                 3.8867
 Frc consts  --      0.0527                 0.1503                 0.2083
 IR Inten    --      0.8083                 1.0692                 2.2598

                     19                     20                     21
                      A                      A                      A
 Frequencies --    334.9378               371.4301               398.3573
 Red. masses --      4.2543                 3.5090                 3.5514
 Frc consts  --      0.2812                 0.2852                 0.3320
 IR Inten    --      7.7979                 0.1811                 3.5582

                     22                     23                     24
                      A                      A                      A
 Frequencies --    424.2031               456.1168               494.9895
 Red. masses --      3.0181                 6.0263                 3.9077
 Frc consts  --      0.3200                 0.7387                 0.5641
 IR Inten    --      3.6749                12.9601                 4.7920

                     25                     26                     27
                      A                      A                      A
 Frequencies --    516.8232               523.2934               559.4915
 Red. masses --      3.8137                 3.3936                 3.2907
 Frc consts  --      0.6002                 0.5475                 0.6069
 IR Inten    --      1.0124                 5.3629                 6.1064

                     28                     29                     30
                      A                      A                      A
 Frequencies --    567.6841               591.5914               606.9725
 Red. masses --      1.8052                 2.0480                 4.5210
 Frc consts  --      0.3428                 0.4223                 0.9813
 IR Inten    --     33.8160                52.3774                 3.1781

                     31                     32                     33
                      A                      A                      A
 Frequencies --    608.8127               656.3484               689.6062
 Red. masses --      3.7561                 3.8896                 4.7357
 Frc consts  --      0.8203                 0.9873                 1.3269
 IR Inten    --      6.8115                 9.8101                 5.6548

                     34                     35                     36
                      A                      A                      A
 Frequencies --    709.3765               735.6727               757.9503
 Red. masses --      4.6179                 3.6460                 1.3913
 Frc consts  --      1.3691                 1.1626                 0.4709
 IR Inten    --     24.1985                15.9420                52.7067

                     37                     38                     39
                      A                      A                      A
 Frequencies --    766.7252               782.8068               818.4322
 Red. masses --      2.1656                 1.7458                 4.7799
 Frc consts  --      0.7501                 0.6303                 1.8864
 IR Inten    --     12.4795                26.4217                 7.6192

                     40                     41                     42
                      A                      A                      A
 Frequencies --    837.7815               871.7996               880.5126
 Red. masses --      6.3182                 1.2559                 1.4901
 Frc consts  --      2.6128                 0.5624                 0.6807
 IR Inten    --     20.0339                20.3198                 0.0313

                     43                     44                     45
                      A                      A                      A
 Frequencies --    910.5991               912.0556               948.9785
 Red. masses --      4.5536                 2.6450                 1.3358
 Frc consts  --      2.2246                 1.2963                 0.7087
 IR Inten    --      1.9355                 1.6606                 0.3487

                     46                     47                     48
                      A                      A                      A
 Frequencies --    951.4931               975.9562               977.1335
 Red. masses --      1.1976                 2.7034                 1.6317
 Frc consts  --      0.6388                 1.5171                 0.9179
 IR Inten    --      0.6200                20.7142                 4.6215

                     49                     50                     51
                      A                      A                      A
 Frequencies --    982.5472              1012.9612              1022.0559
 Red. masses --      1.3072                 1.5552                 4.3723
 Frc consts  --      0.7435                 0.9402                 2.6910
 IR Inten    --      0.1371                16.7598                60.1290

                     52                     53                     54
                      A                      A                      A
 Frequencies --   1049.8711              1064.6620              1077.5521
 Red. masses --      2.4586                 2.0834                 1.4380
 Frc consts  --      1.5967                 1.3914                 0.9838
 IR Inten    --     28.0206                12.0919                 5.7650

                     55                     56                     57
                      A                      A                      A
 Frequencies --   1098.2636              1115.0980              1139.7422
 Red. masses --      1.5186                 2.7220                 2.3734
 Frc consts  --      1.0792                 1.9942                 1.8165
 IR Inten    --      0.8223                53.6127                 1.9447

                     58                     59                     60
                      A                      A                      A
 Frequencies --   1141.5882              1187.5284              1195.8854
 Red. masses --      2.8802                 1.2692                 3.4074
 Frc consts  --      2.2115                 1.0546                 2.8711
 IR Inten    --     25.1343                 0.5982                 0.9975

                     61                     62                     63
                      A                      A                      A
 Frequencies --   1200.0087              1215.0535              1246.1291
 Red. masses --      1.3433                 2.1622                 2.0300
 Frc consts  --      1.1397                 1.8808                 1.8573
 IR Inten    --      0.1279               121.0229                66.5429

                     64                     65                     66
                      A                      A                      A
 Frequencies --   1256.0051              1295.4302              1314.1959
 Red. masses --      1.7370                 1.5715                 1.7223
 Frc consts  --      1.6145                 1.5538                 1.7526
 IR Inten    --      3.2609                19.4235                 9.7389

                     67                     68                     69
                      A                      A                      A
 Frequencies --   1336.2769              1352.1427              1361.6717
 Red. masses --      3.7892                 2.6617                 1.9056
 Frc consts  --      3.9865                 2.8672                 2.0818
 IR Inten    --     30.4659                 3.1990               122.8268

                     70                     71                     72
                      A                      A                      A
 Frequencies --   1371.6431              1394.9565              1398.5202
 Red. masses --      1.3560                 2.5630                 2.1518
 Frc consts  --      1.5031                 2.9385                 2.4796
 IR Inten    --     14.1324                 1.4137                 5.2124

                     73                     74                     75
                      A                      A                      A
 Frequencies --   1413.2318              1426.8240              1429.1368
 Red. masses --      1.9381                 1.7059                 1.2358
 Frc consts  --      2.2806                 2.0462                 1.4871
 IR Inten    --     73.7366                10.3217                 3.6525

                     76                     77                     78
                      A                      A                      A
 Frequencies --   1450.2293              1450.9661              1489.5923
 Red. masses --      1.2205                 1.3589                 2.1084
 Frc consts  --      1.5124                 1.6856                 2.7564
 IR Inten    --      4.6861                 0.9610                12.8037

                     79                     80                     81
                      A                      A                      A
 Frequencies --   1497.1121              1512.5195              1518.3607
 Red. masses --      1.9741                 1.2052                 1.0590
 Frc consts  --      2.6069                 1.6245                 1.4384
 IR Inten    --     18.0836                11.5500                 8.4521

                     82                     83                     84
                      A                      A                      A
 Frequencies --   1521.0335              1522.1642              1529.5116
 Red. masses --      1.0533                 1.0480                 1.1440
 Frc consts  --      1.4358                 1.4307                 1.5768
 IR Inten    --      1.7772                 2.9688                 1.4146

                     85                     86                     87
                      A                      A                      A
 Frequencies --   1534.0014              1535.9196              1548.0258
 Red. masses --      1.0848                 1.6263                 1.2907
 Frc consts  --      1.5039                 2.2604                 1.8223
 IR Inten    --      8.6625                20.2196                46.3578

                     88                     89                     90
                      A                      A                      A
 Frequencies --   1556.2944              1640.4949              1659.2857
 Red. masses --      3.2515                 6.0129                 4.9821
 Frc consts  --      4.6400                 9.5342                 8.0818
 IR Inten    --     47.9880                10.9323               108.3779

                     91                     92                     93
                      A                      A                      A
 Frequencies --   1665.4653              1792.2180              3034.8693
 Red. masses --      6.0308                 8.3988                 1.0418
 Frc consts  --      9.8559                15.8945                 5.6536
 IR Inten    --      1.8440               372.6082                40.7572

                     94                     95                     96
                      A                      A                      A
 Frequencies --   3045.5422              3049.6411              3087.9700
 Red. masses --      1.0356                 1.0356                 1.0965
 Frc consts  --      5.6592                 5.6748                 6.1602
 IR Inten    --     18.9694                34.8864                20.0683

                     97                     98                     99
                      A                      A                      A
 Frequencies --   3094.3001              3103.2457              3109.7534
 Red. masses --      1.0569                 1.0960                 1.1005
 Frc consts  --      5.9621                 6.2187                 6.2704
 IR Inten    --     17.7920                19.7688                 0.9658

                    100                    101                    102
                      A                      A                      A
 Frequencies --   3121.7150              3122.0000              3132.4417
 Red. masses --      1.1026                 1.1002                 1.0926
 Frc consts  --      6.3305                 6.3183                 6.3164
 IR Inten    --     31.8056                15.9389                40.0233

                    103                    104                    105
                      A                      A                      A
 Frequencies --   3139.6858              3157.3116              3186.2033
 Red. masses --      1.0986                 1.1108                 1.0853
 Frc consts  --      6.3808                 6.5239                 6.4917
 IR Inten    --     19.6363                12.5070                 2.7600

                    106                    107                    108
                      A                      A                      A
 Frequencies --   3195.1110              3204.3898              3215.5493
 Red. masses --      1.0884                 1.0929                 1.0978
 Frc consts  --      6.5467                 6.6121                 6.6877
 IR Inten    --      6.8977                26.7595                20.0087

                    109                    110                    111
                      A                      A                      A
 Frequencies --   3250.2575              3574.7747              3581.5021
 Red. masses --      1.0961                 1.0841                 1.0756
 Frc consts  --      6.8221                 8.1622                 8.1287
 IR Inten    --     10.7145               318.4642                26.8388

 - Thermochemistry -
 -------------------
 Temperature   298.150 Kelvin.  Pressure   1.00000 Atm.
 Atom     1 has atomic number  6 and mass  12.00000

 Molecular mass:   273.14773 amu.
 Principal axes and moments of inertia in atomic units:
                           1         2         3
     Eigenvalues --  2832.509818474.058338795.47896
           X            0.99994  -0.00714   0.00772
           Y            0.00618   0.99298   0.11814
           Z           -0.00851  -0.11809   0.99297
 This molecule is an asymmetric top.
 Rotational symmetry number  1.
 Warning -- assumption of classical behavior for rotation
           may cause significant error
 Rotational temperatures (Kelvin)      0.03058     0.01022     0.00985
 Rotational constants (GHZ):           0.63715     0.21297     0.20519
 Zero-point vibrational energy     857622.9 (Joules/Mol)
                                  204.97679 (Kcal/Mol)
 Warning -- explicit consideration of  31 degrees of freedom as
           vibrations may cause significant error
 Vibrational temperatures:     35.39    52.32    78.64    89.77   102.51
          (Kelvin)            126.13   137.71   154.25   183.96   222.27
                              243.89   296.07   346.81   364.09   371.15
                              392.13   422.02   433.89   481.90   534.41
                              573.15   610.33   656.25   712.18   743.59
                              752.90   804.98   816.77   851.17   873.30
                              875.95   944.34   992.19  1020.63  1058.47
                             1090.52  1103.15  1126.28  1177.54  1205.38
                             1254.33  1266.86  1310.15  1312.24  1365.37
                             1368.99  1404.18  1405.88  1413.67  1457.43
                             1470.51  1510.53  1531.81  1550.36  1580.16
                             1604.38  1639.83  1642.49  1708.59  1720.61
                             1726.54  1748.19  1792.90  1807.11  1863.84
                             1890.83  1922.60  1945.43  1959.14  1973.49
                             2007.03  2012.16  2033.33  2052.88  2056.21
                             2086.56  2087.62  2143.19  2154.01  2176.18
                             2184.58  2188.43  2190.05  2200.63  2207.09
                             2209.85  2227.26  2239.16  2360.31  2387.34
                             2396.23  2578.60  4366.50  4381.86  4387.75
                             4442.90  4452.01  4464.88  4474.24  4491.45
                             4491.86  4506.88  4517.31  4542.67  4584.24
                             4597.05  4610.40  4626.46  4676.40  5143.30
                             5152.98

 Zero-point correction=                           0.326651 (Hartree/Particle)
 Thermal correction to Energy=                    0.345978
 Thermal correction to Enthalpy=                  0.346922
 Thermal correction to Gibbs Free Energy=         0.277834
 Sum of electronic and zero-point Energies=           -897.479413
 Sum of electronic and thermal Energies=              -897.460086
 Sum of electronic and thermal Enthalpies=            -897.459141
 Sum of electronic and thermal Free Energies=         -897.528230

                     E (Thermal)             CV                S
                      KCal/Mol        Cal/Mol-Kelvin    Cal/Mol-Kelvin
 Total                  217.105             72.966            145.409
 Electronic               0.000              0.000              0.000
 Translational            0.889              2.981             42.713
 Rotational               0.889              2.981             33.712
 Vibrational            215.327             67.004             68.984
 Vibration     1          0.593              1.985              6.223
 Vibration     2          0.594              1.982              5.448
 Vibration     3          0.596              1.976              4.641
 Vibration     4          0.597              1.972              4.380
 Vibration     5          0.598              1.968              4.119
 Vibration     6          0.601              1.958              3.712
 Vibration     7          0.603              1.952              3.540
 Vibration     8          0.606              1.943              3.319
 Vibration     9          0.611              1.925              2.978
 Vibration    10          0.620              1.898              2.616
 Vibration    11          0.625              1.880              2.441
 Vibration    12          0.640              1.832              2.081
 Vibration    13          0.658              1.778              1.795
 Vibration    14          0.664              1.758              1.709
 Vibration    15          0.667              1.749              1.676
 Vibration    16          0.676              1.724              1.580
 Vibration    17          0.688              1.686              1.455
 Vibration    18          0.694              1.671              1.408
 Vibration    19          0.716              1.606              1.236
 Vibration    20          0.743              1.531              1.074
 Vibration    21          0.765              1.474              0.969
 Vibration    22          0.786              1.418              0.878
 Vibration    23          0.814              1.347              0.777
 Vibration    24          0.851              1.261              0.671
 Vibration    25          0.872              1.213              0.617
 Vibration    26          0.878              1.198              0.602
 Vibration    27          0.915              1.119              0.525
 Vibration    28          0.924              1.101              0.509
 Vibration    29          0.949              1.050              0.464
 Vibration    30          0.966              1.017              0.438
 Vibration    31          0.968              1.013              0.435

 Optimization completed.
    -- Stationary point found.
 Normal termination of Gaussian 16 at Sat Dec 12 17:11:41 2020.

 ----------------------------------------------------------------------
 # B3LYP/6-311++G(d,p) empiricaldispersion=gd3bj scf=xqc pop=npa geom=c
 heck
 ----------------------------------------------------------------------

 ----------------------------------------
 CID_115629993_JID_10872_Energie_neutraal
 ----------------------------------------
 Structure from the checkpoint file:  "JID_10872.chk"
 Charge =  0 Multiplicity = 1

 SCF Done:  E(RB3LYP) =  -898.053764473     A.U. after   16 cycles
 Normal termination of Gaussian 16 at Sat Dec 12 17:20:12 2020.

 ----------------------------------------------------------------------
 # B3LYP/6-311++G(d,p) empiricaldispersion=gd3bj scf=xqc pop=npa geom=c
 heck
 ----------------------------------------------------------------------

 --------------------------------------
 CID_115629993_JID_10872_Energie_kation
 --------------------------------------
 Structure from the checkpoint file:  "JID_10872.chk"
 Charge =  1 Multiplicity = 2

 SCF Done:  E(UB3LYP) =  -897.759981652     A.U. after   30 cycles
 Normal termination of Gaussian 16 at Sat Dec 12 17:41:59 2020.
 Gaussian 16:  ES64L-G16RevA.03 25-Dec-2016

 ----------------------------------------------------------------------
 # B3LYP/6-311++G(d,p) empiricaldispersion=gd3bj scf=xqc pop=npa geom=c
 heck
 ----------------------------------------------------------------------

 -------------------------------------
 CID_115629993_JID_10872_Energie_anion
 -------------------------------------
 Structure from the checkpoint file:  "JID_10872.chk"
 Charge = -1 Multiplicity = 2

                         Standard orientation:
 ---------------------------------------------------------------------
 Center     Atomic      Atomic             Coordinates (Angstroms)
 Number     Number       Type             X           Y           Z
 ---------------------------------------------------------------------
      1          6           0        4.816886   -0.038597    1.111632
      2          6           0        3.853804    0.061770   -0.030952
      3          6           0        2.476800   -0.111194    0.012208
      4          7           0        2.008238    0.094960   -1.252556
      5          7           0        2.997995    0.357201   -2.133360
      6          6           0        4.105996    0.356990   -1.392657
      7          7           0        1.661294   -0.377763    1.118901
      8          6           0        0.565575   -1.207202    1.233212
      9          8           0       -0.023521   -1.329171    2.296796
     10          6           0        0.094938   -1.912678   -0.037541
     11          8           0       -0.550186   -0.986599   -0.926547
     12          6           0       -1.873931   -0.671351   -0.608273
     13          6           0       -2.854429   -1.628007   -0.876355
     14          6           0       -4.190487   -1.345551   -0.610624
     15          6           0       -4.536963   -0.099384   -0.085078
     16          6           0       -3.547342    0.846892    0.165480
     17          6           0       -2.191561    0.587841   -0.084581
     18          6           0       -1.137891    1.643697    0.202077
     19          6           0       -1.361937    2.903183   -0.651552
     20          6           0       -1.078653    1.984158    1.701116
     21          1           0        4.494128   -0.791206    1.840655
     22          1           0        5.811633   -0.327918    0.758222
     23          1           0        4.929174    0.912974    1.648766
     24          1           0        1.048382   -0.014031   -1.562388
     25          1           0        5.062667    0.554684   -1.859547
     26          1           0        1.914626    0.069970    1.992342
     27          1           0        0.931097   -2.338372   -0.598104
     28          1           0       -0.596724   -2.701447    0.265295
     29          1           0       -2.556975   -2.581355   -1.302850
     30          1           0       -4.954320   -2.088567   -0.819570
     31          1           0       -5.576200    0.135427    0.125433
     32          1           0       -3.828061    1.814302    0.572368
     33          1           0       -0.166290    1.232406   -0.078063
     34          1           0       -2.315596    3.385694   -0.408520
     35          1           0       -0.563162    3.631903   -0.473188
     36          1           0       -1.371832    2.660259   -1.719369
     37          1           0       -0.897952    1.087115    2.300628
     38          1           0       -0.274883    2.704614    1.894099
     39          1           0       -2.017581    2.435500    2.042238
 ---------------------------------------------------------------------

 SCF Done:  E(UB3LYP) =  -898.044001735     A.U. after   33 cycles
 SCF Done:  E(UB3LYP) =  -898.044001734     a.u. after    1 cycles

 The electronic state is 2-A.
 Alpha  occ. eigenvalues --  -19.07394 -19.01025 -14.28852 -14.27046 -14.23786
 Alpha  occ. eigenvalues --  -10.19024 -10.15543 -10.15321 -10.14848 -10.09962
 Alpha  occ. eigenvalues --  -10.09770 -10.09532 -10.09365 -10.09304 -10.09254
 Alpha  occ. eigenvalues --  -10.09135 -10.08336 -10.07898 -10.07847 -10.06978
 Alpha  occ. eigenvalues --   -0.98843  -0.96210  -0.95436  -0.85408  -0.77961
 Alpha  occ. eigenvalues --   -0.72656  -0.72152  -0.70359  -0.68016  -0.65542
 Alpha  occ. eigenvalues --   -0.63145  -0.61491  -0.60031  -0.55087  -0.54252
 Alpha  occ. eigenvalues --   -0.52593  -0.51304  -0.49571  -0.48659  -0.46346
 Alpha  occ. eigenvalues --   -0.45023  -0.41969  -0.40615  -0.40101  -0.39049
 Alpha  occ. eigenvalues --   -0.37133  -0.36252  -0.36093  -0.35566  -0.34730
 Alpha  occ. eigenvalues --   -0.34397  -0.33534  -0.33067  -0.32442  -0.31610
 Alpha  occ. eigenvalues --   -0.31338  -0.30540  -0.30294  -0.29698  -0.29069
 Alpha  occ. eigenvalues --   -0.28415  -0.27380  -0.25752  -0.25511  -0.24579
 Alpha  occ. eigenvalues --   -0.22547  -0.22357  -0.20100  -0.18201  -0.16863
 Alpha  occ. eigenvalues --   -0.16655  -0.15868  -0.13561   0.03901
 Alpha virt. eigenvalues --    0.05265   0.05772   0.06335   0.06504   0.07010
 Alpha virt. eigenvalues --    0.07368   0.07792   0.08060   0.08847   0.09144
 Alpha virt. eigenvalues --    0.09580   0.09987   0.10169   0.10706   0.10974

  Beta  occ. eigenvalues --  -19.07380 -19.00949 -14.28831 -14.27031 -14.23768
  Beta  occ. eigenvalues --  -10.18925 -10.15531 -10.15309 -10.14842 -10.09957
  Beta  occ. eigenvalues --  -10.09770 -10.09528 -10.09351 -10.09290 -10.09247
  Beta  occ. eigenvalues --  -10.09122 -10.08328 -10.07842 -10.07838 -10.06966
  Beta  occ. eigenvalues --   -0.98801  -0.96133  -0.95346  -0.85344  -0.77939
  Beta  occ. eigenvalues --   -0.72624  -0.72132  -0.70305  -0.67962  -0.65515
  Beta  occ. eigenvalues --   -0.63063  -0.61416  -0.60009  -0.55034  -0.54184
  Beta  occ. eigenvalues --   -0.52547  -0.51271  -0.49510  -0.48626  -0.46286
  Beta  occ. eigenvalues --   -0.44969  -0.41873  -0.40547  -0.40050  -0.39001
  Beta  occ. eigenvalues --   -0.37088  -0.36201  -0.36055  -0.35511  -0.34688
  Beta  occ. eigenvalues --   -0.34332  -0.33490  -0.33032  -0.32324  -0.31542
  Beta  occ. eigenvalues --   -0.31167  -0.30510  -0.30236  -0.29666  -0.29011
  Beta  occ. eigenvalues --   -0.28379  -0.27360  -0.25735  -0.25489  -0.24550
  Beta  occ. eigenvalues --   -0.22441  -0.22275  -0.20043  -0.18137  -0.16838
  Beta  occ. eigenvalues --   -0.16584  -0.15817  -0.13451
  Beta virt. eigenvalues --    0.05761   0.06349   0.06353   0.06490   0.06822
  Beta virt. eigenvalues --    0.07373   0.07764   0.08156   0.08416   0.09036
  Beta virt. eigenvalues --    0.09368   0.09953   0.10078   0.10343   0.10853

 Mulliken charges and spin densities:
               1          2
     1  C    2.271790  -2.926205
     2  C   -2.817884   3.338957
     3  C    1.638322  -2.023347
     4  N   -0.268213   0.010332
     5  N    0.258522  -0.047381
     6  C   -1.013154   0.374457
     7  N   -0.053143  -0.000230
     8  C   -0.333610   0.334532
     9  O   -0.270244   0.045251
    10  C    0.529323  -0.816007
    11  O   -0.094170   0.013095
    12  C   -0.823968   0.637549
    13  C   -0.277151   0.183946
    14  C    0.740933  -0.980175
    15  C    0.276039  -0.704806
    16  C   -0.412434   0.058896
    17  C    0.475489   0.206341
    18  C    0.565644   0.020043
    19  C   -0.539636  -0.210122
    20  C   -0.344561  -0.548606
    21  H   -0.351006   0.511466
    22  H   -0.327207   0.475601
    23  H   -0.207343   0.386706
    24  H    0.366462  -0.001916
    25  H   -0.089638   0.237295
    26  H   -0.023307   0.357564
    27  H    0.063294   0.160028
    28  H    0.104386   0.100221
    29  H   -0.222513   0.388978
    30  H   -0.356849   0.527204
    31  H   -0.328091   0.496093
    32  H    0.098644   0.034645
    33  H    0.436903  -0.244309
    34  H   -0.014402   0.162885
    35  H    0.101566   0.050786
    36  H    0.092168   0.055872
    37  H    0.193637  -0.009324
    38  H   -0.080086   0.241183
    39  H    0.035490   0.102498
 Sum of Mulliken charges =  -1.00000   1.00000

 Dipole moment (field-independent basis, Debye):
    X=             -2.2514    Y=              1.1906    Z=             -2.1206  Tot=              3.3142
 Quadrupole moment (field-independent basis, Debye-Ang):
   XX=           -221.7721   YY=           -155.3294   ZZ=           -167.2831
   XY=             -8.6752   XZ=             -8.4790   YZ=              1.0327

 Summary of Natural Population Analysis:

                                       Natural Population
                Natural  -----------------------------------------------
    Atom  No    Charge         Core      Valence    Rydberg      Total
 -----------------------------------------------------------------------
      C    1   -0.29524      0.99964     2.28998    0.00561     3.29524
      C    2   -0.07588      0.99948     2.06630    0.01009     3.07588
      C    3    0.15839      0.99944     1.82791    0.01426     2.84161
      N    4   -0.17971      0.99965     2.66865    0.01141     3.67971
      N    5   -0.15354      0.99974     2.64165    0.01215     3.65354
      C    6   -0.01044      0.99958     1.99688    0.01398     3.01044
      N    7   -0.31523      0.99964     2.80561    0.00999     3.81523
      C    8    0.33728      0.99969     1.64040    0.02263     2.66272
      O    9   -0.29906      0.99988     3.29371    0.00547     4.29906
      C   10   -0.04989      0.99952     2.03965    0.01072     3.04989
      O   11   -0.30143      0.99987     3.29187    0.00970     4.30143
      C   12    0.15182      0.99929     1.83548    0.01340     2.84818
      C   13   -0.11558      0.99950     2.10631    0.00976     3.11558
      C   14   -0.09853      0.99957     2.08926    0.00970     3.09853
      C   15   -0.10244      0.99957     2.09275    0.01013     3.10244
      C   16   -0.09474      0.99952     2.08595    0.00928     3.09474
      C   17   -0.02187      0.99944     2.01142    0.01102     3.02187
      C   18   -0.12712      0.99957     2.11802    0.00953     3.12712
      C   19   -0.27767      0.99965     2.27352    0.00450     3.27767
      C   20   -0.28365      0.99965     2.27780    0.00621     3.28365
      H   21    0.10686      0.00000     0.39133    0.00181     0.39314
      H   22    0.10641      0.00000     0.39221    0.00138     0.39359
      H   23    0.10539      0.00000     0.39315    0.00145     0.39461
      H   24    0.21319      0.00000     0.28361    0.00319     0.28681
      H   25    0.09612      0.00000     0.40289    0.00099     0.40388
      H   26    0.20724      0.00000     0.28980    0.00296     0.29276
      H   27    0.10135      0.00000     0.39726    0.00138     0.39865
      H   28    0.10174      0.00000     0.39704    0.00122     0.39826
      H   29    0.10677      0.00000     0.39199    0.00124     0.39323
      H   30    0.10301      0.00000     0.39572    0.00127     0.39699
      H   31    0.10192      0.00000     0.39703    0.00105     0.39808
      H   32    0.10106      0.00000     0.39796    0.00098     0.39894
      H   33    0.10319      0.00000     0.39321    0.00360     0.39681
      H   34    0.09521      0.00000     0.40394    0.00085     0.40479
      H   35    0.09973      0.00000     0.39955    0.00073     0.40027
      H   36    0.10057      0.00000     0.39867    0.00076     0.39943
      H   37    0.11190      0.00000     0.38703    0.00107     0.38810
      H   38    0.09874      0.00000     0.40045    0.00080     0.40126
      H   39    0.09412      0.00000     0.40507    0.00080     0.40588
 =======================================================================
   * Total *    0.00000     19.99189    52.77103    0.23709    73.00000

 Normal termination of Gaussian 16 at Sat Dec 12 18:05:34 2020.
