 Gaussian 16, Revision A.03,

 -----------------------------------------------------------
 # opt freq B3LYP/6-31G(d) empiricaldispersion=gd3bj scf=xqc
 -----------------------------------------------------------

 ------------------------------
 CID_87741180_JID_5408_neutraal
 ------------------------------
 Symbolic Z-matrix:
 Charge =  0 Multiplicity = 1

 SCF Done:  E(RB3LYP) =  -746.912018245     A.U. after   14 cycles
 SCF Done:  E(RB3LYP) =  -746.916097172     A.U. after   13 cycles
 SCF Done:  E(RB3LYP) =  -746.914265623     A.U. after   13 cycles
 SCF Done:  E(RB3LYP) =  -746.916937345     A.U. after   13 cycles
 SCF Done:  E(RB3LYP) =  -746.916684251     A.U. after   13 cycles
 SCF Done:  E(RB3LYP) =  -746.917475637     A.U. after   13 cycles
 SCF Done:  E(RB3LYP) =  -746.917961996     A.U. after   12 cycles
 SCF Done:  E(RB3LYP) =  -746.918039638     A.U. after   11 cycles
 SCF Done:  E(RB3LYP) =  -746.918033279     A.U. after   12 cycles
 SCF Done:  E(RB3LYP) =  -746.918074176     A.U. after   12 cycles
 SCF Done:  E(RB3LYP) =  -746.918100714     A.U. after   10 cycles
 SCF Done:  E(RB3LYP) =  -746.918115307     A.U. after   11 cycles
 SCF Done:  E(RB3LYP) =  -746.918123123     A.U. after   11 cycles
 SCF Done:  E(RB3LYP) =  -746.918125977     A.U. after   10 cycles
 SCF Done:  E(RB3LYP) =  -746.918126693     A.U. after    9 cycles
 SCF Done:  E(RB3LYP) =  -746.918126767     A.U. after    7 cycles
 Optimization completed.
    -- Stationary point found.
 Normal termination of Gaussian 16 at Thu Dec 10 16:00:31 2020.

 --------------------------------------------------------------------
 #N Geom=AllCheck Guess=TCheck SCRF=Check GenChk RB3LYP/6-31G(d) Freq
 --------------------------------------------------------------------

 Structure from the checkpoint file:  "JID_5408.chk"
 ------------------------------
 CID_87741180_JID_5408_neutraal
 ------------------------------
 Charge =  0 Multiplicity = 1

 SCF Done:  E(RB3LYP) =  -746.918126767     A.U. after    1 cycles

  Exact polarizability: 135.087  -1.649 114.149  -3.514  -1.281 104.590
 Approx polarizability: 174.666   2.300 180.528  -5.177   6.714 153.902

                      1                      2                      3
                      A                      A                      A
 Frequencies --     28.6302                49.9655                61.2708
 Red. masses --      5.8455                 4.7377                 5.4937
 Frc consts  --      0.0028                 0.0070                 0.0122
 IR Inten    --      3.2549                 2.8522                 0.9099

                      4                      5                      6
                      A                      A                      A
 Frequencies --     91.4945               116.7792               137.8380
 Red. masses --      5.2167                 4.1549                 3.4892
 Frc consts  --      0.0257                 0.0334                 0.0391
 IR Inten    --      2.2432                 5.7211                 1.2547

                      7                      8                      9
                      A                      A                      A
 Frequencies --    172.7945               197.1264               220.4056
 Red. masses --      3.1076                 3.3702                 2.9315
 Frc consts  --      0.0547                 0.0772                 0.0839
 IR Inten    --      3.6693                 3.3316                 4.6685

                     10                     11                     12
                      A                      A                      A
 Frequencies --    236.9946               251.8411               274.1324
 Red. masses --      1.5069                 3.5364                 2.8496
 Frc consts  --      0.0499                 0.1321                 0.1262
 IR Inten    --     89.4215                 1.3178                18.8420

                     13                     14                     15
                      A                      A                      A
 Frequencies --    317.5289               345.6697               370.1367
 Red. masses --      2.7395                 2.8621                 2.3498
 Frc consts  --      0.1627                 0.2015                 0.1897
 IR Inten    --      6.3626                 3.6660                 0.2931

                     16                     17                     18
                      A                      A                      A
 Frequencies --    385.9464               424.7024               435.5077
 Red. masses --      3.2611                 2.2584                 2.8174
 Frc consts  --      0.2862                 0.2400                 0.3148
 IR Inten    --      1.5680                 1.3164                 0.8131

                     19                     20                     21
                      A                      A                      A
 Frequencies --    466.9165               507.8886               514.2135
 Red. masses --      3.5046                 2.8196                 2.6162
 Frc consts  --      0.4502                 0.4285                 0.4076
 IR Inten    --      2.6788                 1.6897                10.8263

                     22                     23                     24
                      A                      A                      A
 Frequencies --    524.4104               558.8072               612.3766
 Red. masses --      2.6288                 3.3742                 1.2624
 Frc consts  --      0.4259                 0.6208                 0.2789
 IR Inten    --      7.0147                 4.0559                60.6538

                     25                     26                     27
                      A                      A                      A
 Frequencies --    644.3367               655.7166               753.5519
 Red. masses --      2.1479                 3.1561                 3.3259
 Frc consts  --      0.5254                 0.7995                 1.1127
 IR Inten    --     31.7480                 4.8825                10.8370

                     28                     29                     30
                      A                      A                      A
 Frequencies --    768.4739               792.8943               809.3894
 Red. masses --      2.2994                 1.8459                 2.3995
 Frc consts  --      0.8001                 0.6837                 0.9262
 IR Inten    --      2.4323                 9.6905                 3.1361

                     31                     32                     33
                      A                      A                      A
 Frequencies --    869.4594               880.1595               912.0066
 Red. masses --      2.4906                 2.9789                 2.2941
 Frc consts  --      1.1093                 1.3596                 1.1242
 IR Inten    --      4.1106                 5.5202                 0.3020

                     34                     35                     36
                      A                      A                      A
 Frequencies --    919.2085               921.8718               969.6355
 Red. masses --      2.2782                 2.8356                 1.9377
 Frc consts  --      1.1342                 1.4198                 1.0734
 IR Inten    --      6.6715                22.9683                10.4271

                     37                     38                     39
                      A                      A                      A
 Frequencies --    994.8537              1010.1376              1033.9796
 Red. masses --      2.0660                 2.5394                 3.2876
 Frc consts  --      1.2048                 1.5267                 2.0708
 IR Inten    --      1.0084                 4.2766                16.4628

                     40                     41                     42
                      A                      A                      A
 Frequencies --   1051.4412              1064.5174              1092.3549
 Red. masses --      2.1554                 2.2393                 2.1116
 Frc consts  --      1.4039                 1.4951                 1.4845
 IR Inten    --      5.0173                17.7255                12.1556

                     43                     44                     45
                      A                      A                      A
 Frequencies --   1109.2093              1136.7230              1140.8701
 Red. masses --      2.4117                 2.2259                 2.5410
 Frc consts  --      1.7483                 1.6946                 1.9486
 IR Inten    --     12.3451                37.7886                 1.1239

                     46                     47                     48
                      A                      A                      A
 Frequencies --   1171.6278              1188.0947              1230.0855
 Red. masses --      2.8604                 2.0068                 1.2718
 Frc consts  --      2.3134                 1.6690                 1.1338
 IR Inten    --     61.2988                20.9389                 4.4159

                     49                     50                     51
                      A                      A                      A
 Frequencies --   1239.4740              1270.5838              1285.7072
 Red. masses --      1.2773                 1.6300                 1.3220
 Frc consts  --      1.1561                 1.5504                 1.2876
 IR Inten    --      0.5836                 8.4961                15.4189

                     52                     53                     54
                      A                      A                      A
 Frequencies --   1300.1609              1324.3639              1348.4585
 Red. masses --      1.4302                 1.2985                 1.2650
 Frc consts  --      1.4244                 1.3419                 1.3553
 IR Inten    --     24.2675                28.5573                14.3300

                     55                     56                     57
                      A                      A                      A
 Frequencies --   1351.7001              1358.0322              1369.5365
 Red. masses --      1.3050                 1.3355                 1.2341
 Frc consts  --      1.4049                 1.4511                 1.3638
 IR Inten    --     15.7774                 5.4428                 5.1186

                     58                     59                     60
                      A                      A                      A
 Frequencies --   1386.3167              1400.9948              1406.8865
 Red. masses --      1.2827                 1.3030                 1.3677
 Frc consts  --      1.4524                 1.5068                 1.5950
 IR Inten    --     15.5490                36.5450                15.1022

                     61                     62                     63
                      A                      A                      A
 Frequencies --   1412.2904              1421.6039              1435.8897
 Red. masses --      1.3683                 1.3021                 1.2287
 Frc consts  --      1.6080                 1.5504                 1.4925
 IR Inten    --      2.5542                10.5831                11.1168

                     64                     65                     66
                      A                      A                      A
 Frequencies --   1460.4437              1498.0807              1499.3884
 Red. masses --      1.3781                 1.0956                 1.0859
 Frc consts  --      1.7319                 1.4487                 1.4383
 IR Inten    --     44.0233                 2.2428                 1.4367

                     67                     68                     69
                      A                      A                      A
 Frequencies --   1501.8508              1507.9976              1510.9842
 Red. masses --      1.0915                 1.0877                 1.1100
 Frc consts  --      1.4505                 1.4574                 1.4931
 IR Inten    --      9.4019                 6.1714                21.2428

                     70                     71                     72
                      A                      A                      A
 Frequencies --   1524.2419              1527.2788              1799.7447
 Red. masses --      1.0872                 1.0897                11.3081
 Frc consts  --      1.4883                 1.4976                21.5805
 IR Inten    --      7.5355                 8.6923               109.9714

                     73                     74                     75
                      A                      A                      A
 Frequencies --   1825.2650              2946.9022              3053.4891
 Red. masses --      9.0428                 1.0845                 1.0631
 Frc consts  --     17.7503                 5.5490                 5.8403
 IR Inten    --    178.8086                80.4461                27.1507

                     76                     77                     78
                      A                      A                      A
 Frequencies --   3055.1509              3059.8872              3069.5450
 Red. masses --      1.0631                 1.0648                 1.0608
 Frc consts  --      5.8462                 5.8738                 5.8888
 IR Inten    --     24.1174                 4.9000                39.1604

                     79                     80                     81
                      A                      A                      A
 Frequencies --   3073.6396              3074.7933              3094.8136
 Red. masses --      1.0596                 1.0616                 1.0626
 Frc consts  --      5.8981                 5.9135                 5.9962
 IR Inten    --     19.4169                21.7312                 6.7544

                     82                     83                     84
                      A                      A                      A
 Frequencies --   3097.1283              3100.1203              3113.6096
 Red. masses --      1.0982                 1.1011                 1.1017
 Frc consts  --      6.2066                 6.2347                 6.2925
 IR Inten    --     14.1827                27.5001                 3.8120

                     85                     86                     87
                      A                      A                      A
 Frequencies --   3119.1476              3123.2125              3133.6698
 Red. masses --      1.1036                 1.1052                 1.1052
 Frc consts  --      6.3259                 6.3516                 6.3946
 IR Inten    --     20.3895                27.6311                19.2734

                     88                     89                     90
                      A                      A                      A
 Frequencies --   3159.0775              3630.6579              3752.2107
 Red. masses --      1.1029                 1.0662                 1.0686
 Frc consts  --      6.4849                 8.2803                 8.8639
 IR Inten    --      7.0684               226.8849                53.7310

 - Thermochemistry -
 -------------------
 Temperature   298.150 Kelvin.  Pressure   1.00000 Atm.
 Atom     1 has atomic number  6 and mass  12.00000

 Molecular mass:   215.11576 amu.
 Principal axes and moments of inertia in atomic units:
                           1         2         3
     Eigenvalues --  1619.465235023.112535448.95528
           X            0.99992  -0.01249  -0.00036
           Y            0.01247   0.99930  -0.03517
           Z            0.00080   0.03517   0.99938
 This molecule is an asymmetric top.
 Rotational symmetry number  1.
 Warning -- assumption of classical behavior for rotation
           may cause significant error
 Rotational temperatures (Kelvin)      0.05348     0.01724     0.01590
 Rotational constants (GHZ):           1.11441     0.35929     0.33121
 Zero-point vibrational energy     718048.3 (Joules/Mol)
                                  171.61767 (Kcal/Mol)
 Warning -- explicit consideration of  24 degrees of freedom as
           vibrations may cause significant error
 Vibrational temperatures:     41.19    71.89    88.16   131.64   168.02
          (Kelvin)            198.32   248.61   283.62   317.11   340.98
                              362.34   394.42   456.85   497.34   532.54
                              555.29   611.05   626.60   671.79   730.74
                              739.84   754.51   804.00   881.07   927.06
                              943.43  1084.19  1105.66  1140.80  1164.53
                             1250.96  1266.35  1312.17  1322.54  1326.37
                             1395.09  1431.37  1453.36  1487.67  1512.79
                             1531.60  1571.66  1595.90  1635.49  1641.46
                             1685.71  1709.40  1769.82  1783.33  1828.09
                             1849.85  1870.64  1905.46  1940.13  1944.79
                             1953.91  1970.46  1994.60  2015.72  2024.20
                             2031.97  2045.37  2065.93  2101.25  2155.40
                             2157.29  2160.83  2169.67  2173.97  2193.04
                             2197.41  2589.43  2626.15  4239.94  4393.29
                             4395.68  4402.50  4416.39  4422.28  4423.94
                             4452.75  4456.08  4460.38  4479.79  4487.76
                             4493.61  4508.65  4545.21  5223.71  5398.59

 Zero-point correction=                           0.273490 (Hartree/Particle)
 Thermal correction to Energy=                    0.288732
 Thermal correction to Enthalpy=                  0.289676
 Thermal correction to Gibbs Free Energy=         0.230711
 Sum of electronic and zero-point Energies=           -746.644637
 Sum of electronic and thermal Energies=              -746.629395
 Sum of electronic and thermal Enthalpies=            -746.628451
 Sum of electronic and thermal Free Energies=         -746.687416

                     E (Thermal)             CV                S
                      KCal/Mol        Cal/Mol-Kelvin    Cal/Mol-Kelvin
 Total                  181.182             58.095            124.102
 Electronic               0.000              0.000              0.000
 Translational            0.889              2.981             42.001
 Rotational               0.889              2.981             32.161
 Vibrational            179.404             52.133             49.940
 Vibration     1          0.593              1.984              5.922
 Vibration     2          0.595              1.978              4.819
 Vibration     3          0.597              1.973              4.416
 Vibration     4          0.602              1.955              3.628
 Vibration     5          0.608              1.935              3.153
 Vibration     6          0.614              1.916              2.834
 Vibration     7          0.626              1.876              2.405
 Vibration     8          0.637              1.844              2.160
 Vibration     9          0.647              1.810              1.956
 Vibration    10          0.656              1.784              1.825
 Vibration    11          0.664              1.760              1.718
 Vibration    12          0.676              1.721              1.570
 Vibration    13          0.704              1.640              1.323
 Vibration    14          0.724              1.584              1.186
 Vibration    15          0.742              1.534              1.079
 Vibration    16          0.755              1.500              1.016
 Vibration    17          0.787              1.417              0.876
 Vibration    18          0.796              1.393              0.841
 Vibration    19          0.824              1.323              0.746
 Vibration    20          0.863              1.233              0.639
 Vibration    21          0.869              1.219              0.624
 Vibration    22          0.879              1.196              0.600
 Vibration    23          0.914              1.120              0.526
 Vibration    24          0.972              1.006              0.429

                           ! Non-Optimized Parameters !
 Normal termination of Gaussian 16 at Thu Dec 10 16:12:08 2020.

 ----------------------------------------------------------------------
 # B3LYP/6-311++G(d,p) empiricaldispersion=gd3bj scf=xqc pop=npa geom=c
 heck
 ----------------------------------------------------------------------

 --------------------------------------
 CID_87741180_JID_5408_Energie_neutraal
 --------------------------------------
 Structure from the checkpoint file:  "JID_5408.chk"
 Charge =  0 Multiplicity = 1

 SCF Done:  E(RB3LYP) =  -747.152300921     A.U. after   15 cycles
 Normal termination of Gaussian 16 at Thu Dec 10 16:17:15 2020.

 ----------------------------------------------------------------------
 # B3LYP/6-311++G(d,p) empiricaldispersion=gd3bj scf=xqc pop=npa geom=c
 heck
 ----------------------------------------------------------------------

 ------------------------------------
 CID_87741180_JID_5408_Energie_kation
 ------------------------------------
 Structure from the checkpoint file:  "JID_5408.chk"
 Charge =  1 Multiplicity = 2

 SCF Done:  E(UB3LYP) =  -746.842701820     A.U. after   28 cycles
 Normal termination of Gaussian 16 at Thu Dec 10 16:33:09 2020.
 Gaussian 16:  ES64L-G16RevA.03 25-Dec-2016

 ----------------------------------------------------------------------
 # B3LYP/6-311++G(d,p) empiricaldispersion=gd3bj scf=xqc pop=npa geom=c
 heck
 ----------------------------------------------------------------------

 -----------------------------------
 CID_87741180_JID_5408_Energie_anion
 -----------------------------------
 Structure from the checkpoint file:  "JID_5408.chk"
 Charge = -1 Multiplicity = 2

                         Standard orientation:
 ---------------------------------------------------------------------
 Center     Atomic      Atomic             Coordinates (Angstroms)
 Number     Number       Type             X           Y           Z
 ---------------------------------------------------------------------
      1          6           0        1.571675    0.882486   -1.429119
      2          6           0        2.956202    0.332132   -1.005999
      3          7           0        3.000380   -0.755764   -0.029498
      4          6           0        2.483697   -0.436763    1.309494
      5          6           0        0.960222   -0.489392    1.572026
      6          6           0        0.003706    0.086120    0.490600
      7          6           0        0.743751    1.244815   -0.211236
      8          8           0        0.741024    2.369078    0.258410
      9          6           0       -1.288532    0.587267    1.151864
     10          6           0       -2.340366    1.219752    0.225366
     11          6           0       -2.948781    0.322938   -0.878865
     12          6           0       -3.532681   -0.949317   -0.310426
     13          8           0       -4.711657   -1.107399   -0.066509
     14          8           0       -0.349615   -0.938571   -0.439675
     15          8           0        2.251186   -1.871650   -0.566117
     16          1           0        1.047236    0.142172   -2.034955
     17          1           0        1.731474    1.788357   -2.021021
     18          1           0        3.485742   -0.015504   -1.897951
     19          1           0        3.547381    1.141952   -0.565534
     20          1           0        2.865864    0.564808    1.532888
     21          1           0        2.963237   -1.121684    2.018548
     22          1           0        0.796182    0.045044    2.513807
     23          1           0        0.646102   -1.525776    1.732934
     24          1           0       -1.720171   -0.255356    1.705418
     25          1           0       -1.002271    1.345706    1.886477
     26          1           0       -3.161854    1.574846    0.859623
     27          1           0       -1.909638    2.109404   -0.247105
     28          1           0       -3.752989    0.873882   -1.377699
     29          1           0       -2.176324    0.059092   -1.606775
     30          1           0       -2.795453   -1.751556   -0.098737
     31          1           0        0.435211   -1.502179   -0.578913
     32          1           0        2.896753   -2.594752   -0.585612
 ---------------------------------------------------------------------

 SCF Done:  E(UB3LYP) =  -747.151664784     A.U. after   32 cycles

 The electronic state is 2-A.
 Alpha  occ. eigenvalues --  -19.05065 -19.02635 -19.00881 -18.98880 -14.25434
 Alpha  occ. eigenvalues --  -10.15899 -10.12732 -10.12680 -10.09636 -10.09547
 Alpha  occ. eigenvalues --  -10.08229 -10.07772 -10.07213 -10.07193 -10.06078
 Alpha  occ. eigenvalues --   -0.96462  -0.95319  -0.92946  -0.91359  -0.76571
 Alpha  occ. eigenvalues --   -0.71118  -0.67827  -0.65838  -0.62062  -0.56532
 Alpha  occ. eigenvalues --   -0.54753  -0.51547  -0.48825  -0.46254  -0.43998
 Alpha  occ. eigenvalues --   -0.40850  -0.39564  -0.38606  -0.38173  -0.37255
 Alpha  occ. eigenvalues --   -0.35561  -0.34863  -0.33966  -0.33890  -0.32575
 Alpha  occ. eigenvalues --   -0.31417  -0.31194  -0.30421  -0.29172  -0.28102
 Alpha  occ. eigenvalues --   -0.27526  -0.26482  -0.25877  -0.25148  -0.24729
 Alpha  occ. eigenvalues --   -0.24485  -0.23945  -0.21241  -0.20607  -0.18882
 Alpha  occ. eigenvalues --   -0.15919  -0.12887  -0.12424   0.04099
 Alpha virt. eigenvalues --    0.05660   0.06995   0.07950   0.08112   0.08762
 Alpha virt. eigenvalues --    0.09616   0.09813   0.10642   0.10884   0.10975
 Alpha virt. eigenvalues --    0.12122   0.12809   0.13126   0.13338   0.13618

  Beta  occ. eigenvalues --  -19.04994 -19.02604 -19.00866 -18.98641 -14.25425
  Beta  occ. eigenvalues --  -10.15866 -10.12748 -10.12471 -10.09608 -10.09488
  Beta  occ. eigenvalues --  -10.08225 -10.07775 -10.07203 -10.07166 -10.06094
  Beta  occ. eigenvalues --   -0.96337  -0.95258  -0.92638  -0.91187  -0.76464
  Beta  occ. eigenvalues --   -0.71091  -0.67776  -0.65678  -0.61999  -0.56490
  Beta  occ. eigenvalues --   -0.54537  -0.51468  -0.48724  -0.46174  -0.43891
  Beta  occ. eigenvalues --   -0.40735  -0.39443  -0.38548  -0.38072  -0.37114
  Beta  occ. eigenvalues --   -0.35503  -0.34769  -0.33925  -0.33744  -0.32449
  Beta  occ. eigenvalues --   -0.31342  -0.31039  -0.30253  -0.29073  -0.28017
  Beta  occ. eigenvalues --   -0.27409  -0.26420  -0.25822  -0.25090  -0.24440
  Beta  occ. eigenvalues --   -0.23968  -0.23831  -0.21078  -0.20515  -0.18801
  Beta  occ. eigenvalues --   -0.15893  -0.12809  -0.12270
  Beta virt. eigenvalues --    0.05997   0.07186   0.08148   0.08318   0.09163
  Beta virt. eigenvalues --    0.09266   0.09846   0.10145   0.10705   0.11209
  Beta virt. eigenvalues --    0.11463   0.12300   0.13090   0.13290   0.13428

 Mulliken charges and spin densities:
               1          2
     1  C   -1.292407   0.943304
     2  C    1.514676  -1.974853
     3  N   -0.128948   0.281372
     4  C    0.559689  -1.165422
     5  C   -0.481580   0.254271
     6  C    0.260266  -0.094224
     7  C    0.000788  -0.171700
     8  O   -0.269325   0.084874
     9  C   -0.157017  -0.001138
    10  C   -0.163471   0.010405
    11  C   -0.241724  -0.013532
    12  C   -0.235182   0.006584
    13  O   -0.262175   0.009194
    14  O   -0.210465   0.014379
    15  O   -0.287367  -0.034327
    16  H    0.161943   0.019692
    17  H   -0.037939   0.217681
    18  H   -0.611210   0.807280
    19  H    0.088214   0.070675
    20  H    0.198602  -0.051570
    21  H   -0.706721   0.929593
    22  H    0.032985   0.103201
    23  H    0.107209   0.105156
    24  H    0.165126   0.003088
    25  H    0.183298   0.007478
    26  H    0.171602  -0.000166
    27  H    0.172113  -0.000108
    28  H    0.179514  -0.000266
    29  H    0.117005   0.012610
    30  H    0.101023   0.047716
    31  H    0.365625  -0.056253
    32  H   -0.294146   0.635006
 Sum of Mulliken charges =  -1.00000   1.00000

 Dipole moment (field-independent basis, Debye):
    X=             -4.6794    Y=              3.9684    Z=              0.8460  Tot=              6.1937
 Quadrupole moment (field-independent basis, Debye-Ang):
   XX=           -171.2441   YY=           -132.4419   ZZ=           -114.5451
   XY=              7.3507   XZ=              5.4868   YZ=              0.3220

 Summary of Natural Population Analysis:

                                       Natural Population
                Natural  -----------------------------------------------
    Atom  No    Charge         Core      Valence    Rydberg      Total
 -----------------------------------------------------------------------
      C    1   -0.25395      0.99957     2.24391    0.01047     3.25395
      C    2   -0.08070      0.99958     2.06825    0.01287     3.08070
      N    3   -0.12211      0.99970     2.60479    0.01761     3.62211
      C    4   -0.09334      0.99959     2.08109    0.01266     3.09334
      C    5   -0.20467      0.99958     2.19486    0.01023     3.20467
      C    6    0.09199      0.99945     1.89152    0.01703     2.90801
      C    7    0.31444      0.99959     1.66085    0.02512     2.68556
      O    8   -0.28106      0.99988     3.27462    0.00656     4.28106
      C    9   -0.19280      0.99958     2.18321    0.01001     3.19280
      C   10   -0.18304      0.99962     2.17701    0.00642     3.18304
      C   11   -0.24232      0.99961     2.23585    0.00686     3.24232
      C   12    0.23007      0.99974     1.74978    0.02042     2.76993
      O   13   -0.28270      0.99988     3.27529    0.00754     4.28270
      O   14   -0.39793      0.99989     3.39049    0.00756     4.39793
      O   15   -0.32009      0.99989     3.31201    0.00820     4.32009
      H   16    0.11219      0.00000     0.38608    0.00173     0.38781
      H   17    0.10912      0.00000     0.38939    0.00148     0.39088
      H   18    0.10472      0.00000     0.39280    0.00248     0.39528
      H   19    0.09710      0.00000     0.40150    0.00140     0.40290
      H   20    0.09885      0.00000     0.39997    0.00117     0.40115
      H   21    0.10149      0.00000     0.39653    0.00198     0.39851
      H   22    0.10466      0.00000     0.39431    0.00103     0.39534
      H   23    0.10649      0.00000     0.39205    0.00146     0.39351
      H   24    0.09748      0.00000     0.40133    0.00119     0.40252
      H   25    0.10903      0.00000     0.38986    0.00111     0.39097
      H   26    0.09532      0.00000     0.40364    0.00104     0.40468
      H   27    0.10598      0.00000     0.39295    0.00107     0.39402
      H   28    0.10043      0.00000     0.39838    0.00118     0.39957
      H   29    0.11634      0.00000     0.38218    0.00147     0.38366
      H   30    0.05919      0.00000     0.43913    0.00168     0.44081
      H   31    0.24895      0.00000     0.24733    0.00372     0.25105
      H   32    0.25087      0.00000     0.21948    0.02965     0.24913
 =======================================================================
   * Total *    0.00000     14.99514    42.77045    0.23441    58.00000

 Normal termination of Gaussian 16 at Thu Dec 10 16:58:19 2020.
