 Gaussian 16, Revision A.03,

 -----------------------------------------------------------
 # opt freq B3LYP/6-31G(d) empiricaldispersion=gd3bj scf=xqc
 -----------------------------------------------------------

 ------------------------------
 CID_60085123_JID_7089_neutraal
 ------------------------------
 Symbolic Z-matrix:
 Charge =  0 Multiplicity = 1

 SCF Done:  E(RB3LYP) =  -782.295076035     A.U. after   14 cycles
 SCF Done:  E(RB3LYP) =  -782.299163751     A.U. after   12 cycles
 SCF Done:  E(RB3LYP) =  -782.300312006     A.U. after   13 cycles
 SCF Done:  E(RB3LYP) =  -782.301738664     A.U. after   13 cycles
 SCF Done:  E(RB3LYP) =  -782.302634947     A.U. after   12 cycles
 SCF Done:  E(RB3LYP) =  -782.302939269     A.U. after   12 cycles
 SCF Done:  E(RB3LYP) =  -782.303344646     A.U. after   12 cycles
 SCF Done:  E(RB3LYP) =  -782.303478581     A.U. after   11 cycles
 SCF Done:  E(RB3LYP) =  -782.303523958     A.U. after   11 cycles
 SCF Done:  E(RB3LYP) =  -782.303556061     A.U. after   10 cycles
 SCF Done:  E(RB3LYP) =  -782.303600986     A.U. after    9 cycles
 SCF Done:  E(RB3LYP) =  -782.303602037     A.U. after    8 cycles
 SCF Done:  E(RB3LYP) =  -782.303602479     A.U. after    8 cycles
 SCF Done:  E(RB3LYP) =  -782.303602646     A.U. after    7 cycles
 SCF Done:  E(RB3LYP) =  -782.303602685     A.U. after    7 cycles
 Optimization completed.
    -- Stationary point found.
 Normal termination of Gaussian 16 at Fri Dec 11 11:49:03 2020.

 --------------------------------------------------------------------
 #N Geom=AllCheck Guess=TCheck SCRF=Check GenChk RB3LYP/6-31G(d) Freq
 --------------------------------------------------------------------

 Structure from the checkpoint file:  "JID_7089.chk"
 ------------------------------
 CID_60085123_JID_7089_neutraal
 ------------------------------
 Charge =  0 Multiplicity = 1

 SCF Done:  E(RB3LYP) =  -782.303602685     A.U. after    1 cycles

  Exact polarizability: 253.317   1.822 145.343   2.807   1.497  86.919
 Approx polarizability: 307.934   4.412 258.066   7.134   2.326 125.500

                      1                      2                      3
                      A                      A                      A
 Frequencies --     27.9458                37.2717                51.8050
 Red. masses --      4.0664                 3.2260                 4.0501
 Frc consts  --      0.0019                 0.0026                 0.0064
 IR Inten    --      0.5452                 0.3503                 3.8251

                      4                      5                      6
                      A                      A                      A
 Frequencies --     63.4276                73.3818               101.2929
 Red. masses --      4.5295                 3.6445                 3.6467
 Frc consts  --      0.0107                 0.0116                 0.0220
 IR Inten    --      2.1748                 1.2205                 3.9718

                      7                      8                      9
                      A                      A                      A
 Frequencies --    130.6657               155.4346               171.5144
 Red. masses --      3.3056                 4.2686                 4.0807
 Frc consts  --      0.0333                 0.0608                 0.0707
 IR Inten    --      0.8573                 0.3833                 3.3109

                     10                     11                     12
                      A                      A                      A
 Frequencies --    193.5407               232.6886               243.8288
 Red. masses --      4.7950                 1.1763                 1.0474
 Frc consts  --      0.1058                 0.0375                 0.0367
 IR Inten    --      2.9255                 0.1349                 0.8900

                     13                     14                     15
                      A                      A                      A
 Frequencies --    254.6048               295.4944               303.2055
 Red. masses --      1.8545                 2.2681                 4.6349
 Frc consts  --      0.0708                 0.1167                 0.2511
 IR Inten    --     42.3153                38.1622                 6.0209

                     16                     17                     18
                      A                      A                      A
 Frequencies --    327.5896               361.3508               391.7852
 Red. masses --      2.5736                 2.9148                 2.5105
 Frc consts  --      0.1627                 0.2242                 0.2270
 IR Inten    --      7.8364                24.7038                19.8239

                     19                     20                     21
                      A                      A                      A
 Frequencies --    420.3187               425.1540               429.3151
 Red. masses --      2.6914                 2.6515                 3.0681
 Frc consts  --      0.2801                 0.2824                 0.3332
 IR Inten    --     16.2555                42.8540                64.4679

                     22                     23                     24
                      A                      A                      A
 Frequencies --    445.7047               478.6423               513.7608
 Red. masses --      2.3670                 3.1231                 3.0275
 Frc consts  --      0.2770                 0.4216                 0.4708
 IR Inten    --     52.1473                 8.3378                10.0485

                     25                     26                     27
                      A                      A                      A
 Frequencies --    533.7026               602.9324               654.2953
 Red. masses --      4.7108                 3.2645                 6.6171
 Frc consts  --      0.7906                 0.6992                 1.6690
 IR Inten    --      8.1532                 8.5832                 0.1737

                     28                     29                     30
                      A                      A                      A
 Frequencies --    683.7907               727.8180               743.0906
 Red. masses --      2.6686                 3.3410                 1.7025
 Frc consts  --      0.7351                 1.0427                 0.5539
 IR Inten    --      2.5250                 8.2934                10.0728

                     31                     32                     33
                      A                      A                      A
 Frequencies --    761.9944               784.7959               815.8170
 Red. masses --      3.0509                 6.0651                 3.9283
 Frc consts  --      1.0437                 2.2009                 1.5404
 IR Inten    --      5.9068                 1.5606                22.0569

                     34                     35                     36
                      A                      A                      A
 Frequencies --    820.8695               853.6495               856.7267
 Red. masses --      4.0860                 1.5225                 3.1850
 Frc consts  --      1.6222                 0.6537                 1.3774
 IR Inten    --     44.5965                64.2685                 7.7589

                     37                     38                     39
                      A                      A                      A
 Frequencies --    866.6502               888.6604               946.4541
 Red. masses --      1.2783                 1.4523                 1.2106
 Frc consts  --      0.5657                 0.6757                 0.6389
 IR Inten    --      5.1980                67.1419                 1.7716

                     40                     41                     42
                      A                      A                      A
 Frequencies --    949.0173               956.5862               980.7654
 Red. masses --      3.6568                 1.4011                 1.3069
 Frc consts  --      1.9405                 0.7554                 0.7407
 IR Inten    --     16.9098                 0.2899                 4.5748

                     43                     44                     45
                      A                      A                      A
 Frequencies --    992.8849               998.8956              1011.8775
 Red. masses --      1.5684                 2.6633                 1.7171
 Frc consts  --      0.9110                 1.5657                 1.0359
 IR Inten    --      7.5019                 1.1032                24.0972

                     46                     47                     48
                      A                      A                      A
 Frequencies --   1041.4638              1074.9248              1135.1605
 Red. masses --      2.9097                 2.6962                 1.6778
 Frc consts  --      1.8594                 1.8355                 1.2738
 IR Inten    --     11.1329                 6.9802                22.3937

                     49                     50                     51
                      A                      A                      A
 Frequencies --   1151.9283              1170.7234              1174.8061
 Red. masses --      1.5572                 2.1517                 2.4109
 Frc consts  --      1.2174                 1.7376                 1.9605
 IR Inten    --     21.6637                 9.5837                 9.8606

                     52                     53                     54
                      A                      A                      A
 Frequencies --   1187.1016              1194.9678              1215.1743
 Red. masses --      1.2814                 2.4495                 1.2772
 Frc consts  --      1.0639                 2.0608                 1.1112
 IR Inten    --     35.2430               490.9831                10.7746

                     55                     56                     57
                      A                      A                      A
 Frequencies --   1217.7688              1241.8486              1312.0225
 Red. masses --      1.8995                 2.2722                 1.5852
 Frc consts  --      1.6597                 2.0646                 1.6078
 IR Inten    --     12.2397                 0.7650                33.2096

                     58                     59                     60
                      A                      A                      A
 Frequencies --   1325.5247              1351.0808              1375.0836
 Red. masses --      2.9619                 1.5910                 2.7258
 Frc consts  --      3.0662                 1.7112                 3.0367
 IR Inten    --    817.5367               127.9130                30.0515

                     61                     62                     63
                      A                      A                      A
 Frequencies --   1391.3008              1424.3285              1424.8598
 Red. masses --      1.2932                 2.6948                 1.4021
 Frc consts  --      1.4749                 3.2210                 1.6772
 IR Inten    --      2.9142                27.1454                20.3537

                     64                     65                     66
                      A                      A                      A
 Frequencies --   1432.0250              1435.6838              1440.5611
 Red. masses --      1.4471                 1.7189                 1.2834
 Frc consts  --      1.7485                 2.0874                 1.5692
 IR Inten    --    225.5814                21.3517                12.6165

                     67                     68                     69
                      A                      A                      A
 Frequencies --   1464.5876              1509.5897              1519.4843
 Red. masses --      2.2935                 1.0473                 1.0696
 Frc consts  --      2.8985                 1.4061                 1.4549
 IR Inten    --      4.3412                 0.0060                62.4246

                     70                     71                     72
                      A                      A                      A
 Frequencies --   1530.0981              1531.0670              1549.6888
 Red. masses --      1.1038                 1.0491                 1.2287
 Frc consts  --      1.5226                 1.4490                 1.7385
 IR Inten    --     11.0397                 0.0399               140.6312

                     73                     74                     75
                      A                      A                      A
 Frequencies --   1551.6381              1574.3435              1623.0514
 Red. masses --      1.6122                 2.6945                 4.8741
 Frc consts  --      2.2870                 3.9349                 7.5650
 IR Inten    --    152.7025               207.4945                89.7387

                     76                     77                     78
                      A                      A                      A
 Frequencies --   1673.6149              1679.1739              1694.7145
 Red. masses --      5.0623                 4.4154                 1.1307
 Frc consts  --      8.3543                 7.3352                 1.9133
 IR Inten    --     30.3081               495.4311                34.2518

                     79                     80                     81
                      A                      A                      A
 Frequencies --   1708.9498              2966.7822              3042.3070
 Red. masses --      3.5668                 1.0728                 1.0881
 Frc consts  --      6.1375                 5.5633                 5.9340
 IR Inten    --    186.7865                70.7154                27.0057

                     82                     83                     84
                      A                      A                      A
 Frequencies --   3058.4552              3062.1223              3078.5095
 Red. masses --      1.0386                 1.0424                 1.0823
 Frc consts  --      5.7240                 5.7588                 6.0432
 IR Inten    --     23.4464                18.4204                41.3346

                     85                     86                     87
                      A                      A                      A
 Frequencies --   3121.5023              3124.3443              3167.9940
 Red. masses --      1.1014                 1.1017                 1.1003
 Frc consts  --      6.3228                 6.3362                 6.5060
 IR Inten    --     16.5763                48.8840                 1.2199

                     88                     89                     90
                      A                      A                      A
 Frequencies --   3172.0186              3181.2878              3187.7048
 Red. masses --      1.0996                 1.0895                 1.0884
 Frc consts  --      6.5184                 6.4968                 6.5164
 IR Inten    --     24.4713                22.2565                 8.6717

                     91                     92                     93
                      A                      A                      A
 Frequencies --   3223.6591              3237.4335              3471.3000
 Red. masses --      1.0922                 1.0920                 1.0499
 Frc consts  --      6.6870                 6.7436                 7.4536
 IR Inten    --      3.7204                 1.3254                 3.0015

                     94                     95                     96
                      A                      A                      A
 Frequencies --   3473.9789              3559.8611              3692.0570
 Red. masses --      1.0570                 1.0928                 1.0932
 Frc consts  --      7.5156                 8.1597                 8.7799
 IR Inten    --    188.8573                 0.4810                65.9763

 - Thermochemistry -
 -------------------
 Temperature   298.150 Kelvin.  Pressure   1.00000 Atm.
 Atom     1 has atomic number  6 and mass  12.00000

 Molecular mass:   235.13208 amu.
 Principal axes and moments of inertia in atomic units:
                           1         2         3
     Eigenvalues --  1096.91353********************
           X            1.00000  -0.00043  -0.00048
           Y            0.00043   0.99998   0.00645
           Z            0.00047  -0.00645   0.99998
 This molecule is an asymmetric top.
 Rotational symmetry number  1.
 Warning -- assumption of classical behavior for rotation
           may cause significant error
 Rotational temperatures (Kelvin)      0.07896     0.00762     0.00723
 Rotational constants (GHZ):           1.64529     0.15887     0.15058
 Zero-point vibrational energy     751916.7 (Joules/Mol)
                                  179.71240 (Kcal/Mol)
 Warning -- explicit consideration of  26 degrees of freedom as
           vibrations may cause significant error
 Vibrational temperatures:     40.21    53.63    74.54    91.26   105.58
          (Kelvin)            145.74   188.00   223.64   246.77   278.46
                              334.79   350.82   366.32   425.15   436.25
                              471.33   519.90   563.69   604.74   611.70
                              617.69   641.27   688.66   739.19   767.88
                              867.49   941.38   983.82  1047.17  1069.14
                             1096.34  1129.15  1173.78  1181.05  1228.21
                             1232.64  1246.92  1278.58  1361.74  1365.42
                             1376.31  1411.10  1428.54  1437.19  1455.87
                             1498.43  1546.58  1633.24  1657.37  1684.41
                             1690.28  1707.97  1719.29  1748.36  1752.10
                             1786.74  1887.71  1907.13  1943.90  1978.44
                             2001.77  2049.29  2050.06  2060.36  2065.63
                             2072.65  2107.21  2171.96  2186.20  2201.47
                             2202.86  2229.66  2232.46  2265.13  2335.21
                             2407.96  2415.96  2438.32  2458.80  4268.54
                             4377.20  4400.43  4405.71  4429.29  4491.15
                             4495.23  4558.04  4563.83  4577.16  4586.40
                             4638.13  4657.94  4994.43  4998.28  5121.85
                             5312.05

 Zero-point correction=                           0.286390 (Hartree/Particle)
 Thermal correction to Energy=                    0.303575
 Thermal correction to Enthalpy=                  0.304519
 Thermal correction to Gibbs Free Energy=         0.240200
 Sum of electronic and zero-point Energies=           -782.017213
 Sum of electronic and thermal Energies=              -782.000028
 Sum of electronic and thermal Enthalpies=            -781.999083
 Sum of electronic and thermal Free Energies=         -782.063402

                     E (Thermal)             CV                S
                      KCal/Mol        Cal/Mol-Kelvin    Cal/Mol-Kelvin
 Total                  190.496             64.374            135.371
 Electronic               0.000              0.000              0.000
 Translational            0.889              2.981             42.267
 Rotational               0.889              2.981             33.368
 Vibrational            188.719             58.412             59.737
 Vibration     1          0.593              1.984              5.970
 Vibration     2          0.594              1.982              5.399
 Vibration     3          0.596              1.977              4.747
 Vibration     4          0.597              1.972              4.348
 Vibration     5          0.599              1.967              4.061
 Vibration     6          0.604              1.948              3.429
 Vibration     7          0.612              1.923              2.936
 Vibration     8          0.620              1.897              2.605
 Vibration     9          0.626              1.878              2.419
 Vibration    10          0.635              1.849              2.194
 Vibration    11          0.653              1.791              1.858
 Vibration    12          0.659              1.773              1.775
 Vibration    13          0.665              1.755              1.698
 Vibration    14          0.690              1.682              1.442
 Vibration    15          0.695              1.668              1.399
 Vibration    16          0.711              1.620              1.272
 Vibration    17          0.736              1.552              1.116
 Vibration    18          0.759              1.488              0.993
 Vibration    19          0.783              1.426              0.891
 Vibration    20          0.787              1.416              0.875
 Vibration    21          0.791              1.406              0.861
 Vibration    22          0.805              1.370              0.809
 Vibration    23          0.835              1.297              0.714
 Vibration    24          0.869              1.220              0.625
 Vibration    25          0.889              1.175              0.579
 Vibration    26          0.961              1.026              0.445

 Optimization completed.
    -- Stationary point found.
 Normal termination of Gaussian 16 at Fri Dec 11 11:58:24 2020.

 ----------------------------------------------------------------------
 # B3LYP/6-311++G(d,p) empiricaldispersion=gd3bj scf=xqc pop=npa geom=c
 heck
 ----------------------------------------------------------------------

 --------------------------------------
 CID_60085123_JID_7089_Energie_neutraal
 --------------------------------------
 Structure from the checkpoint file:  "JID_7089.chk"
 Charge =  0 Multiplicity = 1

 SCF Done:  E(RB3LYP) =  -782.533813012     A.U. after   15 cycles
 Normal termination of Gaussian 16 at Fri Dec 11 12:03:12 2020.

 ----------------------------------------------------------------------
 # B3LYP/6-311++G(d,p) empiricaldispersion=gd3bj scf=xqc pop=npa geom=c
 heck
 ----------------------------------------------------------------------

 ------------------------------------
 CID_60085123_JID_7089_Energie_kation
 ------------------------------------
 Structure from the checkpoint file:  "JID_7089.chk"
 Charge =  1 Multiplicity = 2

 SCF Done:  E(UB3LYP) =  -782.229978517     A.U. after   33 cycles
 SCF Done:  E(UB3LYP) =  -782.229978517     a.u. after    1 cycles
 Normal termination of Gaussian 16 at Fri Dec 11 12:18:15 2020.
 Gaussian 16:  ES64L-G16RevA.03 25-Dec-2016

 ----------------------------------------------------------------------
 # B3LYP/6-311++G(d,p) empiricaldispersion=gd3bj scf=xqc pop=npa geom=c
 heck
 ----------------------------------------------------------------------

 -----------------------------------
 CID_60085123_JID_7089_Energie_anion
 -----------------------------------
 Structure from the checkpoint file:  "JID_7089.chk"
 Charge = -1 Multiplicity = 2

                         Standard orientation:
 ---------------------------------------------------------------------
 Center     Atomic      Atomic             Coordinates (Angstroms)
 Number     Number       Type             X           Y           Z
 ---------------------------------------------------------------------
      1          6           0       -5.205076   -0.144547    1.253188
      2          6           0       -4.618933   -0.957190    0.101566
      3          6           0       -5.112889   -0.525363   -1.276826
      4          8           0       -3.168039   -1.017752    0.163928
      5          6           0       -2.441432    0.107959    0.022743
      6          8           0       -2.954786    1.218476   -0.163448
      7          7           0       -1.104390   -0.204216    0.124661
      8          6           0       -0.204556    0.735739   -0.056989
      9          6           0        1.224063    0.332363    0.018843
     10          6           0        2.248642    1.256013    0.271884
     11          6           0        3.577820    0.846662    0.323213
     12          6           0        3.916092   -0.496421    0.122664
     13          6           0        2.891014   -1.417276   -0.124932
     14          6           0        1.560952   -1.014836   -0.167350
     15          6           0        5.357220   -0.953612    0.208007
     16          7           0        6.280235    0.080663   -0.267957
     17          7           0       -0.467804    2.037559   -0.297571
     18          1           0       -4.994334    0.919011    1.130969
     19          1           0       -4.786386   -0.482579    2.206763
     20          1           0       -6.290897   -0.290341    1.285598
     21          1           0       -4.879366   -2.009999    0.250464
     22          1           0       -4.900321    0.529491   -1.457474
     23          1           0       -4.631000   -1.124065   -2.056855
     24          1           0       -6.195070   -0.686094   -1.342509
     25          1           0        2.012069    2.297385    0.472547
     26          1           0        4.370420    1.560703    0.519516
     27          1           0        3.139847   -2.463301   -0.288100
     28          1           0        0.761414   -1.723452   -0.349459
     29          1           0        5.606499   -1.148574    1.260493
     30          1           0        5.450434   -1.922713   -0.312681
     31          1           0        7.241106   -0.223803   -0.126026
     32          1           0        6.159567    0.209490   -1.271478
     33          1           0       -1.452058    2.285622   -0.383519
     34          1           0        0.256897    2.652422   -0.632096
 ---------------------------------------------------------------------

 SCF Done:  E(UB3LYP) =  -782.542104896     A.U. after   26 cycles

 The electronic state is 2-A.
 Alpha  occ. eigenvalues --  -19.02606 -18.95901 -14.18896 -14.18802 -14.13744
 Alpha  occ. eigenvalues --  -10.16596 -10.13113 -10.09801 -10.08284 -10.06572
 Alpha  occ. eigenvalues --  -10.06525 -10.03751 -10.03734 -10.03696 -10.03619
 Alpha  occ. eigenvalues --  -10.03280 -10.03094  -0.97019  -0.87904  -0.81512
 Alpha  occ. eigenvalues --   -0.77850  -0.73261  -0.71825  -0.68480  -0.63358
 Alpha  occ. eigenvalues --   -0.61158  -0.59870  -0.56221  -0.53915  -0.49135
 Alpha  occ. eigenvalues --   -0.47572  -0.44493  -0.42177  -0.41269  -0.38973
 Alpha  occ. eigenvalues --   -0.38437  -0.37442  -0.35090  -0.34951  -0.34381
 Alpha  occ. eigenvalues --   -0.33924  -0.32300  -0.31397  -0.30844  -0.29941
 Alpha  occ. eigenvalues --   -0.29046  -0.28977  -0.28329  -0.26852  -0.26433
 Alpha  occ. eigenvalues --   -0.25674  -0.24664  -0.22781  -0.21678  -0.21297
 Alpha  occ. eigenvalues --   -0.20852  -0.17630  -0.16967  -0.14229  -0.12830
 Alpha  occ. eigenvalues --   -0.12430  -0.11149  -0.10697   0.04029
 Alpha virt. eigenvalues --    0.06520   0.06691   0.08961   0.09098   0.09483
 Alpha virt. eigenvalues --    0.09655   0.09928   0.10648   0.11403   0.11504
 Alpha virt. eigenvalues --    0.12297   0.12371   0.12736   0.13095   0.13541

  Beta  occ. eigenvalues --  -19.02558 -18.95764 -14.18762 -14.18755 -14.13733
  Beta  occ. eigenvalues --  -10.16464 -10.13115 -10.09440 -10.08300 -10.06569
  Beta  occ. eigenvalues --  -10.06521 -10.03740 -10.03707 -10.03578 -10.03442
  Beta  occ. eigenvalues --  -10.03170 -10.02993  -0.96856  -0.87690  -0.81088
  Beta  occ. eigenvalues --   -0.77732  -0.73022  -0.71568  -0.68437  -0.62942
  Beta  occ. eigenvalues --   -0.60938  -0.59862  -0.55870  -0.53824  -0.48760
  Beta  occ. eigenvalues --   -0.47457  -0.44225  -0.42034  -0.41125  -0.38869
  Beta  occ. eigenvalues --   -0.38366  -0.37341  -0.34939  -0.34761  -0.34268
  Beta  occ. eigenvalues --   -0.33789  -0.32106  -0.31339  -0.30586  -0.29741
  Beta  occ. eigenvalues --   -0.28894  -0.28738  -0.28213  -0.26556  -0.26142
  Beta  occ. eigenvalues --   -0.25627  -0.23826  -0.22711  -0.21332  -0.20797
  Beta  occ. eigenvalues --   -0.20628  -0.17096  -0.16840  -0.14094  -0.12136
  Beta  occ. eigenvalues --   -0.11554  -0.10955  -0.09868
  Beta virt. eigenvalues --    0.06668   0.06862   0.08874   0.08992   0.09188
  Beta virt. eigenvalues --    0.09498   0.09649   0.10259   0.10635   0.11365
  Beta virt. eigenvalues --    0.11700   0.12310   0.12527   0.12730   0.13071

 Mulliken charges and spin densities:
               1          2
     1  C   -0.450211  -0.000964
     2  C    0.152667  -0.001534
     3  C   -0.423622  -0.000330
     4  O    0.022598   0.006849
     5  C   -0.416420   0.082572
     6  O   -0.330606   0.042643
     7  N   -0.213970   0.005142
     8  C    0.365073   0.188695
     9  C    0.710113  -0.007977
    10  C   -0.610666   0.144529
    11  C   -0.674976   0.071725
    12  C    0.570988   0.278169
    13  C   -0.602952  -0.090302
    14  C   -0.354787   0.057942
    15  C   -0.131878  -0.467326
    16  N   -0.313114  -0.028011
    17  N   -0.470535   0.070153
    18  H    0.172445   0.001440
    19  H    0.132625  -0.000297
    20  H    0.121417   0.002819
    21  H    0.154051  -0.000182
    22  H    0.173170   0.000830
    23  H    0.130499  -0.000632
    24  H    0.117476   0.002489
    25  H    0.067094   0.016490
    26  H    0.194261  -0.021077
    27  H    0.111774  -0.005568
    28  H    0.166170  -0.003269
    29  H   -0.042191   0.196051
    30  H    0.081508   0.075795
    31  H   -0.075559   0.304835
    32  H    0.117610   0.074968
    33  H    0.349788  -0.002320
    34  H    0.200159   0.005653
 Sum of Mulliken charges =  -1.00000   1.00000

 Dipole moment (field-independent basis, Debye):
    X=             -5.9903    Y=             -0.0735    Z=             -1.5067  Tot=              6.1773
 Quadrupole moment (field-independent basis, Debye-Ang):
   XX=           -183.5187   YY=           -112.3209   ZZ=           -113.1921
   XY=              2.6329   XZ=             -5.1038   YZ=             -0.2407

 Summary of Natural Population Analysis:

                                       Natural Population
                Natural  -----------------------------------------------
    Atom  No    Charge         Core      Valence    Rydberg      Total
 -----------------------------------------------------------------------
      C    1   -0.30092      0.99964     2.29664    0.00463     3.30092
      C    2    0.06607      0.99957     1.92255    0.01181     2.93393
      C    3   -0.30083      0.99964     2.29656    0.00462     3.30083
      O    4   -0.28067      0.99985     3.27092    0.00990     4.28067
      C    5    0.46946      0.99970     1.50484    0.02600     2.53054
      O    6   -0.36139      0.99987     3.35562    0.00590     4.36139
      N    7   -0.32608      0.99963     2.81837    0.00808     3.82608
      C    8    0.30430      0.99959     1.68139    0.01472     2.69570
      C    9   -0.03879      0.99948     2.02758    0.01173     3.03879
      C   10   -0.06651      0.99954     2.05912    0.00786     3.06651
      C   11   -0.12401      0.99953     2.11506    0.00943     3.12401
      C   12    0.02330      0.99950     1.96691    0.01029     2.97670
      C   13   -0.11643      0.99953     2.10895    0.00796     3.11643
      C   14   -0.05700      0.99954     2.04910    0.00836     3.05700
      C   15   -0.09669      0.99960     2.08455    0.01253     3.09669
      N   16   -0.42060      0.99978     2.90987    0.01096     3.92060
      N   17   -0.37660      0.99968     2.87006    0.00686     3.87660
      H   18    0.11299      0.00000     0.38591    0.00109     0.38701
      H   19    0.10130      0.00000     0.39777    0.00094     0.39870
      H   20    0.09173      0.00000     0.40735    0.00092     0.40827
      H   21    0.08372      0.00000     0.41500    0.00127     0.41628
      H   22    0.11281      0.00000     0.38609    0.00110     0.38719
      H   23    0.10094      0.00000     0.39812    0.00094     0.39906
      H   24    0.09175      0.00000     0.40733    0.00092     0.40825
      H   25    0.08966      0.00000     0.40880    0.00154     0.41034
      H   26    0.10427      0.00000     0.39448    0.00126     0.39573
      H   27    0.09089      0.00000     0.40791    0.00120     0.40911
      H   28    0.10910      0.00000     0.38987    0.00103     0.39090
      H   29    0.09545      0.00000     0.40309    0.00146     0.40455
      H   30    0.07757      0.00000     0.42090    0.00153     0.42243
      H   31    0.17258      0.00000     0.32480    0.00261     0.32742
      H   32    0.17126      0.00000     0.32719    0.00155     0.32874
      H   33    0.21023      0.00000     0.28819    0.00159     0.28977
      H   34    0.18713      0.00000     0.31158    0.00129     0.31287
 =======================================================================
   * Total *   -0.00000     16.99368    45.81247    0.19385    63.00000

 Normal termination of Gaussian 16 at Fri Dec 11 12:29:26 2020.
