 Gaussian 16, Revision A.03,

 -----------------------------------------------------------
 # opt freq B3LYP/6-31G(d) empiricaldispersion=gd3bj scf=xqc
 -----------------------------------------------------------

 ------------------------------
 CID_79209521_JID_5991_neutraal
 ------------------------------
 Symbolic Z-matrix:
 Charge =  0 Multiplicity = 1

 SCF Done:  E(RB3LYP) =  -676.396164162     A.U. after   14 cycles
 SCF Done:  E(RB3LYP) =  -676.400557316     A.U. after   12 cycles
 SCF Done:  E(RB3LYP) =  -676.401316340     A.U. after   11 cycles
 SCF Done:  E(RB3LYP) =  -676.401611854     A.U. after   12 cycles
 SCF Done:  E(RB3LYP) =  -676.402452065     A.U. after   11 cycles
 SCF Done:  E(RB3LYP) =  -676.402771077     A.U. after   12 cycles
 SCF Done:  E(RB3LYP) =  -676.403209070     A.U. after   11 cycles
 SCF Done:  E(RB3LYP) =  -676.403250785     A.U. after   11 cycles
 SCF Done:  E(RB3LYP) =  -676.403312329     A.U. after   10 cycles
 SCF Done:  E(RB3LYP) =  -676.403328021     A.U. after   10 cycles
 SCF Done:  E(RB3LYP) =  -676.403338280     A.U. after    8 cycles
 SCF Done:  E(RB3LYP) =  -676.403338381     A.U. after    7 cycles
 SCF Done:  E(RB3LYP) =  -676.403338412     A.U. after    7 cycles
 SCF Done:  E(RB3LYP) =  -676.403338373     A.U. after    7 cycles
 SCF Done:  E(RB3LYP) =  -676.403338359     A.U. after    7 cycles
 SCF Done:  E(RB3LYP) =  -676.403338352     A.U. after    6 cycles
 Optimization completed.
    -- Stationary point found.
 Normal termination of Gaussian 16 at Thu Dec 10 17:50:01 2020.

 --------------------------------------------------------------------
 #N Geom=AllCheck Guess=TCheck SCRF=Check GenChk RB3LYP/6-31G(d) Freq
 --------------------------------------------------------------------

 Structure from the checkpoint file:  "JID_5991.chk"
 ------------------------------
 CID_79209521_JID_5991_neutraal
 ------------------------------
 Charge =  0 Multiplicity = 1

 SCF Done:  E(RB3LYP) =  -676.403338352     A.U. after    1 cycles

  Exact polarizability: 147.015  -2.321 131.292   7.761  -0.040 125.555
 Approx polarizability: 190.623  -4.178 182.353  14.328   8.207 193.402

                      1                      2                      3
                      A                      A                      A
 Frequencies --     26.6835                40.1578                47.3605
 Red. masses --      5.1536                 3.9733                 3.1147
 Frc consts  --      0.0022                 0.0038                 0.0041
 IR Inten    --      0.5874                 0.2912                 0.3830

                      4                      5                      6
                      A                      A                      A
 Frequencies --     56.9924                96.2547               123.4819
 Red. masses --      4.0341                 3.4338                 2.5941
 Frc consts  --      0.0077                 0.0187                 0.0233
 IR Inten    --      1.3495                 1.2279                 0.2578

                      7                      8                      9
                      A                      A                      A
 Frequencies --    133.2877               165.3222               202.0958
 Red. masses --      3.3504                 3.9560                 2.6284
 Frc consts  --      0.0351                 0.0637                 0.0632
 IR Inten    --      5.0554                 3.9769                 3.9114

                     10                     11                     12
                      A                      A                      A
 Frequencies --    212.5375               260.2973               263.5920
 Red. masses --      2.1879                 1.1321                 1.7442
 Frc consts  --      0.0582                 0.0452                 0.0714
 IR Inten    --     12.5845                 3.3555                13.9423

                     13                     14                     15
                      A                      A                      A
 Frequencies --    275.1447               286.7225               300.2443
 Red. masses --      1.8125                 2.1049                 1.3298
 Frc consts  --      0.0808                 0.1020                 0.0706
 IR Inten    --     24.8138                13.1797                37.4425

                     16                     17                     18
                      A                      A                      A
 Frequencies --    307.7736               337.2693               352.0262
 Red. masses --      1.3890                 2.3152                 2.7849
 Frc consts  --      0.0775                 0.1552                 0.2033
 IR Inten    --     36.2009                 8.6404                12.8144

                     19                     20                     21
                      A                      A                      A
 Frequencies --    392.0754               419.1100               441.7800
 Red. masses --      2.6594                 2.6834                 2.7412
 Frc consts  --      0.2409                 0.2777                 0.3152
 IR Inten    --      1.0782                 8.1495                 2.0218

                     22                     23                     24
                      A                      A                      A
 Frequencies --    511.8545               549.3119               576.2037
 Red. masses --      3.7981                 2.7651                 2.6787
 Frc consts  --      0.5863                 0.4916                 0.5240
 IR Inten    --      4.1879                 7.9528                 0.4646

                     25                     26                     27
                      A                      A                      A
 Frequencies --    601.6671               620.9744               706.7470
 Red. masses --      2.5601                 2.5173                 2.0312
 Frc consts  --      0.5460                 0.5719                 0.5978
 IR Inten    --      2.8365                 1.9896                 1.9046

                     28                     29                     30
                      A                      A                      A
 Frequencies --    736.3369               789.3886               829.6279
 Red. masses --      2.1999                 2.1571                 2.7670
 Frc consts  --      0.7028                 0.7920                 1.1221
 IR Inten    --      2.7511                13.4738                 1.8356

                     31                     32                     33
                      A                      A                      A
 Frequencies --    854.4114               876.1181               909.3739
 Red. masses --      2.6213                 1.8364                 1.7456
 Frc consts  --      1.1274                 0.8305                 0.8505
 IR Inten    --      5.0920                 3.5349                 8.2392

                     34                     35                     36
                      A                      A                      A
 Frequencies --    922.7471               927.4464               941.3392
 Red. masses --      1.9974                 2.3373                 1.2298
 Frc consts  --      1.0020                 1.1845                 0.6421
 IR Inten    --      8.0107                 2.0107                 1.5699

                     37                     38                     39
                      A                      A                      A
 Frequencies --    949.3283               956.4740               978.8432
 Red. masses --      2.1454                 2.2852                 1.4895
 Frc consts  --      1.1392                 1.2317                 0.8409
 IR Inten    --      1.7859                 1.1731                 0.2981

                     40                     41                     42
                      A                      A                      A
 Frequencies --    995.7729              1017.6574              1024.8733
 Red. masses --      2.0055                 2.0639                 2.1684
 Frc consts  --      1.1717                 1.2593                 1.3420
 IR Inten    --      1.4486                48.2331                 2.8711

                     43                     44                     45
                      A                      A                      A
 Frequencies --   1064.2902              1084.3641              1097.7213
 Red. masses --      1.7820                 1.7755                 2.2281
 Frc consts  --      1.1892                 1.2300                 1.5819
 IR Inten    --      5.5998                 1.6064                 7.0662

                     46                     47                     48
                      A                      A                      A
 Frequencies --   1109.0785              1112.8863              1119.6224
 Red. masses --      1.6840                 2.4482                 2.0254
 Frc consts  --      1.2204                 1.7865                 1.4959
 IR Inten    --      2.7539                25.4397                23.9863

                     49                     50                     51
                      A                      A                      A
 Frequencies --   1166.1358              1179.9714              1204.1674
 Red. masses --      1.9713                 1.4136                 1.8043
 Frc consts  --      1.5794                 1.1596                 1.5414
 IR Inten    --      5.6215                31.3033                11.4209

                     52                     53                     54
                      A                      A                      A
 Frequencies --   1213.8641              1226.2340              1229.1397
 Red. masses --      1.6244                 1.4026                 1.6117
 Frc consts  --      1.4102                 1.2426                 1.4346
 IR Inten    --     15.9757                 6.4280                 1.9815

                     55                     56                     57
                      A                      A                      A
 Frequencies --   1234.6327              1267.5463              1278.2360
 Red. masses --      1.6702                 1.2311                 1.3205
 Frc consts  --      1.5000                 1.1654                 1.2712
 IR Inten    --     17.1329                11.6510                41.2735

                     58                     59                     60
                      A                      A                      A
 Frequencies --   1297.8265              1320.5407              1334.2377
 Red. masses --      1.2626                 1.2643                 1.2900
 Frc consts  --      1.2530                 1.2990                 1.3530
 IR Inten    --     29.8645                15.7204                 7.0668

                     61                     62                     63
                      A                      A                      A
 Frequencies --   1339.1746              1349.7067              1359.4042
 Red. masses --      1.1685                 1.4042                 1.3471
 Frc consts  --      1.2347                 1.5072                 1.4668
 IR Inten    --     13.1455                 8.6951                 2.6315

                     64                     65                     66
                      A                      A                      A
 Frequencies --   1363.7223              1375.1949              1387.1652
 Red. masses --      1.6109                 1.3483                 1.4385
 Frc consts  --      1.7651                 1.5024                 1.6309
 IR Inten    --     38.2998                 1.8279                 1.9438

                     67                     68                     69
                      A                      A                      A
 Frequencies --   1402.9584              1406.2878              1412.6215
 Red. masses --      1.3943                 1.4015                 1.4450
 Frc consts  --      1.6169                 1.6331                 1.6989
 IR Inten    --      5.5193                 5.9822                20.7905

                     70                     71                     72
                      A                      A                      A
 Frequencies --   1431.2461              1446.9713              1451.1702
 Red. masses --      1.2960                 2.2223                 1.2938
 Frc consts  --      1.5641                 2.7414                 1.6053
 IR Inten    --      6.0151               167.6990                33.3215

                     73                     74                     75
                      A                      A                      A
 Frequencies --   1473.6402              1504.0085              1513.4435
 Red. masses --      1.4340                 1.0833                 1.0837
 Frc consts  --      1.8348                 1.4438                 1.4624
 IR Inten    --      1.3848                 1.4817                10.1482

                     76                     77                     78
                      A                      A                      A
 Frequencies --   1516.3216              1519.8976              1523.2213
 Red. masses --      1.0754                 1.1000                 1.0771
 Frc consts  --      1.4568                 1.4971                 1.4724
 IR Inten    --      0.1027                13.0583                 4.8202

                     79                     80                     81
                      A                      A                      A
 Frequencies --   1525.4117              1535.0350              1538.7376
 Red. masses --      1.0967                 1.0626                 1.0575
 Frc consts  --      1.5035                 1.4753                 1.4752
 IR Inten    --      5.6296                 2.1604                20.3179

                     82                     83                     84
                      A                      A                      A
 Frequencies --   1547.2247              1554.3453              1559.3793
 Red. masses --      1.0695                 1.0872                 1.0865
 Frc consts  --      1.5085                 1.5476                 1.5566
 IR Inten    --      7.3310                 4.6598                 8.7088

                     85                     86                     87
                      A                      A                      A
 Frequencies --   1736.9571              2995.1262              3010.8798
 Red. masses --     10.0557                 1.0550                 1.0833
 Frc consts  --     17.8748                 5.5763                 5.7859
 IR Inten    --    261.1523                57.9405                28.1929

                     88                     89                     90
                      A                      A                      A
 Frequencies --   3017.1214              3049.1868              3051.3411
 Red. masses --      1.1052                 1.0408                 1.0605
 Frc consts  --      5.9277                 5.7016                 5.8175
 IR Inten    --     83.6792                10.0742                33.3014

                     91                     92                     93
                      A                      A                      A
 Frequencies --   3055.6907              3058.0692              3063.6321
 Red. masses --      1.0431                 1.0629                 1.0637
 Frc consts  --      5.7385                 5.8563                 5.8825
 IR Inten    --     27.0014                48.8990                45.8633

                     94                     95                     96
                      A                      A                      A
 Frequencies --   3063.7712              3074.4944              3077.9408
 Red. masses --      1.0688                 1.0710                 1.0661
 Frc consts  --      5.9110                 5.9644                 5.9505
 IR Inten    --      9.6142                18.2454                23.1284

                     97                     98                     99
                      A                      A                      A
 Frequencies --   3079.2088              3098.9394              3109.4554
 Red. masses --      1.0759                 1.0999                 1.1003
 Frc consts  --      6.0102                 6.2232                 6.2680
 IR Inten    --     20.3472                42.4404                23.4134

                    100                    101                    102
                      A                      A                      A
 Frequencies --   3114.1576              3118.5647              3121.0751
 Red. masses --      1.1027                 1.1021                 1.1041
 Frc consts  --      6.3006                 6.3153                 6.3366
 IR Inten    --     14.1475                61.8814                19.7918

                    103                    104                    105
                      A                      A                      A
 Frequencies --   3122.0338              3125.2135              3127.7442
 Red. masses --      1.1033                 1.1030                 1.1012
 Frc consts  --      6.3359                 6.3473                 6.3472
 IR Inten    --      9.2322                48.4490                47.2747

                    106                    107                    108
                      A                      A                      A
 Frequencies --   3158.4438              3169.3233              3754.7761
 Red. masses --      1.0902                 1.0934                 1.0664
 Frc consts  --      6.4077                 6.4706                 8.8585
 IR Inten    --     24.3174                 4.1294                11.0865

 - Thermochemistry -
 -------------------
 Temperature   298.150 Kelvin.  Pressure   1.00000 Atm.
 Atom     1 has atomic number  6 and mass  12.00000

 Molecular mass:   213.17288 amu.
 Principal axes and moments of inertia in atomic units:
                           1         2         3
     Eigenvalues --  2299.236764425.022434605.43135
           X            0.99993   0.01122   0.00226
           Y           -0.01077   0.98895  -0.14789
           Z           -0.00390   0.14786   0.98900
 This molecule is an asymmetric top.
 Rotational symmetry number  1.
 Warning -- assumption of classical behavior for rotation
           may cause significant error
 Rotational temperatures (Kelvin)      0.03767     0.01957     0.01881
 Rotational constants (GHZ):           0.78493     0.40785     0.39187
 Zero-point vibrational energy     908842.7 (Joules/Mol)
                                  217.21862 (Kcal/Mol)
 Warning -- explicit consideration of  25 degrees of freedom as
           vibrations may cause significant error
 Vibrational temperatures:     38.39    57.78    68.14    82.00   138.49
          (Kelvin)            177.66   191.77   237.86   290.77   305.79
                              374.51   379.25   395.87   412.53   431.98
                              442.82   485.26   506.49   564.11   603.01
                              635.62   736.44   790.34   829.03   865.66
                              893.44  1016.85  1059.42  1135.75  1193.65
                             1229.31  1260.54  1308.39  1327.63  1334.39
                             1354.38  1365.87  1376.15  1408.34  1432.70
                             1464.18  1474.56  1531.28  1560.16  1579.38
                             1595.72  1601.20  1610.89  1677.81  1697.72
                             1732.53  1746.48  1764.28  1768.46  1776.36
                             1823.72  1839.10  1867.28  1899.96  1919.67
                             1926.77  1941.93  1955.88  1962.09  1978.60
                             1995.82  2018.54  2023.33  2032.45  2059.24
                             2081.87  2087.91  2120.24  2163.93  2177.51
                             2181.65  2186.79  2191.58  2194.73  2208.57
                             2213.90  2226.11  2236.36  2243.60  2499.09
                             4309.32  4331.98  4340.96  4387.10  4390.20
                             4396.46  4399.88  4407.88  4408.08  4423.51
                             4428.47  4430.29  4458.68  4473.81  4480.58
                             4486.92  4490.53  4491.91  4496.49  4500.13
                             4544.30  4559.95  5402.29

 Zero-point correction=                           0.346160 (Hartree/Particle)
 Thermal correction to Energy=                    0.362758
 Thermal correction to Enthalpy=                  0.363702
 Thermal correction to Gibbs Free Energy=         0.301277
 Sum of electronic and zero-point Energies=           -676.057178
 Sum of electronic and thermal Energies=              -676.040580
 Sum of electronic and thermal Enthalpies=            -676.039636
 Sum of electronic and thermal Free Energies=         -676.102061

                     E (Thermal)             CV                S
                      KCal/Mol        Cal/Mol-Kelvin    Cal/Mol-Kelvin
 Total                  227.634             62.564            131.385
 Electronic               0.000              0.000              0.000
 Translational            0.889              2.981             41.974
 Rotational               0.889              2.981             32.216
 Vibrational            225.857             56.602             57.195
 Vibration     1          0.593              1.984              6.062
 Vibration     2          0.594              1.981              5.251
 Vibration     3          0.595              1.979              4.925
 Vibration     4          0.596              1.975              4.559
 Vibration     5          0.603              1.952              3.529
 Vibration     6          0.610              1.929              3.045
 Vibration     7          0.613              1.920              2.898
 Vibration     8          0.624              1.885              2.488
 Vibration     9          0.639              1.837              2.114
 Vibration    10          0.644              1.822              2.022
 Vibration    11          0.668              1.745              1.660
 Vibration    12          0.670              1.740              1.638
 Vibration    13          0.677              1.719              1.564
 Vibration    14          0.684              1.698              1.493
 Vibration    15          0.693              1.673              1.416
 Vibration    16          0.698              1.659              1.374
 Vibration    17          0.718              1.601              1.225
 Vibration    18          0.729              1.571              1.157
 Vibration    19          0.760              1.487              0.992
 Vibration    20          0.782              1.429              0.895
 Vibration    21          0.802              1.379              0.821
 Vibration    22          0.867              1.224              0.629
 Vibration    23          0.905              1.141              0.546
 Vibration    24          0.933              1.083              0.492
 Vibration    25          0.960              1.028              0.447

                           ! Non-Optimized Parameters !
 Normal termination of Gaussian 16 at Thu Dec 10 18:03:42 2020.

 ----------------------------------------------------------------------
 # B3LYP/6-311++G(d,p) empiricaldispersion=gd3bj scf=xqc pop=npa geom=c
 heck
 ----------------------------------------------------------------------

 --------------------------------------
 CID_79209521_JID_5991_Energie_neutraal
 --------------------------------------
 Structure from the checkpoint file:  "JID_5991.chk"
 Charge =  0 Multiplicity = 1

 SCF Done:  E(RB3LYP) =  -676.605303802     A.U. after   14 cycles
 Normal termination of Gaussian 16 at Thu Dec 10 18:09:17 2020.

 ----------------------------------------------------------------------
 # B3LYP/6-311++G(d,p) empiricaldispersion=gd3bj scf=xqc pop=npa geom=c
 heck
 ----------------------------------------------------------------------

 ------------------------------------
 CID_79209521_JID_5991_Energie_kation
 ------------------------------------
 Structure from the checkpoint file:  "JID_5991.chk"
 Charge =  1 Multiplicity = 2

 SCF Done:  E(UB3LYP) =  -676.295150047     A.U. after   24 cycles
 Normal termination of Gaussian 16 at Thu Dec 10 18:22:00 2020.
 Gaussian 16:  ES64L-G16RevA.03 25-Dec-2016

 ----------------------------------------------------------------------
 # B3LYP/6-311++G(d,p) empiricaldispersion=gd3bj scf=xqc pop=npa geom=c
 heck
 ----------------------------------------------------------------------

 -----------------------------------
 CID_79209521_JID_5991_Energie_anion
 -----------------------------------
 Structure from the checkpoint file:  "JID_5991.chk"
 Charge = -1 Multiplicity = 2

                         Standard orientation:
 ---------------------------------------------------------------------
 Center     Atomic      Atomic             Coordinates (Angstroms)
 Number     Number       Type             X           Y           Z
 ---------------------------------------------------------------------
      1          6           0        3.423747    0.814687   -0.319506
      2          6           0        2.260876    1.200014    0.603876
      3          6           0        1.658581    2.534110    0.150642
      4          6           0        1.201325    0.076817    0.734676
      5          6           0        1.752742   -1.167919    1.489901
      6          6           0        1.401334   -2.381068    0.611166
      7          6           0        1.335078   -1.786544   -0.798180
      8          7           0        0.741273   -0.465518   -0.560614
      9          6           0       -0.358492   -0.095999   -1.299541
     10          8           0       -0.688212   -0.728143   -2.302718
     11          6           0       -1.189926    1.098337   -0.849367
     12          6           0       -2.694016    0.812864   -0.975773
     13          6           0       -3.171277   -0.433462   -0.213397
     14          6           0       -2.654916   -0.536244    1.216326
     15          8           0       -2.920381    0.691497    1.894177
     16          1           0        3.065000    0.671958   -1.344601
     17          1           0        3.924935   -0.106533   -0.004666
     18          1           0        4.176475    1.610245   -0.335004
     19          1           0        2.657965    1.341666    1.620683
     20          1           0        1.277507    2.464166   -0.873576
     21          1           0        0.833533    2.850744    0.798211
     22          1           0        2.419810    3.322076    0.166150
     23          1           0        0.343844    0.483131    1.278533
     24          1           0        2.837513   -1.084587    1.609285
     25          1           0        1.326613   -1.239957    2.494973
     26          1           0        2.127756   -3.194672    0.699180
     27          1           0        0.415727   -2.777912    0.880932
     28          1           0        2.335385   -1.688915   -1.237992
     29          1           0        0.703615   -2.333050   -1.497648
     30          1           0       -0.964481    1.411159    0.169890
     31          1           0       -0.933415    1.943616   -1.499424
     32          1           0       -3.230372    1.692116   -0.604808
     33          1           0       -2.946742    0.688727   -2.032803
     34          1           0       -4.267854   -0.439967   -0.199186
     35          1           0       -2.848769   -1.333581   -0.749735
     36          1           0       -3.144156   -1.381960    1.724440
     37          1           0       -1.573554   -0.747452    1.207301
     38          1           0       -2.646828    0.587215    2.817554
 ---------------------------------------------------------------------

 SCF Done:  E(UB3LYP) =  -676.597598904     A.U. after   32 cycles

 The electronic state is 2-A.
 Alpha  occ. eigenvalues --  -19.01665 -18.98355 -14.24013 -10.16995 -10.11303
 Alpha  occ. eigenvalues --  -10.11164 -10.10129 -10.08248 -10.07519 -10.07459
 Alpha  occ. eigenvalues --  -10.07133 -10.06845 -10.06626 -10.06517 -10.06468
 Alpha  occ. eigenvalues --   -0.93661  -0.91634  -0.84438  -0.71173  -0.70559
 Alpha  occ. eigenvalues --   -0.68632  -0.63678  -0.62551  -0.59296  -0.56738
 Alpha  occ. eigenvalues --   -0.53556  -0.49858  -0.49190  -0.47090  -0.43226
 Alpha  occ. eigenvalues --   -0.41929  -0.40764  -0.39765  -0.38035  -0.36267
 Alpha  occ. eigenvalues --   -0.35515  -0.34088  -0.33807  -0.32609  -0.31968
 Alpha  occ. eigenvalues --   -0.31804  -0.30239  -0.30100  -0.29135  -0.28665
 Alpha  occ. eigenvalues --   -0.28016  -0.26516  -0.26130  -0.25675  -0.25270
 Alpha  occ. eigenvalues --   -0.24167  -0.23785  -0.23211  -0.22946  -0.22692
 Alpha  occ. eigenvalues --   -0.21940  -0.17398  -0.15475  -0.14600   0.04052
 Alpha virt. eigenvalues --    0.06357   0.06911   0.07755   0.08560   0.08828
 Alpha virt. eigenvalues --    0.09059   0.09787   0.10156   0.10770   0.10893
 Alpha virt. eigenvalues --    0.11537   0.11675   0.12299   0.12453   0.12794

  Beta  occ. eigenvalues --  -19.01617 -18.98353 -14.24013 -10.16995 -10.11292
  Beta  occ. eigenvalues --  -10.11134 -10.10122 -10.08238 -10.07501 -10.07453
  Beta  occ. eigenvalues --  -10.07101 -10.06842 -10.06625 -10.06493 -10.06451
  Beta  occ. eigenvalues --   -0.93656  -0.91530  -0.84427  -0.71145  -0.70540
  Beta  occ. eigenvalues --   -0.68602  -0.63640  -0.62516  -0.59252  -0.56696
  Beta  occ. eigenvalues --   -0.53511  -0.49802  -0.49146  -0.47055  -0.43190
  Beta  occ. eigenvalues --   -0.41819  -0.40741  -0.39735  -0.38017  -0.36220
  Beta  occ. eigenvalues --   -0.35491  -0.34058  -0.33786  -0.32586  -0.31936
  Beta  occ. eigenvalues --   -0.31780  -0.30208  -0.30072  -0.29112  -0.28646
  Beta  occ. eigenvalues --   -0.27993  -0.26484  -0.26103  -0.25634  -0.25249
  Beta  occ. eigenvalues --   -0.24140  -0.23770  -0.23191  -0.22909  -0.22659
  Beta  occ. eigenvalues --   -0.21905  -0.17351  -0.15470  -0.14593
  Beta virt. eigenvalues --    0.06395   0.07331   0.07366   0.08261   0.08837
  Beta virt. eigenvalues --    0.09098   0.09490   0.10102   0.10385   0.10921
  Beta virt. eigenvalues --    0.11120   0.11681   0.12026   0.12558   0.12697

 Mulliken charges and spin densities:
               1          2
     1  C    0.511317  -1.269337
     2  C   -0.747527   0.962814
     3  C    0.057101  -0.702244
     4  C   -0.409516   0.288512
     5  C    0.723255  -1.232186
     6  C    0.009766  -0.422313
     7  C    0.080056  -0.159931
     8  N    0.232859   0.054230
     9  C   -0.324437  -0.017222
    10  O   -0.304011   0.008014
    11  C    0.087120   0.223814
    12  C   -0.196593  -0.455866
    13  C   -0.500652   0.362093
    14  C   -0.089504  -0.412067
    15  O   -0.195054  -0.041863
    16  H    0.047101   0.128286
    17  H   -0.010565   0.141095
    18  H   -0.126133   0.271769
    19  H   -0.419075   0.626252
    20  H    0.090732   0.053610
    21  H   -0.167918   0.317818
    22  H   -0.110789   0.270946
    23  H    0.213776  -0.039663
    24  H    0.144882   0.028392
    25  H   -0.907792   1.092294
    26  H   -0.413976   0.599753
    27  H    0.201173  -0.071183
    28  H    0.132969  -0.008320
    29  H    0.161038   0.046271
    30  H    0.461369  -0.335601
    31  H    0.143905   0.051622
    32  H    0.090567   0.087451
    33  H    0.155073   0.002775
    34  H    0.173067  -0.003588
    35  H    0.064618   0.089051
    36  H   -0.489505   0.646002
    37  H    0.895271  -0.721763
    38  H   -0.263968   0.540284
 Sum of Mulliken charges =  -1.00000   1.00000

 Dipole moment (field-independent basis, Debye):
    X=             -0.2288    Y=              0.1656    Z=             -5.9312  Tot=              5.9379
 Quadrupole moment (field-independent basis, Debye-Ang):
   XX=           -153.0959   YY=           -131.9668   ZZ=           -154.5523
   XY=             -0.9573   XZ=              3.1890   YZ=             -2.1747

 Summary of Natural Population Analysis:

                                       Natural Population
                Natural  -----------------------------------------------
    Atom  No    Charge         Core      Valence    Rydberg      Total
 -----------------------------------------------------------------------
      C    1   -0.28872      0.99964     2.28258    0.00650     3.28872
      C    2   -0.11346      0.99958     2.10330    0.01057     3.11346
      C    3   -0.28501      0.99965     2.27867    0.00669     3.28501
      C    4   -0.00515      0.99956     1.98989    0.01570     3.00515
      C    5   -0.19221      0.99961     2.18340    0.00920     3.19221
      C    6   -0.19390      0.99963     2.18669    0.00758     3.19390
      C    7   -0.08547      0.99961     2.07608    0.00978     3.08547
      N    8   -0.26217      0.99963     2.75158    0.01096     3.76217
      C    9    0.35042      0.99963     1.62779    0.02216     2.64958
      O   10   -0.33695      0.99988     3.33195    0.00512     4.33695
      C   11   -0.23638      0.99958     2.22871    0.00809     3.23638
      C   12   -0.18578      0.99963     2.17764    0.00851     3.18578
      C   13   -0.20142      0.99962     2.19296    0.00884     3.20142
      C   14   -0.01232      0.99960     2.00008    0.01264     3.01232
      O   15   -0.37605      0.99989     3.36944    0.00671     4.37605
      H   16    0.09868      0.00000     0.40027    0.00105     0.40132
      H   17    0.10005      0.00000     0.39899    0.00096     0.39995
      H   18    0.10061      0.00000     0.39860    0.00079     0.39939
      H   19    0.09811      0.00000     0.39987    0.00202     0.40189
      H   20    0.09564      0.00000     0.40314    0.00122     0.40436
      H   21    0.10205      0.00000     0.39690    0.00105     0.39795
      H   22    0.09944      0.00000     0.39978    0.00078     0.40056
      H   23    0.10599      0.00000     0.39104    0.00298     0.39401
      H   24    0.09835      0.00000     0.39986    0.00178     0.40165
      H   25    0.10962      0.00000     0.38783    0.00255     0.39038
      H   26    0.10115      0.00000     0.39787    0.00098     0.39885
      H   27    0.09787      0.00000     0.40058    0.00155     0.40213
      H   28    0.09104      0.00000     0.40783    0.00113     0.40896
      H   29    0.11339      0.00000     0.38551    0.00110     0.38661
      H   30    0.10961      0.00000     0.38852    0.00188     0.39039
      H   31    0.10944      0.00000     0.38954    0.00102     0.39056
      H   32    0.10106      0.00000     0.39786    0.00109     0.39894
      H   33    0.10169      0.00000     0.39722    0.00109     0.39831
      H   34    0.09628      0.00000     0.40273    0.00100     0.40372
      H   35    0.10367      0.00000     0.39529    0.00104     0.39633
      H   36    0.07897      0.00000     0.41955    0.00148     0.42103
      H   37    0.07487      0.00000     0.42238    0.00275     0.42513
      H   38    0.23700      0.00000     0.25267    0.01033     0.26300
 =======================================================================
   * Total *   -0.00000     14.99476    43.81458    0.19066    59.00000

 Normal termination of Gaussian 16 at Thu Dec 10 18:38:31 2020.
