 Gaussian 16, Revision A.03,

 -----------------------------------------------------------
 # opt freq B3LYP/6-31G(d) empiricaldispersion=gd3bj scf=xqc
 -----------------------------------------------------------

 ------------------------------
 CID_65950764_JID_5046_neutraal
 ------------------------------
 Symbolic Z-matrix:
 Charge =  0 Multiplicity = 1

 SCF Done:  E(RB3LYP) =  -740.740401247     A.U. after   15 cycles
 SCF Done:  E(RB3LYP) =  -740.748209802     A.U. after   12 cycles
 SCF Done:  E(RB3LYP) =  -740.749637716     A.U. after   12 cycles
 SCF Done:  E(RB3LYP) =  -740.750651568     A.U. after   13 cycles
 SCF Done:  E(RB3LYP) =  -740.751124521     A.U. after   13 cycles
 SCF Done:  E(RB3LYP) =  -740.751586249     A.U. after   12 cycles
 SCF Done:  E(RB3LYP) =  -740.752101902     A.U. after   12 cycles
 SCF Done:  E(RB3LYP) =  -740.752256116     A.U. after   12 cycles
 SCF Done:  E(RB3LYP) =  -740.752206605     A.U. after   12 cycles
 SCF Done:  E(RB3LYP) =  -740.752545808     A.U. after   12 cycles
 SCF Done:  E(RB3LYP) =  -740.752769975     A.U. after   11 cycles
 SCF Done:  E(RB3LYP) =  -740.752777939     A.U. after   10 cycles
 SCF Done:  E(RB3LYP) =  -740.752777826     A.U. after    8 cycles
 SCF Done:  E(RB3LYP) =  -740.752777980     A.U. after    9 cycles
 SCF Done:  E(RB3LYP) =  -740.752778008     A.U. after    7 cycles
 Optimization completed.
    -- Stationary point found.
 Normal termination of Gaussian 16 at Thu Dec 10 14:57:23 2020.

 --------------------------------------------------------------------
 #N Geom=AllCheck Guess=TCheck SCRF=Check GenChk RB3LYP/6-31G(d) Freq
 --------------------------------------------------------------------

 Structure from the checkpoint file:  "JID_5046.chk"
 ------------------------------
 CID_65950764_JID_5046_neutraal
 ------------------------------
 Charge =  0 Multiplicity = 1

 SCF Done:  E(RB3LYP) =  -740.752778008     A.U. after    1 cycles

  Exact polarizability: 159.382  -1.588 114.973  13.012  -2.555  84.857
 Approx polarizability: 209.389  -2.565 206.586  24.516 -12.256 123.297

                      1                      2                      3
                      A                      A                      A
 Frequencies --     28.5023                54.9159                72.8694
 Red. masses --      4.7405                 3.8516                 6.8839
 Frc consts  --      0.0023                 0.0068                 0.0215
 IR Inten    --      2.7487                 1.9533                 0.6087

                      4                      5                      6
                      A                      A                      A
 Frequencies --     99.0382               139.7820               149.6312
 Red. masses --      4.6037                 1.7569                 8.7241
 Frc consts  --      0.0266                 0.0202                 0.1151
 IR Inten    --      0.2314                 0.7102                 0.2164

                      7                      8                      9
                      A                      A                      A
 Frequencies --    185.5950               214.7662               261.5822
 Red. masses --      5.7308                 5.3590                 1.5928
 Frc consts  --      0.1163                 0.1456                 0.0642
 IR Inten    --      1.8286                13.8282                 2.6763

                     10                     11                     12
                      A                      A                      A
 Frequencies --    266.8849               274.0261               318.9183
 Red. masses --      4.0727                 3.1355                 2.8110
 Frc consts  --      0.1709                 0.1387                 0.1685
 IR Inten    --     10.8235                 8.5809                12.0848

                     13                     14                     15
                      A                      A                      A
 Frequencies --    343.8360               354.6570               413.5995
 Red. masses --      1.3511                 1.9932                 4.1952
 Frc consts  --      0.0941                 0.1477                 0.4228
 IR Inten    --     61.0296                36.4656                 1.6820

                     16                     17                     18
                      A                      A                      A
 Frequencies --    446.1855               454.7411               463.3195
 Red. masses --      4.4166                 1.7230                 2.4788
 Frc consts  --      0.5180                 0.2099                 0.3135
 IR Inten    --      6.4726                26.0609                 5.6522

                     19                     20                     21
                      A                      A                      A
 Frequencies --    479.1491               515.3746               545.6341
 Red. masses --      2.3232                 4.4933                 1.1100
 Frc consts  --      0.3142                 0.7032                 0.1947
 IR Inten    --      1.0369                10.1288               138.4551

                     22                     23                     24
                      A                      A                      A
 Frequencies --    608.0399               629.8556               687.4292
 Red. masses --      3.3566                 4.7652                 4.3148
 Frc consts  --      0.7312                 1.1138                 1.2013
 IR Inten    --      0.5040                 2.0482                21.3102

                     25                     26                     27
                      A                      A                      A
 Frequencies --    711.9955               747.9712               753.2266
 Red. masses --      2.5843                 6.4141                 6.0579
 Frc consts  --      0.7719                 2.1142                 2.0250
 IR Inten    --     80.1256                21.9725                 3.2595

                     28                     29                     30
                      A                      A                      A
 Frequencies --    769.7288               798.5849               830.7617
 Red. masses --      2.1386                 1.2127                 3.5896
 Frc consts  --      0.7465                 0.4557                 1.4597
 IR Inten    --      5.0532                 0.8055                36.0163

                     31                     32                     33
                      A                      A                      A
 Frequencies --    897.0828               945.3364               964.6538
 Red. masses --      2.2337                 1.3733                 3.6702
 Frc consts  --      1.0591                 0.7231                 2.0122
 IR Inten    --      1.8274                 3.3003                22.7194

                     34                     35                     36
                      A                      A                      A
 Frequencies --    979.9245               984.1577              1007.0282
 Red. masses --      2.4429                 3.2672                 1.8059
 Frc consts  --      1.3821                 1.8645                 1.0790
 IR Inten    --      9.1528                 2.4382                 6.4362

                     37                     38                     39
                      A                      A                      A
 Frequencies --   1036.4040              1079.3869              1109.3137
 Red. masses --      3.2505                 2.4467                 1.4786
 Frc consts  --      2.0571                 1.6795                 1.0721
 IR Inten    --      3.0984                36.6460                81.0595

                     40                     41                     42
                      A                      A                      A
 Frequencies --   1123.3709              1128.2300              1160.4882
 Red. masses --      1.8279                 1.1601                 1.9345
 Frc consts  --      1.3591                 0.8701                 1.5350
 IR Inten    --     67.6529                 3.8541                35.7275

                     43                     44                     45
                      A                      A                      A
 Frequencies --   1170.4391              1198.4920              1199.5706
 Red. masses --      1.6583                 2.5054                 2.4675
 Frc consts  --      1.3385                 2.1203                 2.0920
 IR Inten    --     21.2715                 1.4444                37.3643

                     46                     47                     48
                      A                      A                      A
 Frequencies --   1207.4808              1268.0169              1279.5438
 Red. masses --      2.9434                 2.2454                 1.4584
 Frc consts  --      2.5285                 2.1271                 1.4068
 IR Inten    --     35.0190                10.7630                 2.5147

                     49                     50                     51
                      A                      A                      A
 Frequencies --   1319.5156              1326.9904              1359.3927
 Red. masses --      1.2336                 1.5190                 2.1119
 Frc consts  --      1.2655                 1.5760                 2.2994
 IR Inten    --      1.5612                 3.1570                 8.2662

                     52                     53                     54
                      A                      A                      A
 Frequencies --   1394.0066              1412.2934              1418.8599
 Red. masses --      1.5821                 3.8007                 2.0127
 Frc consts  --      1.8114                 4.4664                 2.3873
 IR Inten    --     16.9992               426.2506                 6.0854

                     55                     56                     57
                      A                      A                      A
 Frequencies --   1428.0626              1454.7712              1483.0244
 Red. masses --      2.9073                 1.2502                 6.7698
 Frc consts  --      3.4933                 1.5589                 8.7724
 IR Inten    --     32.4508                 4.3095               269.2503

                     58                     59                     60
                      A                      A                      A
 Frequencies --   1515.9563              1518.4318              1538.3147
 Red. masses --      1.0721                 1.0758                 1.0711
 Frc consts  --      1.4516                 1.4614                 1.4933
 IR Inten    --      2.6742                 2.7535                12.0292

                     61                     62                     63
                      A                      A                      A
 Frequencies --   1547.2734              1550.3765              1650.7922
 Red. masses --      1.0688                 1.1034                 5.6945
 Frc consts  --      1.5076                 1.5626                 9.1430
 IR Inten    --     17.9252                 2.7306               112.1288

                     64                     65                     66
                      A                      A                      A
 Frequencies --   1726.1103              1864.3637              3038.6220
 Red. masses --     11.8192                 9.8122                 1.0630
 Frc consts  --     20.7480                20.0946                 5.7825
 IR Inten    --    277.0106               823.8930                40.4219

                     67                     68                     69
                      A                      A                      A
 Frequencies --   3050.2316              3053.3254              3058.9792
 Red. masses --      1.0637                 1.0643                 1.0375
 Frc consts  --      5.8309                 5.8462                 5.7200
 IR Inten    --     30.0412                62.3808                12.6325

                     70                     71                     72
                      A                      A                      A
 Frequencies --   3088.1824              3110.2203              3123.5955
 Red. masses --      1.1033                 1.1015                 1.1013
 Frc consts  --      6.1995                 6.2779                 6.3310
 IR Inten    --      7.9888                20.3479                32.4682

                     73                     74                     75
                      A                      A                      A
 Frequencies --   3128.8858              3134.3439              3310.1683
 Red. masses --      1.1016                 1.0995                 1.0984
 Frc consts  --      6.3538                 6.3640                 7.0908
 IR Inten    --     30.8927                11.8980                 2.0262

                     76                     77                     78
                      A                      A                      A
 Frequencies --   3671.0887              3678.6745              3729.9349
 Red. masses --      1.0802                 1.0807                 1.0660
 Frc consts  --      8.5770                 8.6166                 8.7378
 IR Inten    --     83.3823               102.3975                 9.1951

 - Thermochemistry -
 -------------------
 Temperature   298.150 Kelvin.  Pressure   1.00000 Atm.
 Atom     1 has atomic number  6 and mass  12.00000

 Molecular mass:   211.09569 amu.
 Principal axes and moments of inertia in atomic units:
                           1         2         3
     Eigenvalues --  1312.088865921.295526079.65068
           X            0.99995  -0.00551  -0.00835
           Y            0.00665   0.98965   0.14338
           Z            0.00747  -0.14343   0.98963
 This molecule is an asymmetric top.
 Rotational symmetry number  1.
 Warning -- assumption of classical behavior for rotation
           may cause significant error
 Rotational temperatures (Kelvin)      0.06601     0.01463     0.01425
 Rotational constants (GHZ):           1.37547     0.30479     0.29685
 Zero-point vibrational energy     598397.9 (Joules/Mol)
                                  143.02052 (Kcal/Mol)
 Warning -- explicit consideration of  22 degrees of freedom as
           vibrations may cause significant error
 Vibrational temperatures:     41.01    79.01   104.84   142.49   201.12
          (Kelvin)            215.29   267.03   309.00   376.36   383.99
                              394.26   458.85   494.70   510.27   595.08
                              641.96   654.27   666.61   689.39   741.51
                              785.05   874.83   906.22   989.06  1024.40
                             1076.16  1083.73  1107.47  1148.99  1195.28
                             1290.70  1360.13  1387.92  1409.89  1415.98
                             1448.89  1491.15  1553.00  1596.05  1616.28
                             1623.27  1669.68  1684.00  1724.36  1725.91
                             1737.30  1824.39  1840.98  1898.49  1909.24
                             1955.86  2005.66  2031.98  2041.42  2054.66
                             2093.09  2133.74  2181.12  2184.68  2213.29
                             2226.18  2230.65  2375.12  2483.49  2682.40
                             4371.90  4388.60  4393.05  4401.19  4443.21
                             4474.91  4494.16  4501.77  4509.62  4762.59
                             5281.88  5292.79  5366.54

 Zero-point correction=                           0.227918 (Hartree/Particle)
 Thermal correction to Energy=                    0.242181
 Thermal correction to Enthalpy=                  0.243125
 Thermal correction to Gibbs Free Energy=         0.186231
 Sum of electronic and zero-point Energies=           -740.524860
 Sum of electronic and thermal Energies=              -740.510597
 Sum of electronic and thermal Enthalpies=            -740.509653
 Sum of electronic and thermal Free Energies=         -740.566547

                     E (Thermal)             CV                S
                      KCal/Mol        Cal/Mol-Kelvin    Cal/Mol-Kelvin
 Total                  151.971             54.289            119.744
 Electronic               0.000              0.000              0.000
 Translational            0.889              2.981             41.945
 Rotational               0.889              2.981             32.224
 Vibrational            150.193             48.328             45.575
 Vibration     1          0.593              1.984              5.931
 Vibration     2          0.596              1.976              4.632
 Vibration     3          0.599              1.967              4.074
 Vibration     4          0.604              1.950              3.473
 Vibration     5          0.615              1.914              2.807
 Vibration     6          0.618              1.903              2.677
 Vibration     7          0.632              1.860              2.271
 Vibration     8          0.645              1.818              2.003
 Vibration     9          0.669              1.743              1.651
 Vibration    10          0.672              1.734              1.616
 Vibration    11          0.676              1.721              1.571
 Vibration    12          0.705              1.637              1.316
 Vibration    13          0.723              1.588              1.194
 Vibration    14          0.731              1.566              1.145
 Vibration    15          0.777              1.441              0.914
 Vibration    16          0.805              1.369              0.807
 Vibration    17          0.813              1.350              0.782
 Vibration    18          0.821              1.331              0.757
 Vibration    19          0.836              1.296              0.712
 Vibration    20          0.870              1.216              0.621
 Vibration    21          0.901              1.149              0.553
 Vibration    22          0.967              1.015              0.436

 Optimization completed.
    -- Stationary point found.
 Normal termination of Gaussian 16 at Thu Dec 10 15:05:43 2020.

 ----------------------------------------------------------------------
 # B3LYP/6-311++G(d,p) empiricaldispersion=gd3bj scf=xqc pop=npa geom=c
 heck
 ----------------------------------------------------------------------

 --------------------------------------
 CID_65950764_JID_5046_Energie_neutraal
 --------------------------------------
 Structure from the checkpoint file:  "JID_5046.chk"
 Charge =  0 Multiplicity = 1

 SCF Done:  E(RB3LYP) =  -740.980594475     A.U. after   15 cycles
 Normal termination of Gaussian 16 at Thu Dec 10 15:09:52 2020.

 ----------------------------------------------------------------------
 # B3LYP/6-311++G(d,p) empiricaldispersion=gd3bj scf=xqc pop=npa geom=c
 heck
 ----------------------------------------------------------------------

 ------------------------------------
 CID_65950764_JID_5046_Energie_kation
 ------------------------------------
 Structure from the checkpoint file:  "JID_5046.chk"
 Charge =  1 Multiplicity = 2

 SCF Done:  E(UB3LYP) =  -740.683508828     A.U. after   24 cycles
 Normal termination of Gaussian 16 at Thu Dec 10 15:19:15 2020.
 Gaussian 16:  ES64L-G16RevA.03 25-Dec-2016

 ----------------------------------------------------------------------
 # B3LYP/6-311++G(d,p) empiricaldispersion=gd3bj scf=xqc pop=npa geom=c
 heck
 ----------------------------------------------------------------------

 -----------------------------------
 CID_65950764_JID_5046_Energie_anion
 -----------------------------------
 Structure from the checkpoint file:  "JID_5046.chk"
 Charge = -1 Multiplicity = 2

                         Standard orientation:
 ---------------------------------------------------------------------
 Center     Atomic      Atomic             Coordinates (Angstroms)
 Number     Number       Type             X           Y           Z
 ---------------------------------------------------------------------
      1          6           0       -1.919742    0.954214    2.014509
      2          6           0       -3.066963    0.168136    1.372804
      3          6           0       -2.790952   -0.383475   -0.024620
      4          6           0       -2.238826    0.666972   -1.037730
      5          7           0       -0.923437    0.018778   -0.947864
      6          6           0       -1.426259   -1.130021   -0.172169
      7          6           0        0.235711    0.727706   -0.794280
      8          8           0        0.301194    1.937378   -1.025135
      9          6           0        1.431045   -0.004022   -0.355250
     10          6           0        1.743903   -1.317655   -0.166685
     11          7           0        3.069859   -1.371423    0.219541
     12          6           0        3.641823   -0.087934    0.281411
     13          8           0        4.786196    0.201942    0.582554
     14          7           0        2.583717    0.728508   -0.076059
     15          8           0       -3.946310   -1.094049   -0.404813
     16          1           0       -1.034137    0.330743    2.180184
     17          1           0       -2.231640    1.338199    2.990798
     18          1           0       -1.611330    1.811262    1.406819
     19          1           0       -3.343231   -0.681395    2.009656
     20          1           0       -3.958153    0.802823    1.294947
     21          1           0       -2.681774    0.584764   -2.038434
     22          1           0       -2.231125    1.717357   -0.736153
     23          1           0       -0.868332   -1.339215    0.745473
     24          1           0       -1.499348   -2.048764   -0.768675
     25          1           0        1.148380   -2.204898   -0.305747
     26          1           0        3.606754   -2.199328    0.426069
     27          1           0        2.635658    1.730618   -0.184318
     28          1           0       -3.829776   -1.398911   -1.318724
 ---------------------------------------------------------------------

 SCF Done:  E(UB3LYP) =  -740.978808292     A.U. after   33 cycles
 SCF Done:  E(UB3LYP) =  -740.978808292     a.u. after    1 cycles

 The electronic state is 2-A.
 Alpha  occ. eigenvalues --  -19.03723 -18.98863 -18.98767 -14.26258 -14.25587
 Alpha  occ. eigenvalues --  -14.24101 -10.20107 -10.17344 -10.14756 -10.11650
 Alpha  occ. eigenvalues --  -10.11332 -10.11176 -10.11016 -10.08305 -10.07539
 Alpha  occ. eigenvalues --   -0.96453  -0.94866  -0.93849  -0.89142  -0.85729
 Alpha  occ. eigenvalues --   -0.80580  -0.70390  -0.67193  -0.63503  -0.60648
 Alpha  occ. eigenvalues --   -0.57158  -0.55937  -0.53842  -0.47772  -0.46243
 Alpha  occ. eigenvalues --   -0.43547  -0.42270  -0.40785  -0.40276  -0.38581
 Alpha  occ. eigenvalues --   -0.37347  -0.36762  -0.36053  -0.34413  -0.33081
 Alpha  occ. eigenvalues --   -0.32830  -0.32142  -0.30293  -0.30053  -0.28479
 Alpha  occ. eigenvalues --   -0.28296  -0.27184  -0.25005  -0.24461  -0.23972
 Alpha  occ. eigenvalues --   -0.21671  -0.18808  -0.17979  -0.16785  -0.15306
 Alpha  occ. eigenvalues --   -0.11384   0.03800
 Alpha virt. eigenvalues --    0.06107   0.06391   0.06929   0.08646   0.09259
 Alpha virt. eigenvalues --    0.09697   0.10207   0.10565   0.10778   0.12237
 Alpha virt. eigenvalues --    0.12907   0.13669   0.13947   0.14199   0.14890

  Beta  occ. eigenvalues --  -19.03683 -18.98864 -18.98693 -14.26211 -14.25566
  Beta  occ. eigenvalues --  -14.24086 -10.20111 -10.17269 -10.14758 -10.11537
  Beta  occ. eigenvalues --  -10.11328 -10.11129 -10.10993 -10.08290 -10.07525
  Beta  occ. eigenvalues --   -0.96422  -0.94786  -0.93732  -0.89102  -0.85671
  Beta  occ. eigenvalues --   -0.80496  -0.70342  -0.67090  -0.63427  -0.60568
  Beta  occ. eigenvalues --   -0.57061  -0.55871  -0.53719  -0.47694  -0.46154
  Beta  occ. eigenvalues --   -0.43468  -0.42179  -0.40684  -0.40223  -0.38531
  Beta  occ. eigenvalues --   -0.37251  -0.36685  -0.35960  -0.34357  -0.32997
  Beta  occ. eigenvalues --   -0.32811  -0.32071  -0.30179  -0.29934  -0.28426
  Beta  occ. eigenvalues --   -0.28252  -0.27079  -0.24978  -0.24379  -0.23803
  Beta  occ. eigenvalues --   -0.21522  -0.18767  -0.17967  -0.16707  -0.15077
  Beta  occ. eigenvalues --   -0.11133
  Beta virt. eigenvalues --    0.06442   0.07079   0.07475   0.07567   0.08986
  Beta virt. eigenvalues --    0.09463   0.10412   0.10643   0.10712   0.10917
  Beta virt. eigenvalues --    0.12266   0.13363   0.13839   0.13908   0.14383

 Mulliken charges and spin densities:
               1          2
     1  C   -0.305989  -0.146047
     2  C    0.250784  -0.690605
     3  C    0.358424  -0.402482
     4  C   -0.010774  -0.211120
     5  N    0.045372   0.085594
     6  C    0.088647  -0.279155
     7  C    0.143815  -0.121713
     8  O   -0.388393   0.025462
     9  C    0.722879  -0.911627
    10  C    0.250377  -0.201374
    11  N   -0.280817   0.015199
    12  C    0.308363  -0.027414
    13  O   -0.454181   0.010880
    14  N   -0.290792   0.003828
    15  O   -0.192378  -0.012837
    16  H    0.054238   0.081643
    17  H    0.141333   0.017265
    18  H    0.153620  -0.002336
    19  H   -0.056520   0.228916
    20  H    0.086283   0.064491
    21  H   -0.132899   0.290196
    22  H    0.141345   0.043872
    23  H    0.040198   0.087523
    24  H   -0.534494   0.726559
    25  H   -1.137572   1.355989
    26  H   -0.160105   0.502221
    27  H    0.341388  -0.008872
    28  H   -0.182151   0.475946
 Sum of Mulliken charges =  -1.00000   1.00000

 Dipole moment (field-independent basis, Debye):
    X=             -2.2574    Y=              4.8112    Z=              2.3306  Tot=              5.8030
 Quadrupole moment (field-independent basis, Debye-Ang):
   XX=           -169.6033   YY=           -132.8708   ZZ=           -115.1445
   XY=             -5.5541   XZ=             -8.2480   YZ=             -2.3435

 Summary of Natural Population Analysis:

                                       Natural Population
                Natural  -----------------------------------------------
    Atom  No    Charge         Core      Valence    Rydberg      Total
 -----------------------------------------------------------------------
      C    1   -0.29138      0.99966     2.28743    0.00429     3.29138
      C    2   -0.19259      0.99958     2.18488    0.00813     3.19259
      C    3    0.12652      0.99949     1.85633    0.01767     2.87348
      C    4   -0.08710      0.99960     2.07620    0.01130     3.08710
      N    5   -0.25361      0.99966     2.74112    0.01283     3.75361
      C    6   -0.09034      0.99959     2.07847    0.01228     3.09034
      C    7    0.33163      0.99957     1.64673    0.02207     2.66837
      O    8   -0.32731      0.99989     3.32257    0.00486     4.32731
      C    9    0.00666      0.99950     1.98092    0.01292     2.99334
      C   10    0.01760      0.99952     1.97121    0.01168     2.98240
      N   11   -0.29791      0.99969     2.78849    0.00973     3.79791
      C   12    0.38548      0.99972     1.59035    0.02444     2.61452
      O   13   -0.33924      0.99987     3.33394    0.00542     4.33924
      N   14   -0.29728      0.99964     2.78967    0.00796     3.79728
      O   15   -0.36862      0.99988     3.36243    0.00632     4.36862
      H   16    0.10016      0.00000     0.39879    0.00104     0.39984
      H   17    0.09851      0.00000     0.40074    0.00075     0.40149
      H   18    0.10231      0.00000     0.39670    0.00099     0.39769
      H   19    0.10274      0.00000     0.39608    0.00118     0.39726
      H   20    0.10002      0.00000     0.39886    0.00112     0.39998
      H   21    0.09699      0.00000     0.40174    0.00127     0.40301
      H   22    0.10488      0.00000     0.39400    0.00112     0.39512
      H   23    0.10085      0.00000     0.39710    0.00205     0.39915
      H   24    0.10217      0.00000     0.39462    0.00321     0.39783
      H   25    0.11366      0.00000     0.38224    0.00410     0.38634
      H   26    0.20830      0.00000     0.28806    0.00364     0.29170
      H   27    0.21308      0.00000     0.28531    0.00160     0.28692
      H   28    0.23383      0.00000     0.26016    0.00602     0.26617
 =======================================================================
   * Total *    0.00000     14.99485    40.80515    0.20000    56.00000

 Normal termination of Gaussian 16 at Thu Dec 10 15:31:08 2020.
