 Gaussian 16, Revision A.03,

 -----------------------------------------------------------
 # opt freq B3LYP/6-31G(d) empiricaldispersion=gd3bj scf=xqc
 -----------------------------------------------------------

 -------------------------------
 CID_146679128_JID_2011_neutraal
 -------------------------------
 Symbolic Z-matrix:
 Charge =  0 Multiplicity = 1

 SCF Done:  E(RB3LYP) =  -550.959774522     A.U. after   13 cycles
 SCF Done:  E(RB3LYP) =  -550.964141703     A.U. after   12 cycles
 SCF Done:  E(RB3LYP) =  -550.964646161     A.U. after   11 cycles
 SCF Done:  E(RB3LYP) =  -550.964896356     A.U. after   11 cycles
 SCF Done:  E(RB3LYP) =  -550.965060522     A.U. after   11 cycles
 SCF Done:  E(RB3LYP) =  -550.965773462     A.U. after   13 cycles
 SCF Done:  E(RB3LYP) =  -550.918641296     A.U. after   13 cycles
 SCF Done:  E(RB3LYP) =  -550.968054563     A.U. after   12 cycles
 SCF Done:  E(RB3LYP) =  -550.822750049     A.U. after   14 cycles
 SCF Done:  E(RB3LYP) =  -550.970961614     A.U. after   12 cycles
 SCF Done:  E(RB3LYP) =  -550.972801296     A.U. after    8 cycles
 SCF Done:  E(RB3LYP) =  -550.972802450     A.U. after    8 cycles
 SCF Done:  E(RB3LYP) =  -550.972802932     A.U. after    7 cycles
 SCF Done:  E(RB3LYP) =  -550.972803100     A.U. after    7 cycles
 SCF Done:  E(RB3LYP) =  -550.972803127     A.U. after    7 cycles
 Optimization completed.
    -- Stationary point found.
 Normal termination of Gaussian 16 at Wed Dec  9 16:51:20 2020.

 --------------------------------------------------------------------
 #N Geom=AllCheck Guess=TCheck SCRF=Check GenChk RB3LYP/6-31G(d) Freq
 --------------------------------------------------------------------

 Structure from the checkpoint file:  "JID_2011.chk"
 -------------------------------
 CID_146679128_JID_2011_neutraal
 -------------------------------
 Charge =  0 Multiplicity = 1

 SCF Done:  E(RB3LYP) =  -550.972803127     A.U. after    1 cycles

  Exact polarizability: 140.009   1.760 117.278  -0.239   0.340  59.815
 Approx polarizability: 193.443   2.584 189.670  -0.299  -0.591  89.376

                      1                      2                      3
                      A                      A                      A
 Frequencies --     30.0465                58.0213               135.0557
 Red. masses --      3.8728                 2.8161                 2.6445
 Frc consts  --      0.0021                 0.0056                 0.0284
 IR Inten    --      5.3492                 1.3113                 2.2429

                      4                      5                      6
                      A                      A                      A
 Frequencies --    152.7683               182.3420               201.1638
 Red. masses --      4.1952                 4.3877                 4.3949
 Frc consts  --      0.0577                 0.0860                 0.1048
 IR Inten    --      0.6227                 2.1137                 3.8648

                      7                      8                      9
                      A                      A                      A
 Frequencies --    211.8537               318.9098               330.8713
 Red. masses --      4.4885                 4.6741                 3.1554
 Frc consts  --      0.1187                 0.2801                 0.2035
 IR Inten    --      1.2391                 0.4861                 7.8222

                     10                     11                     12
                      A                      A                      A
 Frequencies --    390.5854               405.9658               418.4255
 Red. masses --      1.1915                 2.7417                 1.1912
 Frc consts  --      0.1071                 0.2662                 0.1229
 IR Inten    --    141.0061                27.9305               256.9501

                     13                     14                     15
                      A                      A                      A
 Frequencies --    487.9731               506.6851               588.1102
 Red. masses --      3.4606                 1.2802                 3.6033
 Frc consts  --      0.4855                 0.1936                 0.7343
 IR Inten    --      0.3799                 7.4558                 1.9713

                     16                     17                     18
                      A                      A                      A
 Frequencies --    610.4679               631.1158               667.9822
 Red. masses --      3.9159                 3.7949                 4.3757
 Frc consts  --      0.8598                 0.8906                 1.1503
 IR Inten    --      6.6680                 1.9424                 4.0463

                     19                     20                     21
                      A                      A                      A
 Frequencies --    710.9515               801.4995               807.9264
 Red. masses --      4.2515                 1.0831                 4.9960
 Frc consts  --      1.2661                 0.4099                 1.9214
 IR Inten    --      4.1793                 0.9899                17.5468

                     22                     23                     24
                      A                      A                      A
 Frequencies --    828.0702               835.7812               874.0918
 Red. masses --      1.2309                 2.1955                 3.1513
 Frc consts  --      0.4973                 0.9036                 1.4186
 IR Inten    --      8.6037                16.5443                 4.1490

                     25                     26                     27
                      A                      A                      A
 Frequencies --    924.3261               970.5844              1006.5716
 Red. masses --      2.4126                 3.7766                 7.4437
 Frc consts  --      1.2145                 2.0961                 4.4435
 IR Inten    --      3.1871               109.8301                 3.4366

                     28                     29                     30
                      A                      A                      A
 Frequencies --   1040.9219              1049.0523              1072.5422
 Red. masses --      1.8811                 2.3154                 1.3124
 Frc consts  --      1.2009                 1.5013                 0.8895
 IR Inten    --      0.1838                10.1738                16.3430

                     31                     32                     33
                      A                      A                      A
 Frequencies --   1094.6351              1095.0556              1132.3707
 Red. masses --      1.8231                 1.4546                 4.5757
 Frc consts  --      1.2871                 1.0277                 3.4569
 IR Inten    --     20.8901                 7.7795                68.4797

                     34                     35                     36
                      A                      A                      A
 Frequencies --   1135.1671              1166.2254              1197.2862
 Red. masses --      1.1035                 1.9784                 1.3635
 Frc consts  --      0.8378                 1.5854                 1.1516
 IR Inten    --      2.0174                 2.8501                11.2201

                     37                     38                     39
                      A                      A                      A
 Frequencies --   1220.5200              1234.7521              1257.7216
 Red. masses --      1.3616                 2.2301                 1.0723
 Frc consts  --      1.1950                 2.0033                 0.9994
 IR Inten    --      0.2995                 6.2166                 2.6424

                     40                     41                     42
                      A                      A                      A
 Frequencies --   1289.5760              1312.3618              1368.2371
 Red. masses --      2.8563                 2.0513                 2.0118
 Frc consts  --      2.7986                 2.0815                 2.2190
 IR Inten    --      1.3706                30.3447                41.2545

                     43                     44                     45
                      A                      A                      A
 Frequencies --   1451.2972              1478.5183              1486.1703
 Red. masses --      2.0787                 1.0895                 2.4873
 Frc consts  --      2.5796                 1.4032                 3.2368
 IR Inten    --     59.7396                 2.4132                91.7619

                     46                     47                     48
                      A                      A                      A
 Frequencies --   1499.1771              1507.9784              1522.6380
 Red. masses --      3.1568                 1.5904                 1.5256
 Frc consts  --      4.1802                 2.1308                 2.0839
 IR Inten    --     53.9253               230.2331                49.0396

                     49                     50                     51
                      A                      A                      A
 Frequencies --   1537.8741              1622.0297              1639.2488
 Red. masses --      1.1243                 4.4881                 5.9445
 Frc consts  --      1.5667                 6.9571                 9.4114
 IR Inten    --     24.7682               135.7571               292.2205

                     52                     53                     54
                      A                      A                      A
 Frequencies --   1667.9163              2986.9122              3016.4525
 Red. masses --      1.7088                 1.0679                 1.0932
 Frc consts  --      2.8009                 5.6136                 5.8605
 IR Inten    --    477.5764                44.4085                42.1337

                     55                     56                     57
                      A                      A                      A
 Frequencies --   3156.3740              3157.8496              3182.4692
 Red. masses --      1.0504                 1.0579                 1.0901
 Frc consts  --      6.1655                 6.2156                 6.5047
 IR Inten    --     17.3904                13.6084                 9.0112

                     58                     59                     60
                      A                      A                      A
 Frequencies --   3213.4112              3240.2257              3252.5633
 Red. masses --      1.0918                 1.1197                 1.1168
 Frc consts  --      6.6425                 6.9265                 6.9608
 IR Inten    --      5.8769                 0.2923                12.1951

                     61                     62                     63
                      A                      A                      A
 Frequencies --   3590.3096              3603.2316              3725.3380
 Red. masses --      1.0646                 1.0454                 1.1035
 Frc consts  --      8.0852                 7.9972                 9.0232
 IR Inten    --    133.3107                62.0407                36.6453

 - Thermochemistry -
 -------------------
 Temperature   298.150 Kelvin.  Pressure   1.00000 Atm.
 Atom     1 has atomic number  6 and mass  12.00000

 Molecular mass:   165.09021 amu.
 Principal axes and moments of inertia in atomic units:
                           1         2         3
     Eigenvalues --  1003.884313097.643693947.61855
           X            0.99999   0.00315  -0.00040
           Y           -0.00315   0.99998   0.00545
           Z            0.00042  -0.00545   0.99999
 This molecule is an asymmetric top.
 Rotational symmetry number  1.
 Warning -- assumption of classical behavior for rotation
           may cause significant error
 Rotational temperatures (Kelvin)      0.08628     0.02796     0.02194
 Rotational constants (GHZ):           1.79776     0.58262     0.45717
 Zero-point vibrational energy     498200.1 (Joules/Mol)
                                  119.07269 (Kcal/Mol)
 Warning -- explicit consideration of  16 degrees of freedom as
           vibrations may cause significant error
 Vibrational temperatures:     43.23    83.48   194.32   219.80   262.35
          (Kelvin)            289.43   304.81   458.84   476.05   561.97
                              584.09   602.02   702.08   729.01   846.16
                              878.33   908.03   961.08  1022.90  1153.18
                             1162.43  1191.41  1202.50  1257.62  1329.90
                             1396.45  1448.23  1497.65  1509.35  1543.15
                             1574.94  1575.54  1629.23  1633.25  1677.94
                             1722.63  1756.06  1776.53  1809.58  1855.41
                             1888.20  1968.59  2088.09  2127.26  2138.27
                             2156.98  2169.64  2190.74  2212.66  2333.74
                             2358.51  2399.76  4297.50  4340.00  4541.32
                             4543.44  4578.86  4623.38  4661.96  4679.71
                             5165.65  5184.25  5359.93

 Zero-point correction=                           0.189754 (Hartree/Particle)
 Thermal correction to Energy=                    0.200943
 Thermal correction to Enthalpy=                  0.201888
 Thermal correction to Gibbs Free Energy=         0.151914
 Sum of electronic and zero-point Energies=           -550.783049
 Sum of electronic and thermal Energies=              -550.771860
 Sum of electronic and thermal Enthalpies=            -550.770916
 Sum of electronic and thermal Free Energies=         -550.820889

                     E (Thermal)             CV                S
                      KCal/Mol        Cal/Mol-Kelvin    Cal/Mol-Kelvin
 Total                  126.094             42.506            105.178
 Electronic               0.000              0.000              0.000
 Translational            0.889              2.981             41.212
 Rotational               0.889              2.981             30.885
 Vibrational            124.316             36.544             33.080
 Vibration     1          0.594              1.984              5.826
 Vibration     2          0.596              1.974              4.523
 Vibration     3          0.613              1.918              2.873
 Vibration     4          0.619              1.900              2.637
 Vibration     5          0.630              1.864              2.304
 Vibration     6          0.638              1.838              2.122
 Vibration     7          0.643              1.823              2.028
 Vibration     8          0.705              1.637              1.316
 Vibration     9          0.713              1.614              1.256
 Vibration    10          0.758              1.490              0.998
 Vibration    11          0.771              1.457              0.941
 Vibration    12          0.781              1.430              0.897
 Vibration    13          0.844              1.277              0.689
 Vibration    14          0.862              1.235              0.642
 Vibration    15          0.945              1.057              0.471
 Vibration    16          0.970              1.010              0.432

 Optimization completed.
    -- Stationary point found.
 Normal termination of Gaussian 16 at Wed Dec  9 16:56:02 2020.

 ----------------------------------------------------------------------
 # B3LYP/6-311++G(d,p) empiricaldispersion=gd3bj scf=xqc pop=npa geom=c
 heck
 ----------------------------------------------------------------------

 ---------------------------------------
 CID_146679128_JID_2011_Energie_neutraal
 ---------------------------------------
 Structure from the checkpoint file:  "JID_2011.chk"
 Charge =  0 Multiplicity = 1

 SCF Done:  E(RB3LYP) =  -551.138864197     A.U. after   15 cycles
 Normal termination of Gaussian 16 at Wed Dec  9 16:57:48 2020.

 ----------------------------------------------------------------------
 # B3LYP/6-311++G(d,p) empiricaldispersion=gd3bj scf=xqc pop=npa geom=c
 heck
 ----------------------------------------------------------------------

 -------------------------------------
 CID_146679128_JID_2011_Energie_kation
 -------------------------------------
 Structure from the checkpoint file:  "JID_2011.chk"
 Charge =  1 Multiplicity = 2

 SCF Done:  E(UB3LYP) =  -550.832525309     A.U. after   22 cycles
 Normal termination of Gaussian 16 at Wed Dec  9 17:01:07 2020.
 Gaussian 16:  ES64L-G16RevA.03 25-Dec-2016

 ----------------------------------------------------------------------
 # B3LYP/6-311++G(d,p) empiricaldispersion=gd3bj scf=xqc pop=npa geom=c
 heck
 ----------------------------------------------------------------------

 ------------------------------------
 CID_146679128_JID_2011_Energie_anion
 ------------------------------------
 Structure from the checkpoint file:  "JID_2011.chk"
 Charge = -1 Multiplicity = 2

                         Standard orientation:
 ---------------------------------------------------------------------
 Center     Atomic      Atomic             Coordinates (Angstroms)
 Number     Number       Type             X           Y           Z
 ---------------------------------------------------------------------
      1          6           0       -3.419988   -0.302274    0.759444
      2          6           0       -3.429449   -0.305452   -0.734239
      3          6           0       -2.314027   -1.024870    0.007315
      4          6           0       -0.951579   -0.448398   -0.004491
      5          7           0       -0.850726    0.891200   -0.001342
      6          6           0        0.387323    1.401695   -0.013640
      7          7           0        1.538319    0.698953   -0.013159
      8          6           0        1.421810   -0.630749   -0.014041
      9          6           0        0.181947   -1.266614   -0.014887
     10          6           0        2.735166   -1.390835   -0.023626
     11          8           0        3.848421   -0.539116    0.058010
     12          7           0        0.499082    2.762347   -0.060726
     13          1           0       -4.140102   -0.916207    1.292326
     14          1           0       -3.130458    0.618086    1.256126
     15          1           0       -4.156381   -0.921570   -1.255199
     16          1           0       -3.145623    0.612471   -1.238712
     17          1           0       -2.345810   -2.110461    0.009861
     18          1           0        0.099101   -2.348119   -0.013519
     19          1           0        2.739251   -2.100601    0.818201
     20          1           0        2.774380   -1.997604   -0.944155
     21          1           0        3.475312    0.364307    0.013137
     22          1           0        1.395797    3.157838    0.178975
     23          1           0       -0.326777    3.292264    0.174473
 ---------------------------------------------------------------------

 SCF Done:  E(UB3LYP) =  -551.127015274     A.U. after   33 cycles
 SCF Done:  E(UB3LYP) =  -551.127015274     a.u. after    1 cycles

 The electronic state is 2-A.
 Alpha  occ. eigenvalues --  -19.00614 -14.21227 -14.18812 -14.17715 -10.15696
 Alpha  occ. eigenvalues --  -10.11277 -10.10077 -10.09755 -10.07239 -10.06522
 Alpha  occ. eigenvalues --  -10.06375 -10.05292  -0.91763  -0.88120  -0.79202
 Alpha  occ. eigenvalues --   -0.77855  -0.74117  -0.66291  -0.59986  -0.54071
 Alpha  occ. eigenvalues --   -0.52594  -0.49330  -0.47876  -0.43118  -0.41405
 Alpha  occ. eigenvalues --   -0.39044  -0.37372  -0.36229  -0.35614  -0.34437
 Alpha  occ. eigenvalues --   -0.33979  -0.31601  -0.30650  -0.26653  -0.26149
 Alpha  occ. eigenvalues --   -0.23525  -0.23192  -0.20620  -0.20034  -0.19672
 Alpha  occ. eigenvalues --   -0.16755  -0.16257  -0.14203  -0.11589   0.04800
 Alpha virt. eigenvalues --    0.06610   0.06940   0.08145   0.09328   0.09389
 Alpha virt. eigenvalues --    0.09927   0.10056   0.11923   0.12142   0.12236
 Alpha virt. eigenvalues --    0.13060   0.14157   0.14692   0.16320   0.16608

  Beta  occ. eigenvalues --  -19.00613 -14.21185 -14.18719 -14.17574 -10.15703
  Beta  occ. eigenvalues --  -10.11291 -10.09932 -10.09524 -10.07245 -10.06490
  Beta  occ. eigenvalues --  -10.06333 -10.05348  -0.91743  -0.87961  -0.79076
  Beta  occ. eigenvalues --   -0.77615  -0.73992  -0.66096  -0.59793  -0.53986
  Beta  occ. eigenvalues --   -0.52464  -0.49232  -0.47791  -0.43021  -0.41298
  Beta  occ. eigenvalues --   -0.38959  -0.37286  -0.36152  -0.35374  -0.34323
  Beta  occ. eigenvalues --   -0.33922  -0.31280  -0.30563  -0.26565  -0.26077
  Beta  occ. eigenvalues --   -0.23210  -0.23087  -0.20160  -0.19814  -0.19521
  Beta  occ. eigenvalues --   -0.16692  -0.15804  -0.14043  -0.11331
  Beta virt. eigenvalues --    0.07336   0.07933   0.08429   0.08657   0.09778
  Beta virt. eigenvalues --    0.09939   0.10179   0.10386   0.11994   0.12346
  Beta virt. eigenvalues --    0.12749   0.13172   0.14079   0.15051   0.16325

 Mulliken charges and spin densities:
               1          2
     1  C    0.169904  -0.663137
     2  C    1.009555  -1.498765
     3  C   -1.745706   1.755720
     4  C    1.801346  -1.822604
     5  N   -0.156644   0.083945
     6  C   -0.263298   0.382755
     7  N   -0.148431  -0.020494
     8  C    0.636887  -0.680660
     9  C   -0.501928   0.646835
    10  C    0.220736  -0.800198
    11  O   -0.314729  -0.001020
    12  N   -0.396535   0.118228
    13  H    0.060508   0.065989
    14  H   -0.051622   0.215079
    15  H   -0.438876   0.579606
    16  H    0.093544   0.071378
    17  H   -0.854210   1.110818
    18  H   -0.111182   0.276382
    19  H    0.151648   0.008848
    20  H   -0.033762   0.205840
    21  H    0.284374   0.017466
    22  H   -0.128046   0.391869
    23  H   -0.283532   0.556120
 Sum of Mulliken charges =  -1.00000   1.00000

 Dipole moment (field-independent basis, Debye):
    X=              1.6856    Y=             -0.7398    Z=              1.3329  Tot=              2.2727
 Quadrupole moment (field-independent basis, Debye-Ang):
   XX=           -135.4985   YY=           -115.1112   ZZ=            -90.6130
   XY=             -6.8802   XZ=             -3.8357   YZ=             -4.2512

 Summary of Natural Population Analysis:

                                       Natural Population
                Natural  -----------------------------------------------
    Atom  No    Charge         Core      Valence    Rydberg      Total
 -----------------------------------------------------------------------
      C    1   -0.18601      0.99962     2.17994    0.00644     3.18601
      C    2   -0.18678      0.99962     2.17771    0.00945     3.18678
      C    3   -0.13276      0.99956     2.12071    0.01248     3.13276
      C    4    0.15867      0.99953     1.82795    0.01384     2.84133
      N    5   -0.27362      0.99964     2.76395    0.01004     3.77362
      C    6    0.30498      0.99962     1.67716    0.01824     2.69502
      N    7   -0.30062      0.99961     2.78959    0.01142     3.80062
      C    8    0.16005      0.99956     1.82916    0.01123     2.83995
      C    9   -0.18106      0.99946     2.17288    0.00872     3.18106
      C   10   -0.02061      0.99957     2.00933    0.01171     3.02061
      O   11   -0.37976      0.99990     3.37263    0.00723     4.37976
      N   12   -0.39131      0.99970     2.88198    0.00962     3.89131
      H   13    0.09825      0.00000     0.40066    0.00109     0.40175
      H   14    0.10888      0.00000     0.38964    0.00148     0.39112
      H   15    0.10180      0.00000     0.39651    0.00169     0.39820
      H   16    0.10933      0.00000     0.38934    0.00132     0.39067
      H   17    0.10698      0.00000     0.39129    0.00173     0.39302
      H   18    0.10440      0.00000     0.39448    0.00112     0.39560
      H   19    0.08375      0.00000     0.41451    0.00175     0.41625
      H   20    0.08480      0.00000     0.41306    0.00215     0.41520
      H   21    0.24179      0.00000     0.25435    0.00386     0.25821
      H   22    0.19271      0.00000     0.30471    0.00258     0.30729
      H   23    0.19612      0.00000     0.29997    0.00391     0.30388
 =======================================================================
   * Total *    0.00000     11.99539    31.85150    0.15312    44.00000

 Normal termination of Gaussian 16 at Wed Dec  9 17:07:11 2020.
