 Gaussian 16, Revision A.03,

 -----------------------------------------------------------
 # opt freq B3LYP/6-31G(d) empiricaldispersion=gd3bj scf=xqc
 -----------------------------------------------------------

 ------------------------------
 CID_12333395_JID_3128_neutraal
 ------------------------------
 Symbolic Z-matrix:
 Charge =  0 Multiplicity = 1

 SCF Done:  E(RB3LYP) =  -647.322508702     A.U. after   15 cycles
 SCF Done:  E(RB3LYP) =  -647.328701706     A.U. after   13 cycles
 SCF Done:  E(RB3LYP) =  -647.330665505     A.U. after   13 cycles
 SCF Done:  E(RB3LYP) =  -647.330016428     A.U. after   13 cycles
 SCF Done:  E(RB3LYP) =  -647.331549234     A.U. after   12 cycles
 SCF Done:  E(RB3LYP) =  -647.331832270     A.U. after   12 cycles
 SCF Done:  E(RB3LYP) =  -647.332040495     A.U. after   12 cycles
 SCF Done:  E(RB3LYP) =  -647.332117360     A.U. after   11 cycles
 SCF Done:  E(RB3LYP) =  -647.332144332     A.U. after   10 cycles
 SCF Done:  E(RB3LYP) =  -647.332152548     A.U. after    9 cycles
 SCF Done:  E(RB3LYP) =  -647.332472063     A.U. after    9 cycles
 SCF Done:  E(RB3LYP) =  -647.332473196     A.U. after    9 cycles
 SCF Done:  E(RB3LYP) =  -647.332473827     A.U. after    8 cycles
 SCF Done:  E(RB3LYP) =  -647.332474041     A.U. after    8 cycles
 SCF Done:  E(RB3LYP) =  -647.332474100     A.U. after    7 cycles
 Optimization completed.
    -- Stationary point found.
 Normal termination of Gaussian 16 at Wed Dec  9 22:34:03 2020.

 --------------------------------------------------------------------
 #N Geom=AllCheck Guess=TCheck SCRF=Check GenChk RB3LYP/6-31G(d) Freq
 --------------------------------------------------------------------

 Structure from the checkpoint file:  "JID_3128.chk"
 ------------------------------
 CID_12333395_JID_3128_neutraal
 ------------------------------
 Charge =  0 Multiplicity = 1

 SCF Done:  E(RB3LYP) =  -647.332474100     A.U. after    1 cycles

  Exact polarizability: 143.717   9.022 110.715   0.626   3.851  65.577
 Approx polarizability: 211.312  15.559 161.788   3.428  10.715  97.104

                      1                      2                      3
                      A                      A                      A
 Frequencies --     53.1152                65.9025                72.2384
 Red. masses --      2.8727                 3.5328                 1.4434
 Frc consts  --      0.0048                 0.0090                 0.0044
 IR Inten    --      1.2434                 0.2728                 2.3718

                      4                      5                      6
                      A                      A                      A
 Frequencies --    111.0170               130.5094               147.7719
 Red. masses --      3.7917                 1.9409                 2.6552
 Frc consts  --      0.0275                 0.0195                 0.0342
 IR Inten    --      0.7227                 2.1672                 1.8528

                      7                      8                      9
                      A                      A                      A
 Frequencies --    152.6218               165.7594               221.7651
 Red. masses --      1.7867                 3.6031                 4.0654
 Frc consts  --      0.0245                 0.0583                 0.1178
 IR Inten    --      0.4925                 0.5724                 5.3338

                     10                     11                     12
                      A                      A                      A
 Frequencies --    265.4674               311.4505               337.0428
 Red. masses --      1.0389                 3.5955                 5.2610
 Frc consts  --      0.0431                 0.2055                 0.3521
 IR Inten    --      0.0658                 5.5930                13.8724

                     13                     14                     15
                      A                      A                      A
 Frequencies --    356.2656               387.1741               431.4867
 Red. masses --      5.0640                 3.8805                 7.8122
 Frc consts  --      0.3787                 0.3427                 0.8570
 IR Inten    --      2.4201                 8.8275                11.7694

                     16                     17                     18
                      A                      A                      A
 Frequencies --    463.0772               508.1299               541.5222
 Red. masses --      3.0144                 3.4660                 1.5255
 Frc consts  --      0.3809                 0.5273                 0.2636
 IR Inten    --      1.3638                 5.1485                 0.2934

                     19                     20                     21
                      A                      A                      A
 Frequencies --    563.1036               598.4665               623.6419
 Red. masses --      2.1323                 2.8632                 2.3234
 Frc consts  --      0.3984                 0.6042                 0.5324
 IR Inten    --     74.1835                29.3513                57.5053

                     22                     23                     24
                      A                      A                      A
 Frequencies --    659.3328               719.4983               756.4779
 Red. masses --      2.5159                 3.4788                10.4509
 Frc consts  --      0.6444                 1.0610                 3.5237
 IR Inten    --     32.5838                10.5456                45.0094

                     25                     26                     27
                      A                      A                      A
 Frequencies --    772.0715               817.3375               929.7442
 Red. masses --      8.9813                 4.9970                 2.9734
 Frc consts  --      3.1543                 1.9668                 1.5144
 IR Inten    --     19.5374                 5.3329                 3.5561

                     28                     29                     30
                      A                      A                      A
 Frequencies --    943.3753              1002.6874              1031.2649
 Red. masses --      2.4583                 4.6890                 1.7503
 Frc consts  --      1.2890                 2.7775                 1.0967
 IR Inten    --      5.0353                10.2173                 5.2771

                     31                     32                     33
                      A                      A                      A
 Frequencies --   1046.5661              1081.3873              1112.4934
 Red. masses --      1.8492                 1.5375                 2.4967
 Frc consts  --      1.1933                 1.0594                 1.8206
 IR Inten    --     12.0966                 4.9391                36.3430

                     34                     35                     36
                      A                      A                      A
 Frequencies --   1129.8226              1145.2690              1182.2957
 Red. masses --      2.7568                 3.6788                 2.2883
 Frc consts  --      2.0734                 2.8430                 1.8846
 IR Inten    --    117.8168               166.2179                 7.7141

                     37                     38                     39
                      A                      A                      A
 Frequencies --   1186.8031              1219.2605              1266.1415
 Red. masses --      1.2927                 1.5853                 2.3321
 Frc consts  --      1.0727                 1.3886                 2.2027
 IR Inten    --      1.1344               117.0287               335.7268

                     40                     41                     42
                      A                      A                      A
 Frequencies --   1321.0574              1343.1818              1375.6666
 Red. masses --      2.3133                 4.8917                 1.3653
 Frc consts  --      2.3786                 5.1997                 1.5223
 IR Inten    --      9.8722               215.8114                15.8100

                     43                     44                     45
                      A                      A                      A
 Frequencies --   1424.4295              1429.7081              1434.1155
 Red. masses --      1.5457                 1.3744                 1.2735
 Frc consts  --      1.8479                 1.6552                 1.5432
 IR Inten    --     41.1785                60.4688                 1.6171

                     46                     47                     48
                      A                      A                      A
 Frequencies --   1475.7680              1490.2071              1494.6238
 Red. masses --      1.5802                 1.3041                 1.4146
 Frc consts  --      2.0277                 1.7062                 1.8619
 IR Inten    --    139.3419                 9.4836                64.4156

                     49                     50                     51
                      A                      A                      A
 Frequencies --   1510.3482              1511.1735              1521.9955
 Red. masses --      1.4062                 1.0486                 1.1033
 Frc consts  --      1.8899                 1.4109                 1.5058
 IR Inten    --      8.9439                 5.1818                10.2477

                     52                     53                     54
                      A                      A                      A
 Frequencies --   1526.7762              1529.9995              1531.0289
 Red. masses --      1.0588                 1.0851                 1.0669
 Frc consts  --      1.4542                 1.4966                 1.4735
 IR Inten    --     10.9137                 2.9992                 8.5872

                     55                     56                     57
                      A                      A                      A
 Frequencies --   1694.2174              1778.6911              1838.5865
 Red. masses --      6.5940                10.6945                 7.5714
 Frc consts  --     11.1516                19.9348                15.0797
 IR Inten    --    340.4737               259.6914               566.2017

                     58                     59                     60
                      A                      A                      A
 Frequencies --   3045.9301              3050.4707              3074.0279
 Red. masses --      1.0431                 1.0364                 1.0293
 Frc consts  --      5.7018                 5.6823                 5.7310
 IR Inten    --     25.8166                21.7366                42.3116

                     61                     62                     63
                      A                      A                      A
 Frequencies --   3095.5957              3104.2116              3122.9239
 Red. masses --      1.1004                 1.0891                 1.0983
 Frc consts  --      6.2127                 6.1836                 6.3112
 IR Inten    --     13.5849                 4.2539                32.4089

                     64                     65                     66
                      A                      A                      A
 Frequencies --   3144.0263              3147.5580              3177.9446
 Red. masses --      1.1023                 1.1073                 1.1071
 Frc consts  --      6.4197                 6.4633                 6.5879
 IR Inten    --     19.1792                21.6646                19.5151

                     67                     68                     69
                      A                      A                      A
 Frequencies --   3218.6727              3615.0600              3626.6076
 Red. masses --      1.0951                 1.0764                 1.0778
 Frc consts  --      6.6845                 8.2878                 8.3516
 IR Inten    --      4.1113                29.3209                62.8033

 - Thermochemistry -
 -------------------
 Temperature   298.150 Kelvin.  Pressure   1.00000 Atm.
 Atom     1 has atomic number  6 and mass  12.00000

 Molecular mass:   184.08479 amu.
 Principal axes and moments of inertia in atomic units:
                           1         2         3
     Eigenvalues --  1269.362063227.435304157.86968
           X            0.99980   0.01913   0.00556
           Y           -0.01909   0.99979  -0.00728
           Z           -0.00570   0.00717   0.99996
 This molecule is an asymmetric top.
 Rotational symmetry number  1.
 Warning -- assumption of classical behavior for rotation
           may cause significant error
 Rotational temperatures (Kelvin)      0.06823     0.02684     0.02083
 Rotational constants (GHZ):           1.42177     0.55919     0.43405
 Zero-point vibrational energy     539300.3 (Joules/Mol)
                                  128.89585 (Kcal/Mol)
 Warning -- explicit consideration of  20 degrees of freedom as
           vibrations may cause significant error
 Vibrational temperatures:     76.42    94.82   103.93   159.73   187.77
          (Kelvin)            212.61   219.59   238.49   319.07   381.95
                              448.11   484.93   512.59   557.06   620.81
                              666.26   731.09   779.13   810.18   861.06
                              897.28   948.63  1035.20  1088.40  1110.84
                             1175.97  1337.69  1357.31  1442.64  1483.76
                             1505.78  1555.88  1600.63  1625.56  1647.79
                             1701.06  1707.54  1754.24  1821.70  1900.71
                             1932.54  1979.28  2049.44  2057.03  2063.37
                             2123.30  2144.08  2150.43  2173.05  2174.24
                             2189.81  2196.69  2201.33  2202.81  2437.60
                             2559.14  2645.32  4382.41  4388.95  4422.84
                             4453.87  4466.27  4493.19  4523.55  4528.63
                             4572.35  4630.95  5201.27  5217.88

 Zero-point correction=                           0.205409 (Hartree/Particle)
 Thermal correction to Energy=                    0.218775
 Thermal correction to Enthalpy=                  0.219720
 Thermal correction to Gibbs Free Energy=         0.165203
 Sum of electronic and zero-point Energies=           -647.127065
 Sum of electronic and thermal Energies=              -647.113699
 Sum of electronic and thermal Enthalpies=            -647.112755
 Sum of electronic and thermal Free Energies=         -647.167271

                     E (Thermal)             CV                S
                      KCal/Mol        Cal/Mol-Kelvin    Cal/Mol-Kelvin
 Total                  137.284             48.498            114.740
 Electronic               0.000              0.000              0.000
 Translational            0.889              2.981             41.537
 Rotational               0.889              2.981             31.211
 Vibrational            135.506             42.536             41.993
 Vibration     1          0.596              1.976              4.698
 Vibration     2          0.597              1.971              4.272
 Vibration     3          0.598              1.967              4.091
 Vibration     4          0.607              1.940              3.251
 Vibration     5          0.612              1.923              2.939
 Vibration     6          0.617              1.905              2.701
 Vibration     7          0.619              1.900              2.639
 Vibration     8          0.624              1.885              2.483
 Vibration     9          0.648              1.808              1.945
 Vibration    10          0.671              1.736              1.626
 Vibration    11          0.700              1.652              1.355
 Vibration    12          0.718              1.602              1.226
 Vibration    13          0.732              1.562              1.138
 Vibration    14          0.756              1.498              1.011
 Vibration    15          0.793              1.402              0.854
 Vibration    16          0.821              1.332              0.757
 Vibration    17          0.863              1.232              0.638
 Vibration    18          0.897              1.158              0.562
 Vibration    19          0.919              1.111              0.518
 Vibration    20          0.956              1.035              0.452

 Optimization completed.
    -- Stationary point found.
 Normal termination of Gaussian 16 at Wed Dec  9 22:40:06 2020.

 ----------------------------------------------------------------------
 # B3LYP/6-311++G(d,p) empiricaldispersion=gd3bj scf=xqc pop=npa geom=c
 heck
 ----------------------------------------------------------------------

 --------------------------------------
 CID_12333395_JID_3128_Energie_neutraal
 --------------------------------------
 Structure from the checkpoint file:  "JID_3128.chk"
 Charge =  0 Multiplicity = 1

 SCF Done:  E(RB3LYP) =  -647.526611816     A.U. after   15 cycles
 Normal termination of Gaussian 16 at Wed Dec  9 22:43:06 2020.

 ----------------------------------------------------------------------
 # B3LYP/6-311++G(d,p) empiricaldispersion=gd3bj scf=xqc pop=npa geom=c
 heck
 ----------------------------------------------------------------------

 ------------------------------------
 CID_12333395_JID_3128_Energie_kation
 ------------------------------------
 Structure from the checkpoint file:  "JID_3128.chk"
 Charge =  1 Multiplicity = 2

 SCF Done:  E(UB3LYP) =  -647.217600187     A.U. after   24 cycles
 Normal termination of Gaussian 16 at Wed Dec  9 22:49:11 2020.
 Gaussian 16:  ES64L-G16RevA.03 25-Dec-2016

 ----------------------------------------------------------------------
 # B3LYP/6-311++G(d,p) empiricaldispersion=gd3bj scf=xqc pop=npa geom=c
 heck
 ----------------------------------------------------------------------

 -----------------------------------
 CID_12333395_JID_3128_Energie_anion
 -----------------------------------
 Structure from the checkpoint file:  "JID_3128.chk"
 Charge = -1 Multiplicity = 2

                         Standard orientation:
 ---------------------------------------------------------------------
 Center     Atomic      Atomic             Coordinates (Angstroms)
 Number     Number       Type             X           Y           Z
 ---------------------------------------------------------------------
      1          6           0        0.221619   -1.927020    1.284876
      2          6           0        0.277189   -1.245889   -0.092641
      3          6           0       -0.266500    0.173633   -0.042260
      4          6           0        0.608521    1.199111    0.150555
      5          7           0        1.963820    0.918597    0.195814
      6          6           0        2.554930   -0.256904   -0.291351
      7          8           0        3.764903   -0.349118   -0.427493
      8          7           0        1.643507   -1.214777   -0.630038
      9          6           0        0.286199    2.654762    0.325976
     10          6           0       -1.717069    0.377874   -0.117368
     11          8           0       -2.330751    1.433069   -0.087439
     12          8           0       -2.368522   -0.816013   -0.231290
     13          6           0       -3.795404   -0.721748   -0.316274
     14          1           0        0.620665   -2.947049    1.230457
     15          1           0       -0.813013   -1.978982    1.635871
     16          1           0        0.813396   -1.362271    2.013044
     17          1           0       -0.322134   -1.827351   -0.796259
     18          1           0        2.620316    1.678276    0.314035
     19          1           0        2.069505   -2.099380   -0.873656
     20          1           0        0.828429    3.050603    1.193815
     21          1           0        0.618606    3.217509   -0.555880
     22          1           0       -0.781822    2.808171    0.453344
     23          1           0       -4.204717   -0.246123    0.578916
     24          1           0       -4.091868   -0.137319   -1.191275
     25          1           0       -4.150596   -1.749233   -0.402147
 ---------------------------------------------------------------------

 SCF Done:  E(UB3LYP) =  -647.520216488     A.U. after   33 cycles
 SCF Done:  E(UB3LYP) =  -647.520216488     a.u. after    1 cycles

 The electronic state is 2-A.
 Alpha  occ. eigenvalues --  -19.02683 -18.96618 -18.95406 -14.22433 -14.21407
 Alpha  occ. eigenvalues --  -10.17521 -10.14435 -10.10408 -10.09637 -10.07936
 Alpha  occ. eigenvalues --  -10.04703 -10.04301 -10.03484  -0.96463  -0.93519
 Alpha  occ. eigenvalues --   -0.87105  -0.83651  -0.79342  -0.67980  -0.62958
 Alpha  occ. eigenvalues --   -0.61071  -0.57580  -0.52282  -0.50637  -0.48092
 Alpha  occ. eigenvalues --   -0.42876  -0.39988  -0.37133  -0.35755  -0.35348
 Alpha  occ. eigenvalues --   -0.34529  -0.33897  -0.32910  -0.31005  -0.30313
 Alpha  occ. eigenvalues --   -0.29375  -0.28559  -0.28157  -0.27417  -0.26776
 Alpha  occ. eigenvalues --   -0.25250  -0.23918  -0.21895  -0.20375  -0.17532
 Alpha  occ. eigenvalues --   -0.15790  -0.14393  -0.13425  -0.09724   0.05108
 Alpha virt. eigenvalues --    0.07222   0.08080   0.08250   0.09691   0.10699
 Alpha virt. eigenvalues --    0.11352   0.11763   0.11863   0.12035   0.13077
 Alpha virt. eigenvalues --    0.14636   0.15075   0.15572   0.16143   0.16727

  Beta  occ. eigenvalues --  -19.02612 -18.96543 -18.95223 -14.22441 -14.21382
  Beta  occ. eigenvalues --  -10.17459 -10.14233 -10.10393 -10.09633 -10.07440
  Beta  occ. eigenvalues --  -10.04735 -10.04279 -10.03508  -0.96241  -0.93376
  Beta  occ. eigenvalues --   -0.86815  -0.83464  -0.79198  -0.67713  -0.62689
  Beta  occ. eigenvalues --   -0.60919  -0.57505  -0.52205  -0.50322  -0.47846
  Beta  occ. eigenvalues --   -0.42759  -0.39887  -0.37054  -0.35455  -0.35166
  Beta  occ. eigenvalues --   -0.34257  -0.33606  -0.32658  -0.30837  -0.29972
  Beta  occ. eigenvalues --   -0.29185  -0.28395  -0.27988  -0.27342  -0.26319
  Beta  occ. eigenvalues --   -0.24942  -0.23796  -0.21799  -0.19626  -0.16901
  Beta  occ. eigenvalues --   -0.15695  -0.14188  -0.13232  -0.08898
  Beta virt. eigenvalues --    0.07521   0.08286   0.08739   0.09838   0.10437
  Beta virt. eigenvalues --    0.11097   0.11365   0.11835   0.12049   0.12216
  Beta virt. eigenvalues --    0.13261   0.14727   0.14911   0.15720   0.16268

 Mulliken charges and spin densities:
               1          2
     1  C    0.705844  -1.196113
     2  C   -0.413589   0.731259
     3  C    1.308355  -0.402576
     4  C   -0.167416   0.178492
     5  N   -0.339017   0.046249
     6  C    0.172800   0.069663
     7  O   -0.427225   0.028393
     8  N   -0.171157  -0.074092
     9  C    0.119146  -0.601954
    10  C   -1.704864   0.540018
    11  O   -0.339116   0.059863
    12  O   -0.143224   0.041056
    13  C    0.353804  -0.597036
    14  H   -0.279893   0.396529
    15  H    0.075369   0.069996
    16  H   -0.037751   0.195646
    17  H   -0.155904   0.404601
    18  H    0.291012   0.027342
    19  H    0.180366   0.110711
    20  H   -0.125715   0.252876
    21  H    0.151996   0.000753
    22  H    0.165831   0.038428
    23  H   -0.003830   0.175070
    24  H    0.062948   0.096094
    25  H   -0.278769   0.408729
 Sum of Mulliken charges =  -1.00000   1.00000

 Dipole moment (field-independent basis, Debye):
    X=             -0.1557    Y=              1.5539    Z=             -0.4864  Tot=              1.6357
 Quadrupole moment (field-independent basis, Debye-Ang):
   XX=           -133.2278   YY=           -108.3839   ZZ=            -94.0070
   XY=              2.9367   XZ=              1.1045   YZ=             -0.4092

 Summary of Natural Population Analysis:

                                       Natural Population
                Natural  -----------------------------------------------
    Atom  No    Charge         Core      Valence    Rydberg      Total
 -----------------------------------------------------------------------
      C    1   -0.28990      0.99964     2.28461    0.00565     3.28990
      C    2   -0.01283      0.99958     1.99954    0.01371     3.01283
      C    3   -0.13066      0.99938     2.11984    0.01144     3.13066
      C    4    0.21560      0.99948     1.77530    0.00962     2.78440
      N    5   -0.31888      0.99964     2.81022    0.00902     3.81888
      C    6    0.41702      0.99970     1.56060    0.02268     2.58298
      O    7   -0.33771      0.99988     3.33241    0.00543     4.33771
      N    8   -0.32229      0.99967     2.81294    0.00968     3.82229
      C    9   -0.31250      0.99963     2.30789    0.00498     3.31250
      C   10    0.42116      0.99961     1.55630    0.02293     2.57884
      O   11   -0.32196      0.99987     3.31688    0.00521     4.32196
      O   12   -0.28651      0.99987     3.27759    0.00905     4.28651
      C   13   -0.10414      0.99960     2.09465    0.00989     3.10414
      H   14    0.09371      0.00000     0.40432    0.00197     0.40629
      H   15    0.10550      0.00000     0.39326    0.00124     0.39450
      H   16    0.09781      0.00000     0.40123    0.00096     0.40219
      H   17    0.10562      0.00000     0.39262    0.00176     0.39438
      H   18    0.19544      0.00000     0.30223    0.00233     0.30456
      H   19    0.19269      0.00000     0.30524    0.00207     0.30731
      H   20    0.09922      0.00000     0.39880    0.00197     0.40078
      H   21    0.10270      0.00000     0.39622    0.00108     0.39730
      H   22    0.12880      0.00000     0.37012    0.00108     0.37120
      H   23    0.08865      0.00000     0.41022    0.00114     0.41135
      H   24    0.08682      0.00000     0.41220    0.00099     0.41318
      H   25    0.08665      0.00000     0.41214    0.00120     0.41335
 =======================================================================
   * Total *   -0.00000     12.99555    35.84738    0.15707    49.00000

 Normal termination of Gaussian 16 at Wed Dec  9 22:57:23 2020.
