 Gaussian 16, Revision A.03,

 -----------------------------------------------------------
 # opt freq B3LYP/6-31G(d) empiricaldispersion=gd3bj scf=xqc
 -----------------------------------------------------------

 ------------------------------
 CID_130783654_JID_516_neutraal
 ------------------------------
 Symbolic Z-matrix:
 Charge =  0 Multiplicity = 1

 SCF Done:  E(RB3LYP) =  -477.318867396     A.U. after   15 cycles
 SCF Done:  E(RB3LYP) =  -477.340893789     A.U. after   13 cycles
 SCF Done:  E(RB3LYP) =  -477.341425087     A.U. after   12 cycles
 SCF Done:  E(RB3LYP) =  -477.341161633     A.U. after   12 cycles
 SCF Done:  E(RB3LYP) =  -477.341846007     A.U. after   12 cycles
 SCF Done:  E(RB3LYP) =  -477.342049221     A.U. after   12 cycles
 SCF Done:  E(RB3LYP) =  -477.342432890     A.U. after   15 cycles
 SCF Done:  E(RB3LYP) =  -477.342594364     A.U. after   13 cycles
 SCF Done:  E(RB3LYP) =  -477.342588090     A.U. after   15 cycles
 SCF Done:  E(RB3LYP) =  -477.342861105     A.U. after   13 cycles
 SCF Done:  E(RB3LYP) =  -477.342886270     A.U. after   12 cycles
 SCF Done:  E(RB3LYP) =  -477.342883453     A.U. after   10 cycles
 SCF Done:  E(RB3LYP) =  -477.342893016     A.U. after   12 cycles
 SCF Done:  E(RB3LYP) =  -477.342893133     A.U. after    9 cycles
 SCF Done:  E(RB3LYP) =  -477.342893213     A.U. after    8 cycles
 Optimization completed.
    -- Stationary point found.
 Normal termination of Gaussian 16 at Tue Dec  8 12:25:04 2020.

 --------------------------------------------------------------------
 #N Geom=AllCheck Guess=TCheck SCRF=Check GenChk RB3LYP/6-31G(d) Freq
 --------------------------------------------------------------------

 Structure from the checkpoint file:  "JID_516.chk"
 ------------------------------
 CID_130783654_JID_516_neutraal
 ------------------------------
 Charge =  0 Multiplicity = 1

 SCF Done:  E(RB3LYP) =  -477.342893213     A.U. after    1 cycles

  Exact polarizability:  85.026  -2.290  77.038  -0.349   2.549  66.477
 Approx polarizability: 104.049  -4.327 116.945  -4.587   5.288 110.509

                      1                      2                      3
                      A                      A                      A
 Frequencies --     30.1352                37.5157                57.3562
 Red. masses --      4.5513                 4.2693                 9.3303
 Frc consts  --      0.0024                 0.0035                 0.0181
 IR Inten    --      3.1289                 1.3749                 2.0670

                      4                      5                      6
                      A                      A                      A
 Frequencies --     81.6363               160.8536               258.9047
 Red. masses --      3.0901                 3.9656                 6.6975
 Frc consts  --      0.0121                 0.0605                 0.2645
 IR Inten    --      2.0127                 1.1548                 6.2116

                      7                      8                      9
                      A                      A                      A
 Frequencies --    294.0156               332.7059               347.5139
 Red. masses --      4.0515                 3.0673                 4.1488
 Frc consts  --      0.2063                 0.2000                 0.2952
 IR Inten    --     16.8491                 0.0698                 3.6494

                     10                     11                     12
                      A                      A                      A
 Frequencies --    369.0449               421.8028               563.7224
 Red. masses --      2.3659                 2.5044                 5.8994
 Frc consts  --      0.1898                 0.2625                 1.1046
 IR Inten    --      4.5269                 4.8400                 7.9507

                     13                     14                     15
                      A                      A                      A
 Frequencies --    676.8256               735.6269               783.6295
 Red. masses --      5.0219                 4.6844                 1.1072
 Frc consts  --      1.3554                 1.4936                 0.4006
 IR Inten    --      4.4469                 2.3786                 1.0729

                     16                     17                     18
                      A                      A                      A
 Frequencies --    821.7464               840.4937               856.3454
 Red. masses --      1.6676                 2.4127                 2.4115
 Frc consts  --      0.6635                 1.0042                 1.0419
 IR Inten    --      3.8771                17.8478                24.4041

                     19                     20                     21
                      A                      A                      A
 Frequencies --    928.1894               935.9400               962.8731
 Red. masses --      1.5965                 5.0608                 3.1547
 Frc consts  --      0.8104                 2.6119                 1.7232
 IR Inten    --      0.9048                15.6847                 9.8281

                     22                     23                     24
                      A                      A                      A
 Frequencies --   1003.6100              1046.2621              1065.1020
 Red. masses --      2.4725                 2.7869                 3.2683
 Frc consts  --      1.4673                 1.7975                 2.1845
 IR Inten    --      6.9282                30.5268                50.7361

                     25                     26                     27
                      A                      A                      A
 Frequencies --   1069.3937              1086.4835              1126.5018
 Red. masses --      1.3814                 1.3760                 1.7356
 Frc consts  --      0.9308                 0.9570                 1.2977
 IR Inten    --      9.3010                 0.3051                89.8217

                     28                     29                     30
                      A                      A                      A
 Frequencies --   1147.5588              1208.7221              1210.3432
 Red. masses --      1.1435                 1.7244                 1.6703
 Frc consts  --      0.8872                 1.4844                 1.4416
 IR Inten    --      2.6453                69.3752                55.0545

                     31                     32                     33
                      A                      A                      A
 Frequencies --   1242.1533              1292.9194              1312.4720
 Red. masses --      1.9352                 1.3826                 1.1694
 Frc consts  --      1.7592                 1.3618                 1.1868
 IR Inten    --     32.0639                36.1467                27.1538

                     34                     35                     36
                      A                      A                      A
 Frequencies --   1338.2474              1410.4383              1421.6732
 Red. masses --      1.5516                 1.3348                 1.5864
 Frc consts  --      1.6372                 1.5645                 1.8891
 IR Inten    --     45.7796                13.6216                13.4443

                     37                     38                     39
                      A                      A                      A
 Frequencies --   1487.3330              1496.2420              1504.2545
 Red. masses --      1.0930                 1.0884                 1.1131
 Frc consts  --      1.4246                 1.4357                 1.4839
 IR Inten    --     19.9026                 4.5716                 4.3546

                     40                     41                     42
                      A                      A                      A
 Frequencies --   1537.4777              1845.6181              2379.7068
 Red. masses --      1.3438                11.3762                12.6024
 Frc consts  --      1.8716                22.8313                42.0485
 IR Inten    --      2.3943               204.5700                 0.0416

                     43                     44                     45
                      A                      A                      A
 Frequencies --   3079.7784              3100.1205              3131.2335
 Red. masses --      1.0582                 1.0570                 1.1060
 Frc consts  --      5.9135                 5.9851                 6.3891
 IR Inten    --     11.0874                10.6759                 7.0763

                     46                     47                     48
                      A                      A                      A
 Frequencies --   3147.5197              3155.5835              3156.6651
 Red. masses --      1.0534                 1.1078                 1.0567
 Frc consts  --      6.1484                 6.4992                 6.2036
 IR Inten    --     19.1067                 0.4452                 7.9026

                     49                     50                     51
                      A                      A                      A
 Frequencies --   3172.9406              3224.0896              3240.1182
 Red. masses --      1.0905                 1.1192                 1.1161
 Frc consts  --      6.4683                 6.8543                 6.9037
 IR Inten    --      7.9302                 2.8616                15.8764

 - Thermochemistry -
 -------------------
 Temperature   298.150 Kelvin.  Pressure   1.00000 Atm.
 Atom     1 has atomic number  6 and mass  12.00000

 Molecular mass:   139.06333 amu.
 Principal axes and moments of inertia in atomic units:
                           1         2         3
     Eigenvalues --   862.714392081.982622523.92207
           X            0.99958   0.02792   0.00812
           Y           -0.02800   0.99956   0.00961
           Z           -0.00785  -0.00983   0.99992
 This molecule is an asymmetric top.
 Rotational symmetry number  1.
 Warning -- assumption of classical behavior for rotation
           may cause significant error
 Rotational temperatures (Kelvin)      0.10040     0.04160     0.03432
 Rotational constants (GHZ):           2.09193     0.86684     0.71505
 Zero-point vibrational energy     401571.1 (Joules/Mol)
                                   95.97779 (Kcal/Mol)
 Warning -- explicit consideration of  12 degrees of freedom as
           vibrations may cause significant error
 Vibrational temperatures:     43.36    53.98    82.52   117.46   231.43
          (Kelvin)            372.51   423.02   478.69   499.99   530.97
                              606.88   811.07   973.80  1058.40  1127.47
                             1182.31  1209.28  1232.09  1335.46  1346.61
                             1385.36  1443.97  1505.34  1532.44  1538.62
                             1563.21  1620.78  1651.08  1739.08  1741.41
                             1787.18  1860.22  1888.35  1925.44  2029.31
                             2045.47  2139.94  2152.76  2164.29  2212.09
                             2655.43  3423.87  4431.11  4460.38  4505.15
                             4528.58  4540.18  4541.74  4565.15  4638.75
                             4661.81

 Zero-point correction=                           0.152950 (Hartree/Particle)
 Thermal correction to Energy=                    0.163145
 Thermal correction to Enthalpy=                  0.164089
 Thermal correction to Gibbs Free Energy=         0.115037
 Sum of electronic and zero-point Energies=           -477.189943
 Sum of electronic and thermal Energies=              -477.179748
 Sum of electronic and thermal Enthalpies=            -477.178804
 Sum of electronic and thermal Free Energies=         -477.227856

                     E (Thermal)             CV                S
                      KCal/Mol        Cal/Mol-Kelvin    Cal/Mol-Kelvin
 Total                  102.375             35.491            103.240
 Electronic               0.000              0.000              0.000
 Translational            0.889              2.981             40.701
 Rotational               0.889              2.981             29.895
 Vibrational            100.598             29.530             32.643
 Vibration     1          0.594              1.984              5.821
 Vibration     2          0.594              1.982              5.386
 Vibration     3          0.596              1.975              4.546
 Vibration     4          0.600              1.962              3.851
 Vibration     5          0.622              1.890              2.540
 Vibration     6          0.668              1.748              1.669
 Vibration     7          0.689              1.685              1.451
 Vibration     8          0.715              1.610              1.247
 Vibration     9          0.725              1.580              1.177
 Vibration    10          0.741              1.536              1.084
 Vibration    11          0.784              1.423              0.886
 Vibration    12          0.920              1.110              0.516

                           ! Non-Optimized Parameters !
 Normal termination of Gaussian 16 at Tue Dec  8 12:31:04 2020.

 ----------------------------------------------------------------------
 # B3LYP/6-311++G(d,p) empiricaldispersion=gd3bj scf=xqc pop=npa geom=c
 heck
 ----------------------------------------------------------------------

 --------------------------------------
 CID_130783654_JID_516_Energie_neutraal
 --------------------------------------
 Structure from the checkpoint file:  "JID_516.chk"
 Charge =  0 Multiplicity = 1

 SCF Done:  E(RB3LYP) =  -477.482521484     A.U. after   14 cycles
 Normal termination of Gaussian 16 at Tue Dec  8 12:40:14 2020.

 ----------------------------------------------------------------------
 # B3LYP/6-311++G(d,p) empiricaldispersion=gd3bj scf=xqc pop=npa geom=c
 heck
 ----------------------------------------------------------------------

 ------------------------------------
 CID_130783654_JID_516_Energie_kation
 ------------------------------------
 Structure from the checkpoint file:  "JID_516.chk"
 Charge =  1 Multiplicity = 2

 SCF Done:  E(UB3LYP) =  -477.114485210     A.U. after   24 cycles
 Normal termination of Gaussian 16 at Tue Dec  8 12:50:23 2020.
 Gaussian 16:  ES64L-G16RevA.03 25-Dec-2016

 ----------------------------------------------------------------------
 # B3LYP/6-311++G(d,p) empiricaldispersion=gd3bj scf=xqc pop=npa geom=c
 heck
 ----------------------------------------------------------------------

 -----------------------------------
 CID_130783654_JID_516_Energie_anion
 -----------------------------------
 Structure from the checkpoint file:  "JID_516.chk"
 Charge = -1 Multiplicity = 2

                         Standard orientation:
 ---------------------------------------------------------------------
 Center     Atomic      Atomic             Coordinates (Angstroms)
 Number     Number       Type             X           Y           Z
 ---------------------------------------------------------------------
      1          6           0       -1.799899   -1.409287    0.194518
      2          6           0       -3.145057   -0.726013    0.156943
      3          6           0       -1.947803   -0.068903   -0.481081
      4          6           0       -1.324705    1.165079    0.157889
      5          6           0        0.160051    1.149072   -0.108939
      6          8           0        0.710372    1.530834   -1.113705
      7          8           0        0.832575    0.558805    0.930916
      8          6           0        2.226429    0.332784    0.696231
      9          6           0        2.436328   -0.914260   -0.052919
     10          7           0        2.597090   -1.905921   -0.632049
     11          1           0       -1.641050   -2.282735   -0.430301
     12          1           0       -1.267266   -1.437592    1.140994
     13          1           0       -3.914456   -1.129325   -0.494973
     14          1           0       -3.525652   -0.298022    1.080815
     15          1           0       -1.906751   -0.065717   -1.567580
     16          1           0       -1.743320    2.077977   -0.276385
     17          1           0       -1.507517    1.165712    1.236404
     18          1           0        2.660176    1.168167    0.140310
     19          1           0        2.690563    0.255037    1.681506
 ---------------------------------------------------------------------

 SCF Done:  E(UB3LYP) =  -477.468858373     A.U. after   33 cycles
 SCF Done:  E(UB3LYP) =  -477.468858373     a.u. after    1 cycles

 The electronic state is 2-A.
 Alpha  occ. eigenvalues --  -19.08236 -19.02452 -14.22185 -10.21107 -10.16800
 Alpha  occ. eigenvalues --  -10.11831 -10.09155 -10.08878 -10.07706 -10.07431
 Alpha  occ. eigenvalues --   -1.02068  -0.93601  -0.81572  -0.77129  -0.69060
 Alpha  occ. eigenvalues --   -0.63951  -0.51676  -0.50623  -0.47959  -0.43768
 Alpha  occ. eigenvalues --   -0.42505  -0.40426  -0.38969  -0.37586  -0.34838
 Alpha  occ. eigenvalues --   -0.33083  -0.30589  -0.29040  -0.27933  -0.27121
 Alpha  occ. eigenvalues --   -0.26343  -0.24846  -0.23660  -0.22822  -0.21158
 Alpha  occ. eigenvalues --   -0.19936  -0.18327   0.04721
 Alpha virt. eigenvalues --    0.06698   0.07863   0.08517   0.08614   0.09499
 Alpha virt. eigenvalues --    0.10049   0.10419   0.11336   0.11587   0.12444
 Alpha virt. eigenvalues --    0.13098   0.13257   0.15066   0.16305   0.16753

  Beta  occ. eigenvalues --  -19.08221 -19.02441 -14.22157 -10.21098 -10.16733
  Beta  occ. eigenvalues --  -10.11817 -10.09150 -10.08845 -10.07676 -10.07416
  Beta  occ. eigenvalues --   -1.02043  -0.93577  -0.81511  -0.77111  -0.68977
  Beta  occ. eigenvalues --   -0.63857  -0.51614  -0.50548  -0.47903  -0.43677
  Beta  occ. eigenvalues --   -0.42462  -0.40348  -0.38931  -0.37514  -0.34785
  Beta  occ. eigenvalues --   -0.33033  -0.30540  -0.29002  -0.27886  -0.27091
  Beta  occ. eigenvalues --   -0.26298  -0.24735  -0.23616  -0.22784  -0.21137
  Beta  occ. eigenvalues --   -0.19907  -0.18301
  Beta virt. eigenvalues --    0.07190   0.08150   0.08409   0.08812   0.09122
  Beta virt. eigenvalues --    0.09923   0.10540   0.10999   0.11739   0.12259
  Beta virt. eigenvalues --    0.12757   0.13275   0.13787   0.15345   0.16348

 Mulliken charges and spin densities:
               1          2
     1  C    0.194687  -0.611026
     2  C    1.211723  -1.629908
     3  C   -2.475603   2.849344
     4  C    3.312602  -3.997356
     5  C   -1.055197   1.060402
     6  O   -0.266417   0.029166
     7  O   -0.036476   0.097832
     8  C    1.191900  -1.391364
     9  C    0.079995   0.115133
    10  N   -0.325461   0.007135
    11  H    0.060147   0.080355
    12  H   -0.026666   0.197188
    13  H   -0.217021   0.358732
    14  H   -0.331115   0.468595
    15  H   -0.125769   0.344136
    16  H   -0.128416   0.304251
    17  H   -0.623431   0.831862
    18  H   -0.182371   0.394155
    19  H   -1.257113   1.491368
 Sum of Mulliken charges =  -1.00000   1.00000

 Dipole moment (field-independent basis, Debye):
    X=             -1.6925    Y=             -0.5836    Z=             -3.8978  Tot=              4.2892
 Quadrupole moment (field-independent basis, Debye-Ang):
   XX=           -117.2011   YY=            -94.6658   ZZ=            -98.4984
   XY=              3.0106   XZ=             -2.8925   YZ=             -3.6092

 Summary of Natural Population Analysis:

                                       Natural Population
                Natural  -----------------------------------------------
    Atom  No    Charge         Core      Valence    Rydberg      Total
 -----------------------------------------------------------------------
      C    1   -0.19779      0.99961     2.18873    0.00944     3.19779
      C    2   -0.19580      0.99962     2.18711    0.00907     3.19580
      C    3   -0.11346      0.99958     2.10370    0.01017     3.11346
      C    4   -0.23402      0.99956     2.22366    0.01080     3.23402
      C    5    0.41759      0.99967     1.55655    0.02618     2.58241
      O    6   -0.30064      0.99987     3.29513    0.00565     4.30064
      O    7   -0.27550      0.99987     3.26332    0.01231     4.27550
      C    8   -0.07009      0.99947     2.05619    0.01444     3.07009
      C    9    0.15168      0.99965     1.83360    0.01508     2.84832
      N   10   -0.17395      0.99979     2.66277    0.01139     3.67395
      H   11    0.10291      0.00000     0.39615    0.00094     0.39709
      H   12    0.10799      0.00000     0.39052    0.00150     0.39201
      H   13    0.10194      0.00000     0.39696    0.00109     0.39806
      H   14    0.10458      0.00000     0.39382    0.00161     0.39542
      H   15    0.10526      0.00000     0.39366    0.00108     0.39474
      H   16    0.11288      0.00000     0.38569    0.00143     0.38712
      H   17    0.11526      0.00000     0.38120    0.00354     0.38474
      H   18    0.11824      0.00000     0.37982    0.00194     0.38176
      H   19    0.12293      0.00000     0.36431    0.01276     0.37707
 =======================================================================
   * Total *    0.00000      9.99669    26.85289    0.15043    37.00000

 Normal termination of Gaussian 16 at Tue Dec  8 13:03:56 2020.
