 Gaussian 16, Revision A.03,

 -----------------------------------------------------------
 # opt freq B3LYP/6-31G(d) empiricaldispersion=gd3bj scf=xqc
 -----------------------------------------------------------

 -------------------------------
 CID_149282074_JID_8636_neutraal
 -------------------------------
 Symbolic Z-matrix:
 Charge =  0 Multiplicity = 1

 SCF Done:  E(RB3LYP) =  -928.142854241     A.U. after   15 cycles
 SCF Done:  E(RB3LYP) =  -928.153409927     A.U. after   13 cycles
 SCF Done:  E(RB3LYP) =  -928.154189621     A.U. after   13 cycles
 SCF Done:  E(RB3LYP) =  -928.154810219     A.U. after   13 cycles
 SCF Done:  E(RB3LYP) =  -928.155711154     A.U. after   12 cycles
 SCF Done:  E(RB3LYP) =  -928.156050805     A.U. after   13 cycles
 SCF Done:  E(RB3LYP) =  -928.156261507     A.U. after   13 cycles
 SCF Done:  E(RB3LYP) =  -928.156312604     A.U. after   12 cycles
 SCF Done:  E(RB3LYP) =  -928.156352922     A.U. after   12 cycles
 SCF Done:  E(RB3LYP) =  -928.156362653     A.U. after   10 cycles
 SCF Done:  E(RB3LYP) =  -928.156367720     A.U. after    7 cycles
 SCF Done:  E(RB3LYP) =  -928.156368010     A.U. after    8 cycles
 SCF Done:  E(RB3LYP) =  -928.156368128     A.U. after    7 cycles
 SCF Done:  E(RB3LYP) =  -928.156368242     A.U. after    7 cycles
 SCF Done:  E(RB3LYP) =  -928.156368327     A.U. after    7 cycles
 SCF Done:  E(RB3LYP) =  -928.156368379     A.U. after    7 cycles
 Optimization completed.
    -- Stationary point found.
 Normal termination of Gaussian 16 at Fri Dec 11 21:22:38 2020.

 --------------------------------------------------------------------
 #N Geom=AllCheck Guess=TCheck SCRF=Check GenChk RB3LYP/6-31G(d) Freq
 --------------------------------------------------------------------

 Structure from the checkpoint file:  "JID_8636.chk"
 -------------------------------
 CID_149282074_JID_8636_neutraal
 -------------------------------
 Charge =  0 Multiplicity = 1

 SCF Done:  E(RB3LYP) =  -928.156368379     A.U. after    1 cycles

  Exact polarizability: 195.803  -4.183 159.567   0.173   0.962  73.230
 Approx polarizability: 268.232 -17.746 292.060  -0.558   1.319 113.247

                      1                      2                      3
                      A                      A                      A
 Frequencies --     23.1528                50.1043                66.7114
 Red. masses --      6.7146                 4.0104                 7.9082
 Frc consts  --      0.0021                 0.0059                 0.0207
 IR Inten    --      1.5180                 0.1260                 4.2016

                      4                      5                      6
                      A                      A                      A
 Frequencies --    102.7132               112.2935               119.1752
 Red. masses --      3.6741                 4.2387                 1.5271
 Frc consts  --      0.0228                 0.0315                 0.0128
 IR Inten    --      0.7844                 0.8194                 2.1272

                      7                      8                      9
                      A                      A                      A
 Frequencies --    134.2948               142.5622               167.0312
 Red. masses --      2.1581                 1.1906                 3.7167
 Frc consts  --      0.0229                 0.0143                 0.0611
 IR Inten    --      5.9412                 0.3127                 1.0953

                     10                     11                     12
                      A                      A                      A
 Frequencies --    174.2206               229.3369               262.1052
 Red. masses --      3.3870                 5.1901                 4.7606
 Frc consts  --      0.0606                 0.1608                 0.1927
 IR Inten    --      2.0166                 2.8768                 3.7314

                     13                     14                     15
                      A                      A                      A
 Frequencies --    297.1076               307.4460               311.4844
 Red. masses --      4.4301                 5.2144                 4.3596
 Frc consts  --      0.2304                 0.2904                 0.2492
 IR Inten    --      2.8756                 4.7556                 1.5733

                     16                     17                     18
                      A                      A                      A
 Frequencies --    346.8380               367.6784               400.9150
 Red. masses --      4.1479                 6.4743                 6.4336
 Frc consts  --      0.2940                 0.5157                 0.6093
 IR Inten    --      8.1844                33.7558                12.0971

                     19                     20                     21
                      A                      A                      A
 Frequencies --    419.3671               434.9192               460.6227
 Red. masses --      9.0618                 9.8072                 5.6666
 Frc consts  --      0.9390                 1.0930                 0.7084
 IR Inten    --      1.8360                 0.8867                 9.3968

                     22                     23                     24
                      A                      A                      A
 Frequencies --    502.7343               526.4126               542.1276
 Red. masses --      3.2402                 9.6730                 6.2177
 Frc consts  --      0.4825                 1.5793                 1.0767
 IR Inten    --      4.8027                 2.4077                 0.7417

                     25                     26                     27
                      A                      A                      A
 Frequencies --    600.0192               646.8656               664.1383
 Red. masses --      4.5124                 1.1660                 5.0135
 Frc consts  --      0.9572                 0.2875                 1.3029
 IR Inten    --      3.7003                87.8366                23.9696

                     28                     29                     30
                      A                      A                      A
 Frequencies --    700.9381               708.3012               724.4789
 Red. masses --      8.2905                 7.0547                 4.9524
 Frc consts  --      2.3999                 2.0853                 1.5315
 IR Inten    --      1.6669                19.2419                10.3407

                     31                     32                     33
                      A                      A                      A
 Frequencies --    742.7796               759.5796               782.6700
 Red. masses --      7.8379                 4.2060                11.6644
 Frc consts  --      2.5478                 1.4298                 4.2099
 IR Inten    --     27.0548                16.7686                 7.6819

                     34                     35                     36
                      A                      A                      A
 Frequencies --    839.3380               904.0055               950.4212
 Red. masses --      5.0163                 2.4809                 3.4952
 Frc consts  --      2.0821                 1.1945                 1.8602
 IR Inten    --      9.5527                10.6980                21.2471

                     37                     38                     39
                      A                      A                      A
 Frequencies --    986.7670              1028.1724              1042.5755
 Red. masses --      2.4330                 3.9282                 6.1212
 Frc consts  --      1.3958                 2.4467                 3.9201
 IR Inten    --     25.2577                 3.8678                12.2676

                     40                     41                     42
                      A                      A                      A
 Frequencies --   1083.8428              1101.4784              1163.3474
 Red. masses --      2.1790                 3.6939                 1.7237
 Frc consts  --      1.5081                 2.6405                 1.3745
 IR Inten    --      5.0932                27.5127                96.6352

                     43                     44                     45
                      A                      A                      A
 Frequencies --   1169.8444              1186.2335              1206.1450
 Red. masses --      1.5737                 1.2749                 2.2629
 Frc consts  --      1.2689                 1.0570                 1.9396
 IR Inten    --     56.2320                 0.8652                32.2896

                     46                     47                     48
                      A                      A                      A
 Frequencies --   1213.5019              1229.9623              1242.4911
 Red. masses --      2.1144                 1.4061                 3.1066
 Frc consts  --      1.8345                 1.2533                 2.8256
 IR Inten    --     91.0777                 3.3117               500.0530

                     49                     50                     51
                      A                      A                      A
 Frequencies --   1275.5925              1311.8892              1343.1146
 Red. masses --      3.2051                 3.5799                 4.1104
 Frc consts  --      3.0727                 3.6301                 4.3688
 IR Inten    --    167.4304                39.0216                17.5312

                     52                     53                     54
                      A                      A                      A
 Frequencies --   1349.5847              1367.2073              1379.4455
 Red. masses --      2.1028                 1.9382                 1.5513
 Frc consts  --      2.2565                 2.1346                 1.7392
 IR Inten    --     70.0433                42.7722                 3.5988

                     55                     56                     57
                      A                      A                      A
 Frequencies --   1406.8622              1453.6944              1475.8515
 Red. masses --      2.9809                 1.4552                 2.0378
 Frc consts  --      3.4761                 1.8118                 2.6152
 IR Inten    --    115.8241                53.4557               168.6459

                     58                     59                     60
                      A                      A                      A
 Frequencies --   1488.9837              1494.3244              1503.2616
 Red. masses --      1.3390                 1.2347                 2.2463
 Frc consts  --      1.7491                 1.6244                 2.9908
 IR Inten    --    100.6936                16.2727               304.3498

                     61                     62                     63
                      A                      A                      A
 Frequencies --   1512.5586              1517.4827              1524.0090
 Red. masses --      1.0480                 1.0611                 1.0519
 Frc consts  --      1.4127                 1.4396                 1.4394
 IR Inten    --      5.9790                10.6185                 6.1216

                     64                     65                     66
                      A                      A                      A
 Frequencies --   1533.9020              1540.6600              1642.1685
 Red. masses --      1.1033                 1.1463                10.0896
 Frc consts  --      1.5294                 1.6031                16.0310
 IR Inten    --     61.1223                45.4052               269.1165

                     67                     68                     69
                      A                      A                      A
 Frequencies --   1675.9246              1735.9256              1807.5088
 Red. masses --      6.3697                11.3601                11.4045
 Frc consts  --     10.5409                20.1695                21.9527
 IR Inten    --    226.3056               325.0787               264.6389

                     70                     71                     72
                      A                      A                      A
 Frequencies --   1814.3451              3058.6069              3071.7075
 Red. masses --     11.7798                 1.0715                 1.0686
 Frc consts  --     22.8470                 5.9058                 5.9403
 IR Inten    --    290.1408                 3.8397                19.9767

                     73                     74                     75
                      A                      A                      A
 Frequencies --   3074.8895              3096.5130              3147.9706
 Red. masses --      1.0299                 1.0339                 1.1073
 Frc consts  --      5.7370                 5.8411                 6.4654
 IR Inten    --     37.5440                16.3736                21.4189

                     76                     77                     78
                      A                      A                      A
 Frequencies --   3151.0285              3166.3161              3167.8976
 Red. masses --      1.0952                 1.1046                 1.0956
 Frc consts  --      6.4068                 6.5245                 6.4783
 IR Inten    --      4.9478                 8.9205                 2.0248

                     79                     80                     81
                      A                      A                      A
 Frequencies --   3185.6984              3214.6283              3526.7383
 Red. masses --      1.1067                 1.1048                 1.0638
 Frc consts  --      6.6176                 6.7263                 7.7954
 IR Inten    --     15.9019                 0.8177               124.3972

 - Thermochemistry -
 -------------------
 Temperature   298.150 Kelvin.  Pressure   1.00000 Atm.
 Atom     1 has atomic number  6 and mass  12.00000

 Molecular mass:   253.06987 amu.
 Principal axes and moments of inertia in atomic units:
                           1         2         3
     Eigenvalues --  2323.670706360.934698563.53186
           X            0.99994   0.01112  -0.00090
           Y           -0.01112   0.99993   0.00396
           Z            0.00095  -0.00395   0.99999
 This molecule is an asymmetric top.
 Rotational symmetry number  1.
 Warning -- assumption of classical behavior for rotation
           may cause significant error
 Rotational temperatures (Kelvin)      0.03727     0.01362     0.01011
 Rotational constants (GHZ):           0.77668     0.28372     0.21075
 Zero-point vibrational energy     581358.4 (Joules/Mol)
                                  138.94800 (Kcal/Mol)
 Warning -- explicit consideration of  25 degrees of freedom as
           vibrations may cause significant error
 Vibrational temperatures:     33.31    72.09    95.98   147.78   161.57
          (Kelvin)            171.47   193.22   205.12   240.32   250.66
                              329.96   377.11   427.47   442.35   448.16
                              499.02   529.01   576.83   603.38   625.75
                              662.73   723.32   757.39   780.00   863.29
                              930.70   955.55  1008.49  1019.09  1042.36
                             1068.69  1092.87  1126.09  1207.62  1300.66
                             1367.44  1419.74  1479.31  1500.03  1559.41
                             1584.78  1673.80  1683.15  1706.73  1735.37
                             1745.96  1769.64  1787.67  1835.29  1887.52
                             1932.44  1941.75  1967.11  1984.71  2024.16
                             2091.54  2123.42  2142.32  2150.00  2162.86
                             2176.23  2183.32  2192.71  2206.94  2216.67
                             2362.71  2411.28  2497.61  2600.60  2610.44
                             4400.65  4419.50  4424.08  4455.19  4529.23
                             4533.63  4555.62  4557.90  4583.51  4625.13
                             5074.19

 Zero-point correction=                           0.221428 (Hartree/Particle)
 Thermal correction to Energy=                    0.237738
 Thermal correction to Enthalpy=                  0.238682
 Thermal correction to Gibbs Free Energy=         0.176550
 Sum of electronic and zero-point Energies=           -927.934941
 Sum of electronic and thermal Energies=              -927.918630
 Sum of electronic and thermal Enthalpies=            -927.917686
 Sum of electronic and thermal Free Energies=         -927.979819

                     E (Thermal)             CV                S
                      KCal/Mol        Cal/Mol-Kelvin    Cal/Mol-Kelvin
 Total                  149.183             60.002            130.769
 Electronic               0.000              0.000              0.000
 Translational            0.889              2.981             42.486
 Rotational               0.889              2.981             33.203
 Vibrational            147.406             54.040             55.080
 Vibration     1          0.593              1.985              6.344
 Vibration     2          0.595              1.978              4.813
 Vibration     3          0.598              1.970              4.248
 Vibration     4          0.605              1.947              3.402
 Vibration     5          0.607              1.939              3.229
 Vibration     6          0.609              1.933              3.114
 Vibration     7          0.613              1.919              2.884
 Vibration     8          0.616              1.911              2.769
 Vibration     9          0.624              1.883              2.469
 Vibration    10          0.627              1.874              2.389
 Vibration    11          0.652              1.796              1.884
 Vibration    12          0.669              1.742              1.648
 Vibration    13          0.691              1.679              1.433
 Vibration    14          0.697              1.660              1.376
 Vibration    15          0.700              1.652              1.354
 Vibration    16          0.725              1.582              1.181
 Vibration    17          0.740              1.539              1.089
 Vibration    18          0.767              1.468              0.959
 Vibration    19          0.782              1.428              0.894
 Vibration    20          0.796              1.394              0.843
 Vibration    21          0.818              1.337              0.764
 Vibration    22          0.858              1.244              0.651
 Vibration    23          0.881              1.192              0.595
 Vibration    24          0.897              1.157              0.561
 Vibration    25          0.958              1.032              0.450

                           ! Non-Optimized Parameters !
 Normal termination of Gaussian 16 at Fri Dec 11 21:32:52 2020.

 ----------------------------------------------------------------------
 # B3LYP/6-311++G(d,p) empiricaldispersion=gd3bj scf=xqc pop=npa geom=c
 heck
 ----------------------------------------------------------------------

 ---------------------------------------
 CID_149282074_JID_8636_Energie_neutraal
 ---------------------------------------
 Structure from the checkpoint file:  "JID_8636.chk"
 Charge =  0 Multiplicity = 1

 SCF Done:  E(RB3LYP) =  -928.426286468     A.U. after   15 cycles
 Normal termination of Gaussian 16 at Fri Dec 11 21:36:40 2020.

 ----------------------------------------------------------------------
 # B3LYP/6-311++G(d,p) empiricaldispersion=gd3bj scf=xqc pop=npa geom=c
 heck
 ----------------------------------------------------------------------

 -------------------------------------
 CID_149282074_JID_8636_Energie_kation
 -------------------------------------
 Structure from the checkpoint file:  "JID_8636.chk"
 Charge =  1 Multiplicity = 2

 SCF Done:  E(UB3LYP) =  -928.122366480     A.U. after   24 cycles
 Normal termination of Gaussian 16 at Fri Dec 11 21:45:05 2020.
 Gaussian 16:  ES64L-G16RevA.03 25-Dec-2016

 ----------------------------------------------------------------------
 # B3LYP/6-311++G(d,p) empiricaldispersion=gd3bj scf=xqc pop=npa geom=c
 heck
 ----------------------------------------------------------------------

 ------------------------------------
 CID_149282074_JID_8636_Energie_anion
 ------------------------------------
 Structure from the checkpoint file:  "JID_8636.chk"
 Charge = -1 Multiplicity = 2

                         Standard orientation:
 ---------------------------------------------------------------------
 Center     Atomic      Atomic             Coordinates (Angstroms)
 Number     Number       Type             X           Y           Z
 ---------------------------------------------------------------------
      1          6           0        1.892412   -2.589374   -0.345685
      2          7           0        2.095704   -1.149829   -0.139837
      3          6           0        3.371415   -0.690309    0.190723
      4          8           0        4.339214   -1.427831    0.218226
      5          6           0        3.447907    0.785796    0.532877
      6          6           0        2.462051    1.600410   -0.287544
      7          7           0        1.123400    1.019550   -0.133800
      8          6           0        0.948146   -0.351840   -0.088917
      9          7           0       -0.209138   -0.922898   -0.030625
     10          6           0       -1.349769   -0.155440   -0.004729
     11          6           0       -1.280200    1.217031   -0.011154
     12          6           0        0.026428    1.866856   -0.093495
     13          8           0        0.125601    3.097640   -0.137021
     14          8           0       -2.306092    2.081170    0.023178
     15          6           0       -2.611708   -0.959898    0.029986
     16          8           0       -2.640381   -2.169835   -0.029020
     17          8           0       -3.706447   -0.183347    0.132418
     18          6           0       -4.951184   -0.895653    0.162730
     19          1           0        1.287177   -2.745654   -1.239420
     20          1           0        1.365598   -3.023640    0.506993
     21          1           0        2.877783   -3.036726   -0.455029
     22          1           0        3.233925    0.902273    1.603446
     23          1           0        4.474642    1.113911    0.360934
     24          1           0        2.397572    2.638726    0.036507
     25          1           0        2.730007    1.589878   -1.350917
     26          1           0       -1.877244    2.965944   -0.016730
     27          1           0       -5.080846   -1.479876   -0.752210
     28          1           0       -4.985089   -1.571579    1.021358
     29          1           0       -5.721433   -0.128861    0.243916
 ---------------------------------------------------------------------

 SCF Done:  E(UB3LYP) =  -928.452011064     A.U. after   24 cycles

 The electronic state is 2-A.
 Alpha  occ. eigenvalues --  -19.02212 -19.00502 -18.99267 -18.95365 -18.94658
 Alpha  occ. eigenvalues --  -14.25288 -14.23464 -14.16983 -10.17309 -10.14864
 Alpha  occ. eigenvalues --  -10.13525 -10.12353 -10.10979 -10.10672 -10.09000
 Alpha  occ. eigenvalues --  -10.08890 -10.07594 -10.05220  -0.96304  -0.94987
 Alpha  occ. eigenvalues --   -0.93641  -0.90548  -0.87739  -0.86741  -0.81365
 Alpha  occ. eigenvalues --   -0.78320  -0.68436  -0.64160  -0.61342  -0.60311
 Alpha  occ. eigenvalues --   -0.56048  -0.53289  -0.51333  -0.47237  -0.43497
 Alpha  occ. eigenvalues --   -0.43262  -0.41394  -0.40161  -0.37692  -0.37175
 Alpha  occ. eigenvalues --   -0.35740  -0.35558  -0.34906  -0.34047  -0.33513
 Alpha  occ. eigenvalues --   -0.32027  -0.31057  -0.30441  -0.29919  -0.28858
 Alpha  occ. eigenvalues --   -0.28741  -0.27867  -0.26946  -0.26506  -0.24893
 Alpha  occ. eigenvalues --   -0.24395  -0.22894  -0.21154  -0.17524  -0.16754
 Alpha  occ. eigenvalues --   -0.16419  -0.15340  -0.14808  -0.14356  -0.12583
 Alpha  occ. eigenvalues --   -0.08173   0.03422
 Alpha virt. eigenvalues --    0.07899   0.08389   0.09137   0.09530   0.10078
 Alpha virt. eigenvalues --    0.11054   0.11749   0.12145   0.12311   0.12941
 Alpha virt. eigenvalues --    0.13479   0.13650   0.14922   0.15280   0.15784

  Beta  occ. eigenvalues --  -19.02138 -19.00379 -18.99201 -18.95131 -18.94385
  Beta  occ. eigenvalues --  -14.25326 -14.23178 -14.17077 -10.17234 -10.14748
  Beta  occ. eigenvalues --  -10.13399 -10.12164 -10.10995 -10.10676 -10.08997
  Beta  occ. eigenvalues --  -10.08887 -10.07282 -10.04980  -0.96075  -0.94851
  Beta  occ. eigenvalues --   -0.93269  -0.90234  -0.87469  -0.86332  -0.81150
  Beta  occ. eigenvalues --   -0.78155  -0.68322  -0.63694  -0.61286  -0.60057
  Beta  occ. eigenvalues --   -0.55843  -0.53015  -0.50883  -0.46968  -0.43255
  Beta  occ. eigenvalues --   -0.43116  -0.41241  -0.39874  -0.37487  -0.36997
  Beta  occ. eigenvalues --   -0.35629  -0.35241  -0.34806  -0.33866  -0.32958
  Beta  occ. eigenvalues --   -0.31760  -0.30935  -0.30174  -0.29620  -0.28672
  Beta  occ. eigenvalues --   -0.28382  -0.27717  -0.26454  -0.25524  -0.24413
  Beta  occ. eigenvalues --   -0.24201  -0.21891  -0.20970  -0.17084  -0.16528
  Beta  occ. eigenvalues --   -0.15767  -0.14539  -0.14405  -0.14032  -0.12272
  Beta  occ. eigenvalues --   -0.06489
  Beta virt. eigenvalues --    0.07824   0.08384   0.08941   0.09481   0.10129
  Beta virt. eigenvalues --    0.10449   0.11160   0.11781   0.12120   0.12319
  Beta virt. eigenvalues --    0.12941   0.13481   0.13669   0.14949   0.15571

 Mulliken charges and spin densities:
               1          2
     1  C   -0.238611  -0.003427
     2  N    0.011857  -0.013774
     3  C    0.191134   0.018782
     4  O   -0.371938   0.024387
     5  C   -0.307308  -0.019967
     6  C   -0.144214  -0.029768
     7  N   -0.047760   0.086924
     8  C   -0.318715   0.089446
     9  N   -0.158143  -0.060142
    10  C   -0.400424   0.193453
    11  C   -0.127946   0.206319
    12  C   -0.018486   0.127389
    13  O   -0.470529   0.080556
    14  O   -0.299695   0.037040
    15  C    0.480945   0.053443
    16  O   -0.345448   0.093179
    17  O   -0.108349   0.009941
    18  C   -0.227263   0.000191
    19  H    0.180013   0.003118
    20  H    0.199951  -0.000688
    21  H    0.166752  -0.001331
    22  H    0.182488  -0.002337
    23  H    0.137448   0.048053
    24  H    0.200223  -0.001989
    25  H    0.112894   0.060491
    26  H    0.275986  -0.001946
    27  H    0.158698   0.001526
    28  H    0.155341   0.001390
    29  H    0.131096  -0.000260
 Sum of Mulliken charges =  -1.00000   1.00000

 Dipole moment (field-independent basis, Debye):
    X=              1.4037    Y=              0.6017    Z=              0.0969  Tot=              1.5303
 Quadrupole moment (field-independent basis, Debye-Ang):
   XX=           -144.9696   YY=           -137.1406   ZZ=           -106.6647
   XY=              5.5642   XZ=             -0.7194   YZ=              1.8203

 Summary of Natural Population Analysis:

                                       Natural Population
                Natural  -----------------------------------------------
    Atom  No    Charge         Core      Valence    Rydberg      Total
 -----------------------------------------------------------------------
      C    1   -0.17890      0.99965     2.17218    0.00706     3.17890
      N    2   -0.25487      0.99961     2.74627    0.00899     3.75487
      C    3    0.35676      0.99967     1.62069    0.02288     2.64324
      O    4   -0.31582      0.99987     3.31004    0.00591     4.31582
      C    5   -0.23473      0.99959     2.22785    0.00728     3.23473
      C    6   -0.08888      0.99964     2.07935    0.00989     3.08888
      N    7   -0.20529      0.99959     2.69535    0.01034     3.70529
      C    8    0.32301      0.99958     1.66445    0.01297     2.67699
      N    9   -0.26639      0.99964     2.75789    0.00886     3.76639
      C   10    0.04342      0.99944     1.94390    0.01325     2.95658
      C   11    0.18125      0.99938     1.80702    0.01236     2.81875
      C   12    0.33141      0.99962     1.64942    0.01955     2.66859
      O   13   -0.33811      0.99988     3.33128    0.00695     4.33811
      O   14   -0.32467      0.99987     3.31728    0.00752     4.32467
      C   15    0.40462      0.99967     1.57136    0.02434     2.59538
      O   16   -0.29318      0.99987     3.28659    0.00672     4.29318
      O   17   -0.27022      0.99986     3.26158    0.00878     4.27022
      C   18   -0.10637      0.99961     2.09798    0.00877     3.10637
      H   19    0.10323      0.00000     0.39578    0.00099     0.39677
      H   20    0.10252      0.00000     0.39641    0.00106     0.39748
      H   21    0.10595      0.00000     0.39304    0.00101     0.39405
      H   22    0.11049      0.00000     0.38852    0.00099     0.38951
      H   23    0.10946      0.00000     0.38854    0.00199     0.39054
      H   24    0.11735      0.00000     0.38152    0.00113     0.38265
      H   25    0.09373      0.00000     0.40446    0.00181     0.40627
      H   26    0.23910      0.00000     0.25771    0.00319     0.26090
      H   27    0.08591      0.00000     0.41277    0.00132     0.41409
      H   28    0.08586      0.00000     0.41282    0.00132     0.41414
      H   29    0.08336      0.00000     0.41577    0.00087     0.41664
 =======================================================================
   * Total *    0.00000     17.99404    47.78784    0.21812    66.00000

 Normal termination of Gaussian 16 at Fri Dec 11 21:53:27 2020.
