 Gaussian 16, Revision A.03,

 -----------------------------------------------------------
 # opt freq B3LYP/6-31G(d) empiricaldispersion=gd3bj scf=xqc
 -----------------------------------------------------------

 ------------------------------
 CID_85814280_JID_4317_neutraal
 ------------------------------
 Symbolic Z-matrix:
 Charge =  0 Multiplicity = 1

 SCF Done:  E(RB3LYP) =  -983.408041087     A.U. after   16 cycles
 SCF Done:  E(RB3LYP) =  -983.412426184     A.U. after   15 cycles
 SCF Done:  E(RB3LYP) =  -983.413832860     A.U. after   14 cycles
 SCF Done:  E(RB3LYP) =  -983.414331105     A.U. after   13 cycles
 SCF Done:  E(RB3LYP) =  -983.414537229     A.U. after   13 cycles
 SCF Done:  E(RB3LYP) =  -983.414609835     A.U. after   12 cycles
 SCF Done:  E(RB3LYP) =  -983.414651284     A.U. after   11 cycles
 SCF Done:  E(RB3LYP) =  -983.414669241     A.U. after   12 cycles
 SCF Done:  E(RB3LYP) =  -983.414684660     A.U. after   12 cycles
 SCF Done:  E(RB3LYP) =  -983.414691477     A.U. after   11 cycles
 SCF Done:  E(RB3LYP) =  -983.414720748     A.U. after   12 cycles
 SCF Done:  E(RB3LYP) =  -983.414722900     A.U. after   10 cycles
 SCF Done:  E(RB3LYP) =  -983.414723208     A.U. after   10 cycles
 SCF Done:  E(RB3LYP) =  -983.414723227     A.U. after    8 cycles
 SCF Done:  E(RB3LYP) =  -983.414723221     A.U. after    8 cycles
 Optimization completed.
    -- Stationary point found.
 Normal termination of Gaussian 16 at Thu Dec 10 09:28:07 2020.

 --------------------------------------------------------------------
 #N Geom=AllCheck Guess=TCheck SCRF=Check GenChk RB3LYP/6-31G(d) Freq
 --------------------------------------------------------------------

 Structure from the checkpoint file:  "JID_4317.chk"
 ------------------------------
 CID_85814280_JID_4317_neutraal
 ------------------------------
 Charge =  0 Multiplicity = 1

 SCF Done:  E(RB3LYP) =  -983.414723221     A.U. after    1 cycles

  Exact polarizability: 172.694   0.158 134.096  -0.743  -1.718  88.039
 Approx polarizability: 257.840 -17.222 212.110 -10.916  -4.431 159.299

                      1                      2                      3
                      A                      A                      A
 Frequencies --     17.3704                56.5832                74.6437
 Red. masses --      8.2665                 7.3607                 4.6139
 Frc consts  --      0.0015                 0.0139                 0.0151
 IR Inten    --      0.1603                 0.6856                 0.3052

                      4                      5                      6
                      A                      A                      A
 Frequencies --    111.7932               158.7850               173.7579
 Red. masses --      3.9728                 4.0709                 4.4449
 Frc consts  --      0.0293                 0.0605                 0.0791
 IR Inten    --      1.3516                 0.8007                 5.7560

                      7                      8                      9
                      A                      A                      A
 Frequencies --    230.5105               246.4465               280.3780
 Red. masses --      3.5708                 3.2953                 3.1787
 Frc consts  --      0.1118                 0.1179                 0.1472
 IR Inten    --      4.3817                 1.3076                 2.6633

                     10                     11                     12
                      A                      A                      A
 Frequencies --    295.2565               301.5863               346.5714
 Red. masses --      2.2814                 1.5421                 2.6117
 Frc consts  --      0.1172                 0.0826                 0.1848
 IR Inten    --     27.6028                23.1518                 2.0059

                     13                     14                     15
                      A                      A                      A
 Frequencies --    368.3360               420.8001               441.3751
 Red. masses --      4.2533                 4.5005                 3.0727
 Frc consts  --      0.3400                 0.4695                 0.3527
 IR Inten    --      3.4167                 2.0056                 2.4924

                     16                     17                     18
                      A                      A                      A
 Frequencies --    521.6338               543.8526               572.0573
 Red. masses --      4.4862                 2.4686                 8.9399
 Frc consts  --      0.7192                 0.4302                 1.7237
 IR Inten    --     24.1749               118.3740                24.4996

                     19                     20                     21
                      A                      A                      A
 Frequencies --    579.3332               627.3865               652.3565
 Red. masses --      3.0256                 4.0495                 4.1605
 Frc consts  --      0.5983                 0.9391                 1.0432
 IR Inten    --     11.9981                57.5627               146.6597

                     22                     23                     24
                      A                      A                      A
 Frequencies --    663.2209               668.1058               718.0843
 Red. masses --      4.5333                 4.3613                 4.8058
 Frc consts  --      1.1749                 1.1470                 1.4601
 IR Inten    --     17.8778                34.7037                18.6020

                     25                     26                     27
                      A                      A                      A
 Frequencies --    737.7435               833.4840               877.1327
 Red. masses --      3.2366                 2.7564                 1.4466
 Frc consts  --      1.0379                 1.1282                 0.6557
 IR Inten    --     10.6689                 1.7288                 4.8685

                     28                     29                     30
                      A                      A                      A
 Frequencies --    890.0484               925.3040               961.8335
 Red. masses --      2.8423                 2.3060                 6.3342
 Frc consts  --      1.3266                 1.1632                 3.4526
 IR Inten    --     14.5434                 3.8202                17.2602

                     31                     32                     33
                      A                      A                      A
 Frequencies --    999.5655              1027.5382              1049.7222
 Red. masses --      1.6094                 2.3898                 2.9766
 Frc consts  --      0.9474                 1.4866                 1.9325
 IR Inten    --      1.4861                 3.1568                16.0403

                     34                     35                     36
                      A                      A                      A
 Frequencies --   1105.9130              1128.3905              1131.6384
 Red. masses --      2.1039                 1.8033                 1.8382
 Frc consts  --      1.5161                 1.3528                 1.3869
 IR Inten    --      7.8905                11.2587                 7.9498

                     37                     38                     39
                      A                      A                      A
 Frequencies --   1183.1729              1197.2610              1223.3788
 Red. masses --      1.6916                 1.5744                 1.7019
 Frc consts  --      1.3952                 1.3297                 1.5007
 IR Inten    --      0.8120                 1.7259                 2.5186

                     40                     41                     42
                      A                      A                      A
 Frequencies --   1255.9661              1277.6177              1308.3471
 Red. masses --      1.2797                 1.4600                 1.3435
 Frc consts  --      1.1894                 1.4042                 1.3550
 IR Inten    --     10.3759                12.1307                21.3254

                     43                     44                     45
                      A                      A                      A
 Frequencies --   1332.9592              1344.3753              1350.7043
 Red. masses --      2.8405                 2.8512                 2.5727
 Frc consts  --      2.9735                 3.0361                 2.7654
 IR Inten    --     67.8352               149.3639                47.9803

                     46                     47                     48
                      A                      A                      A
 Frequencies --   1385.1990              1387.4955              1392.6716
 Red. masses --      1.4333                 1.6700                 1.5722
 Frc consts  --      1.6204                 1.8942                 1.7966
 IR Inten    --      8.4515                10.6202                21.4701

                     49                     50                     51
                      A                      A                      A
 Frequencies --   1409.8060              1413.0081              1510.8669
 Red. masses --      1.3992                 2.0546                 1.1038
 Frc consts  --      1.6386                 2.4169                 1.4846
 IR Inten    --     16.1921                16.2266                 3.7967

                     52                     53                     54
                      A                      A                      A
 Frequencies --   1516.5477              1523.9393              1531.3281
 Red. masses --      1.0908                 1.0832                 1.0949
 Frc consts  --      1.4781                 1.4822                 1.5128
 IR Inten    --      5.8622                23.6960                 4.0410

                     55                     56                     57
                      A                      A                      A
 Frequencies --   1596.9054              1628.3094              1675.4245
 Red. masses --      3.4954                 7.7614                 1.4068
 Frc consts  --      5.2518                12.1246                 2.3267
 IR Inten    --    151.9917                 6.2582               188.7037

                     58                     59                     60
                      A                      A                      A
 Frequencies --   2264.5475              3018.9504              3034.3319
 Red. masses --     13.4958                 1.0684                 1.0633
 Frc consts  --     40.7767                 5.7372                 5.7682
 IR Inten    --    644.4428                35.4891                16.8855

                     61                     62                     63
                      A                      A                      A
 Frequencies --   3045.7852              3048.2461              3057.5651
 Red. masses --      1.0677                 1.0697                 1.0741
 Frc consts  --      5.8360                 5.8559                 5.9161
 IR Inten    --      6.2593                13.2207                34.6131

                     64                     65                     66
                      A                      A                      A
 Frequencies --   3067.7731              3089.9628              3094.2538
 Red. masses --      1.0901                 1.1044                 1.1015
 Frc consts  --      6.0443                 6.2125                 6.2136
 IR Inten    --     39.0637                42.1257                38.2584

                     67                     68                     69
                      A                      A                      A
 Frequencies --   3105.1608              3552.0026              3659.7093
 Red. masses --      1.0995                 1.0471                 1.0994
 Frc consts  --      6.2463                 7.7835                 8.6756
 IR Inten    --     31.5264                36.2778                24.3009

 - Thermochemistry -
 -------------------
 Temperature   298.150 Kelvin.  Pressure   1.00000 Atm.
 Atom     1 has atomic number  6 and mass  12.00000

 Molecular mass:   209.07352 amu.
 Principal axes and moments of inertia in atomic units:
                           1         2         3
     Eigenvalues --  1696.353725118.468706361.54334
           X            0.99981   0.01907   0.00349
           Y           -0.01908   0.99982   0.00180
           Z           -0.00346  -0.00187   0.99999
 This molecule is an asymmetric top.
 Rotational symmetry number  1.
 Warning -- assumption of classical behavior for rotation
           may cause significant error
 Rotational temperatures (Kelvin)      0.05106     0.01692     0.01362
 Rotational constants (GHZ):           1.06389     0.35259     0.28370
 Zero-point vibrational energy     521704.1 (Joules/Mol)
                                  124.69027 (Kcal/Mol)
 Warning -- explicit consideration of  19 degrees of freedom as
           vibrations may cause significant error
 Vibrational temperatures:     24.99    81.41   107.40   160.85   228.46
          (Kelvin)            250.00   331.65   354.58   403.40   424.81
                              433.92   498.64   529.95   605.44   635.04
                              750.51   782.48   823.06   833.53   902.67
                              938.60   954.23   961.26  1033.16  1061.45
                             1199.20  1262.00  1280.58  1331.31  1383.86
                             1438.15  1478.40  1510.32  1591.16  1623.50
                             1628.18  1702.32  1722.59  1760.17  1807.06
                             1838.21  1882.42  1917.83  1934.26  1943.36
                             1992.99  1996.30  2003.74  2028.40  2033.00
                             2173.80  2181.97  2192.61  2203.24  2297.59
                             2342.77  2410.56  3258.18  4343.60  4365.73
                             4382.21  4385.75  4399.15  4413.84  4445.77
                             4451.94  4467.63  5110.54  5265.51

 Zero-point correction=                           0.198707 (Hartree/Particle)
 Thermal correction to Energy=                    0.211668
 Thermal correction to Enthalpy=                  0.212612
 Thermal correction to Gibbs Free Energy=         0.157616
 Sum of electronic and zero-point Energies=           -983.216017
 Sum of electronic and thermal Energies=              -983.203056
 Sum of electronic and thermal Enthalpies=            -983.202111
 Sum of electronic and thermal Free Energies=         -983.257107

                     E (Thermal)             CV                S
                      KCal/Mol        Cal/Mol-Kelvin    Cal/Mol-Kelvin
 Total                  132.823             48.712            115.748
 Electronic               0.000              0.000              0.000
 Translational            0.889              2.981             41.916
 Rotational               0.889              2.981             32.380
 Vibrational            131.046             42.751             41.452
 Vibration     1          0.593              1.986              6.914
 Vibration     2          0.596              1.975              4.573
 Vibration     3          0.599              1.966              4.027
 Vibration     4          0.607              1.940              3.238
 Vibration     5          0.621              1.893              2.564
 Vibration     6          0.627              1.875              2.394
 Vibration     7          0.652              1.794              1.875
 Vibration     8          0.661              1.769              1.756
 Vibration     9          0.680              1.710              1.531
 Vibration    10          0.689              1.683              1.444
 Vibration    11          0.694              1.671              1.408
 Vibration    12          0.725              1.582              1.182
 Vibration    13          0.741              1.537              1.087
 Vibration    14          0.783              1.425              0.889
 Vibration    15          0.801              1.380              0.822
 Vibration    16          0.877              1.202              0.606
 Vibration    17          0.899              1.153              0.557
 Vibration    18          0.928              1.092              0.500
 Vibration    19          0.936              1.076              0.487

 Optimization completed.
    -- Stationary point found.
 Normal termination of Gaussian 16 at Thu Dec 10 09:35:23 2020.

 ----------------------------------------------------------------------
 # B3LYP/6-311++G(d,p) empiricaldispersion=gd3bj scf=xqc pop=npa geom=c
 heck
 ----------------------------------------------------------------------

 --------------------------------------
 CID_85814280_JID_4317_Energie_neutraal
 --------------------------------------
 Structure from the checkpoint file:  "JID_4317.chk"
 Charge =  0 Multiplicity = 1

 SCF Done:  E(RB3LYP) =  -983.603829683     A.U. after   16 cycles
 Normal termination of Gaussian 16 at Thu Dec 10 09:38:57 2020.

 ----------------------------------------------------------------------
 # B3LYP/6-311++G(d,p) empiricaldispersion=gd3bj scf=xqc pop=npa geom=c
 heck
 ----------------------------------------------------------------------

 ------------------------------------
 CID_85814280_JID_4317_Energie_kation
 ------------------------------------
 Structure from the checkpoint file:  "JID_4317.chk"
 Charge =  1 Multiplicity = 2

 SCF Done:  E(UB3LYP) =  -983.320484509     A.U. after   24 cycles
 Normal termination of Gaussian 16 at Thu Dec 10 09:46:43 2020.
 Gaussian 16:  ES64L-G16RevA.03 25-Dec-2016

 ----------------------------------------------------------------------
 # B3LYP/6-311++G(d,p) empiricaldispersion=gd3bj scf=xqc pop=npa geom=c
 heck
 ----------------------------------------------------------------------

 -----------------------------------
 CID_85814280_JID_4317_Energie_anion
 -----------------------------------
 Structure from the checkpoint file:  "JID_4317.chk"
 Charge = -1 Multiplicity = 2

                         Standard orientation:
 ---------------------------------------------------------------------
 Center     Atomic      Atomic             Coordinates (Angstroms)
 Number     Number       Type             X           Y           Z
 ---------------------------------------------------------------------
      1          6           0        0.579799    2.440226   -0.288554
      2          6           0        1.145650    1.665612    0.909902
      3          6           0        0.827615    0.158682    0.840990
      4          6           0       -0.597130   -0.060869    0.407200
      5          6           0       -1.373745    0.927791   -0.117584
      6          6           0       -0.955793    2.349711   -0.343165
      7         16           0       -2.966732    0.278913   -0.495565
      8          6           0       -2.395748   -1.302080    0.070509
      9          7           0       -1.168564   -1.322196    0.499289
     10          7           0       -3.248457   -2.384112    0.114624
     11          6           0        1.767052   -0.609188   -0.097730
     12          7           0        3.143231   -0.545663    0.452629
     13          7           0        4.035405   -0.936515   -0.302579
     14          7           0        4.943550   -1.267765   -0.913401
     15          1           0        0.885466    3.491139   -0.236242
     16          1           0        0.994591    2.037265   -1.221488
     17          1           0        2.230013    1.799265    0.979304
     18          1           0        0.713312    2.073471    1.832567
     19          1           0        0.957669   -0.280268    1.838455
     20          1           0       -1.396423    3.003212    0.424300
     21          1           0       -1.322474    2.718759   -1.309053
     22          1           0       -3.935913   -2.444388   -0.625511
     23          1           0       -2.756625   -3.255824    0.275151
     24          1           0        1.437134   -1.652491   -0.164389
     25          1           0        1.738620   -0.178290   -1.107402
 ---------------------------------------------------------------------

 SCF Done:  E(UB3LYP) =  -983.596830087     A.U. after   33 cycles
 SCF Done:  E(UB3LYP) =  -983.596830087     a.u. after    1 cycles

 The electronic state is 2-A.
 Alpha  occ. eigenvalues --  -88.76890 -14.34664 -14.24877 -14.23801 -14.22217
 Alpha  occ. eigenvalues --  -14.19385 -10.16088 -10.10470 -10.09593 -10.09055
 Alpha  occ. eigenvalues --  -10.09021 -10.08307 -10.08240 -10.07444  -7.85538
 Alpha  occ. eigenvalues --   -5.81835  -5.81499  -5.81070  -1.01489  -0.87173
 Alpha  occ. eigenvalues --   -0.85807  -0.79777  -0.73860  -0.70183  -0.66348
 Alpha  occ. eigenvalues --   -0.62095  -0.60314  -0.52533  -0.50615  -0.47905
 Alpha  occ. eigenvalues --   -0.44137  -0.42997  -0.40532  -0.39473  -0.38893
 Alpha  occ. eigenvalues --   -0.37985  -0.36724  -0.36101  -0.33826  -0.33258
 Alpha  occ. eigenvalues --   -0.32147  -0.31346  -0.29809  -0.28427  -0.27986
 Alpha  occ. eigenvalues --   -0.27488  -0.24200  -0.23408  -0.22435  -0.20503
 Alpha  occ. eigenvalues --   -0.19031  -0.17325  -0.16855  -0.13813  -0.10451
 Alpha  occ. eigenvalues --    0.04505
 Alpha virt. eigenvalues --    0.06034   0.06498   0.08094   0.08624   0.09188
 Alpha virt. eigenvalues --    0.09419   0.09970   0.10928   0.11155   0.11711
 Alpha virt. eigenvalues --    0.12084   0.12728   0.12818   0.13020   0.14330

  Beta  occ. eigenvalues --  -88.76882 -14.34421 -14.24557 -14.23848 -14.22124
  Beta  occ. eigenvalues --  -14.19378 -10.16046 -10.10391 -10.09591 -10.09047
  Beta  occ. eigenvalues --  -10.08973 -10.08306 -10.08233 -10.07439  -7.85527
  Beta  occ. eigenvalues --   -5.81829  -5.81492  -5.81057  -1.01024  -0.87115
  Beta  occ. eigenvalues --   -0.85583  -0.79675  -0.73819  -0.70114  -0.66290
  Beta  occ. eigenvalues --   -0.62028  -0.60189  -0.52467  -0.50533  -0.47788
  Beta  occ. eigenvalues --   -0.44044  -0.42893  -0.40376  -0.39116  -0.38434
  Beta  occ. eigenvalues --   -0.37734  -0.36537  -0.36007  -0.33704  -0.32689
  Beta  occ. eigenvalues --   -0.32011  -0.31163  -0.29741  -0.28363  -0.27877
  Beta  occ. eigenvalues --   -0.27443  -0.24121  -0.23386  -0.22403  -0.20381
  Beta  occ. eigenvalues --   -0.18466  -0.17271  -0.16806  -0.13730  -0.10275
  Beta virt. eigenvalues --    0.06297   0.07914   0.08222   0.08313   0.08781
  Beta virt. eigenvalues --    0.09496   0.10028   0.10398   0.11017   0.11123
  Beta virt. eigenvalues --    0.11767   0.12411   0.12660   0.13019   0.13725

 Mulliken charges and spin densities:
               1          2
     1  C   -0.339275   0.091725
     2  C   -0.329615  -0.229902
     3  C    0.106137   0.361312
     4  C   -2.527407   0.071667
     5  C    2.380369  -0.353308
     6  C    0.643375  -0.879983
     7  S   -0.670878   0.125107
     8  C    0.870604  -0.441581
     9  N    0.182162  -0.136416
    10  N   -0.465223   0.201348
    11  C   -0.502903  -0.394362
    12  N   -0.649658   0.246070
    13  N    0.727508   0.001113
    14  N   -0.219471   0.052154
    15  H    0.101236   0.056293
    16  H    0.090302   0.026569
    17  H    0.116854   0.080063
    18  H    0.088060   0.029710
    19  H    0.141829   0.110165
    20  H    0.139043   0.011463
    21  H   -0.065658   0.216525
    22  H   -0.796594   1.073288
    23  H   -0.222934   0.489146
    24  H    0.105937   0.118023
    25  H    0.096200   0.073810
 Sum of Mulliken charges =  -1.00000   1.00000

 Dipole moment (field-independent basis, Debye):
    X=              2.3825    Y=              8.0250    Z=              2.0479  Tot=              8.6181
 Quadrupole moment (field-independent basis, Debye-Ang):
   XX=           -183.5493   YY=           -130.1399   ZZ=           -111.1939
   XY=            -16.5654   XZ=             -4.9082   YZ=             -3.8596

 Summary of Natural Population Analysis:

                                       Natural Population
                Natural  -----------------------------------------------
    Atom  No    Charge         Core      Valence    Rydberg      Total
 -----------------------------------------------------------------------
      C    1   -0.18508      0.99963     2.17802    0.00743     3.18508
      C    2   -0.18839      0.99962     2.18087    0.00789     3.18839
      C    3   -0.12208      0.99954     2.11041    0.01212     3.12208
      C    4    0.06612      0.99937     1.91835    0.01616     2.93388
      C    5   -0.11012      0.99937     2.09868    0.01207     3.11012
      C    6   -0.19925      0.99958     2.19133    0.00833     3.19925
      S    7    0.16104      4.99942     2.82070    0.01885     7.83896
      C    8    0.14819      0.99961     1.83107    0.02113     2.85181
      N    9   -0.27914      0.99962     2.76772    0.01181     3.77914
      N   10   -0.39709      0.99969     2.88515    0.01226     3.89709
      C   11   -0.08187      0.99956     2.07234    0.00996     3.08187
      N   12   -0.20900      0.99969     2.69561    0.01369     3.70900
      N   13    0.13595      0.99971     2.34897    0.01537     3.36405
      N   14   -0.02883      0.99982     2.51474    0.01427     3.52883
      H   15    0.09591      0.00000     0.40300    0.00109     0.40409
      H   16    0.09618      0.00000     0.40240    0.00142     0.40382
      H   17    0.10784      0.00000     0.39087    0.00129     0.39216
      H   18    0.09484      0.00000     0.40402    0.00114     0.40516
      H   19    0.10939      0.00000     0.38870    0.00191     0.39061
      H   20    0.09702      0.00000     0.40153    0.00145     0.40298
      H   21    0.10314      0.00000     0.39542    0.00144     0.39686
      H   22    0.19886      0.00000     0.27473    0.02641     0.30114
      H   23    0.19683      0.00000     0.29802    0.00514     0.30317
      H   24    0.10196      0.00000     0.39630    0.00174     0.39804
      H   25    0.08756      0.00000     0.41076    0.00168     0.41244
 =======================================================================
   * Total *   -0.00000     17.99424    36.77970    0.22605    55.00000

 Normal termination of Gaussian 16 at Thu Dec 10 09:57:25 2020.
