 Gaussian 16, Revision A.03,

 -----------------------------------------------------------
 # opt freq B3LYP/6-31G(d) empiricaldispersion=gd3bj scf=xqc
 -----------------------------------------------------------

 -------------------------------
 CID_134968186_JID_8467_neutraal
 -------------------------------
 Symbolic Z-matrix:
 Charge =  0 Multiplicity = 1

 SCF Done:  E(RB3LYP) =  -731.450591836     A.U. after   16 cycles
 SCF Done:  E(RB3LYP) =  -731.459768382     A.U. after   15 cycles
 SCF Done:  E(RB3LYP) =  -731.465205166     A.U. after   14 cycles
 SCF Done:  E(RB3LYP) =  -731.466715860     A.U. after   15 cycles
 SCF Done:  E(RB3LYP) =  -731.466907517     A.U. after   14 cycles
 SCF Done:  E(RB3LYP) =  -731.466927104     A.U. after   12 cycles
 SCF Done:  E(RB3LYP) =  -731.466931307     A.U. after    9 cycles
 SCF Done:  E(RB3LYP) =  -731.466935769     A.U. after   11 cycles
 SCF Done:  E(RB3LYP) =  -731.466936179     A.U. after   10 cycles
 SCF Done:  E(RB3LYP) =  -731.466938984     A.U. after    9 cycles
 SCF Done:  E(RB3LYP) =  -731.467859759     A.U. after   13 cycles
 SCF Done:  E(RB3LYP) =  -731.467861573     A.U. after   10 cycles
 SCF Done:  E(RB3LYP) =  -731.467862363     A.U. after    9 cycles
 SCF Done:  E(RB3LYP) =  -731.467862606     A.U. after    8 cycles
 SCF Done:  E(RB3LYP) =  -731.467862679     A.U. after    8 cycles
 Optimization completed.
    -- Stationary point found.
 Normal termination of Gaussian 16 at Mon Dec 14 13:39:37 2020.

 --------------------------------------------------------------------
 #N Geom=AllCheck Guess=TCheck SCRF=Check GenChk RB3LYP/6-31G(d) Freq
 --------------------------------------------------------------------

 Structure from the checkpoint file:  "JID_8467.chk"
 -------------------------------
 CID_134968186_JID_8467_neutraal
 -------------------------------
 Charge =  0 Multiplicity = 1

 SCF Done:  E(RB3LYP) =  -731.467862679     A.U. after    1 cycles

  Exact polarizability: 316.204 -23.603 231.659  18.829   7.433  80.794
 Approx polarizability: 713.329 -86.049 513.842  51.965  18.469 135.526

                      1                      2                      3
                      A                      A                      A
 Frequencies --     53.0339                68.5071                95.2791
 Red. masses --      5.3678                 5.3153                 4.8025
 Frc consts  --      0.0089                 0.0147                 0.0257
 IR Inten    --      0.7489                 2.0399                 2.0010

                      4                      5                      6
                      A                      A                      A
 Frequencies --    126.4338               211.1501               239.7825
 Red. masses --      5.1970                 2.7468                 3.8311
 Frc consts  --      0.0489                 0.0722                 0.1298
 IR Inten    --      0.1890                 7.8802                 4.4253

                      7                      8                      9
                      A                      A                      A
 Frequencies --    251.0391               273.5846               298.8599
 Red. masses --      3.7405                 1.8823                 1.7841
 Frc consts  --      0.1389                 0.0830                 0.0939
 IR Inten    --      3.8856                17.6821                57.8172

                     10                     11                     12
                      A                      A                      A
 Frequencies --    334.1629               377.1291               385.5456
 Red. masses --      4.3701                 7.1684                 4.2259
 Frc consts  --      0.2875                 0.6007                 0.3701
 IR Inten    --      8.0969                 1.4641                 6.0598

                     13                     14                     15
                      A                      A                      A
 Frequencies --    423.1256               436.3554               446.8984
 Red. masses --      3.3645                 3.6298                 3.8690
 Frc consts  --      0.3549                 0.4072                 0.4553
 IR Inten    --      2.5502                 2.5435                 0.3110

                     16                     17                     18
                      A                      A                      A
 Frequencies --    482.2726               512.5316               520.0259
 Red. masses --      4.2916                 3.8275                 5.0481
 Frc consts  --      0.5881                 0.5924                 0.8043
 IR Inten    --      2.1712                 3.8813                 7.6253

                     19                     20                     21
                      A                      A                      A
 Frequencies --    535.5984               548.5547               575.7360
 Red. masses --      4.2689                 3.6514                 4.4975
 Frc consts  --      0.7215                 0.6474                 0.8784
 IR Inten    --      2.9604                 1.0372                 1.5288

                     22                     23                     24
                      A                      A                      A
 Frequencies --    586.6963               655.2279               696.2227
 Red. masses --      3.2552                 4.6728                 6.0581
 Frc consts  --      0.6602                 1.1820                 1.7302
 IR Inten    --      0.8507                 2.8366                 2.3408

                     25                     26                     27
                      A                      A                      A
 Frequencies --    716.5757               734.2919               756.8958
 Red. masses --      3.9184                 4.2181                 2.9660
 Frc consts  --      1.1855                 1.3400                 1.0011
 IR Inten    --     14.3813                 2.3516                 4.9503

                     28                     29                     30
                      A                      A                      A
 Frequencies --    771.5923               778.2189               800.9181
 Red. masses --      1.4023                 3.2703                 1.4150
 Frc consts  --      0.4919                 1.1669                 0.5348
 IR Inten    --     13.1738                 6.5872                 0.1572

                     31                     32                     33
                      A                      A                      A
 Frequencies --    835.1564               858.1255               877.0590
 Red. masses --      1.6655                 2.7572                 1.7901
 Frc consts  --      0.6844                 1.1962                 0.8113
 IR Inten    --      4.0324                 8.6601                71.5896

                     34                     35                     36
                      A                      A                      A
 Frequencies --    898.6515               902.2922               921.2006
 Red. masses --      1.9469                 3.8422                 3.1997
 Frc consts  --      0.9263                 1.8430                 1.5998
 IR Inten    --      5.0061                18.7358                 4.7913

                     37                     38                     39
                      A                      A                      A
 Frequencies --    945.9743               948.2575               961.1034
 Red. masses --      1.3630                 1.3573                 1.3807
 Frc consts  --      0.7186                 0.7191                 0.7514
 IR Inten    --      0.7250                 0.9751                 0.8556

                     40                     41                     42
                      A                      A                      A
 Frequencies --    970.1992               980.9658              1019.2186
 Red. masses --      1.3472                 1.8808                 4.1515
 Frc consts  --      0.7472                 1.0663                 2.5409
 IR Inten    --      1.6590                15.4001                57.4059

                     43                     44                     45
                      A                      A                      A
 Frequencies --   1036.7781              1048.3944              1067.7714
 Red. masses --      2.8384                 3.0337                 3.4230
 Frc consts  --      1.7976                 1.9646                 2.2994
 IR Inten    --     29.2069                 9.4465                26.7977

                     46                     47                     48
                      A                      A                      A
 Frequencies --   1100.8729              1147.1731              1157.7701
 Red. masses --      2.0425                 2.2835                 2.0565
 Frc consts  --      1.4585                 1.7706                 1.6241
 IR Inten    --      0.6492                 1.9121                 3.4068

                     49                     50                     51
                      A                      A                      A
 Frequencies --   1164.0959              1183.4767              1216.8678
 Red. masses --      1.5144                 1.4688                 1.2174
 Frc consts  --      1.2092                 1.2121                 1.0621
 IR Inten    --      1.7829                 4.0042                48.8674

                     52                     53                     54
                      A                      A                      A
 Frequencies --   1247.6856              1277.1877              1286.4016
 Red. masses --      1.9004                 1.4086                 1.5129
 Frc consts  --      1.7430                 1.3538                 1.4751
 IR Inten    --      5.6121                 0.4155                 1.3887

                     55                     56                     57
                      A                      A                      A
 Frequencies --   1288.3537              1292.7587              1298.2599
 Red. masses --      1.3434                 1.2047                 1.6165
 Frc consts  --      1.3138                 1.1862                 1.6053
 IR Inten    --      0.2155                 1.9929                 7.0347

                     58                     59                     60
                      A                      A                      A
 Frequencies --   1304.4910              1325.7783              1345.8317
 Red. masses --      1.4161                 1.7570                 1.3390
 Frc consts  --      1.4197                 1.8196                 1.4289
 IR Inten    --      3.7322                 0.8099                13.1118

                     61                     62                     63
                      A                      A                      A
 Frequencies --   1363.9063              1378.5532              1392.6933
 Red. masses --      1.3176                 1.8627                 2.4268
 Frc consts  --      1.4442                 2.0857                 2.7733
 IR Inten    --      6.9503                 4.9230                18.3423

                     64                     65                     66
                      A                      A                      A
 Frequencies --   1407.9977              1417.1210              1443.4406
 Red. masses --      2.4109                 2.6586                 1.2672
 Frc consts  --      2.8160                 3.1457                 1.5556
 IR Inten    --     16.3008                 0.7100               113.8153

                     67                     68                     69
                      A                      A                      A
 Frequencies --   1468.5026              1498.0277              1528.4447
 Red. masses --      2.7899                 2.8238                 3.1371
 Frc consts  --      3.5447                 3.7336                 4.3179
 IR Inten    --      0.3339                 5.3470                 1.7651

                     70                     71                     72
                      A                      A                      A
 Frequencies --   1550.8421              1562.7626              1575.5127
 Red. masses --      1.1135                 4.2229                 4.7633
 Frc consts  --      1.5779                 6.0764                 6.9663
 IR Inten    --      0.6087                 0.5243                 0.3016

                     73                     74                     75
                      A                      A                      A
 Frequencies --   1604.4477              1616.8715              1618.6890
 Red. masses --      4.5089                 5.9005                 5.3069
 Frc consts  --      6.8386                 9.0885                 8.1926
 IR Inten    --      0.5943                 5.6060                 0.5641

                     76                     77                     78
                      A                      A                      A
 Frequencies --   1662.6103              2960.0680              2996.1624
 Red. masses --      5.4488                 1.0835                 1.0816
 Frc consts  --      8.8743                 5.5937                 5.7208
 IR Inten    --      6.2785                 2.4978                14.3047

                     79                     80                     81
                      A                      A                      A
 Frequencies --   3010.3286              3106.8848              3170.4417
 Red. masses --      1.0716                 1.0926                 1.0861
 Frc consts  --      5.7218                 6.2137                 6.4322
 IR Inten    --     74.3310                32.7098                 4.9682

                     82                     83                     84
                      A                      A                      A
 Frequencies --   3172.2602              3175.9247              3176.3864
 Red. masses --      1.0866                 1.0861                 1.0868
 Frc consts  --      6.4425                 6.4545                 6.4605
 IR Inten    --      4.9109                 5.4587                 6.1026

                     85                     86                     87
                      A                      A                      A
 Frequencies --   3181.1109              3188.1088              3192.4523
 Red. masses --      1.0896                 1.0932                 1.0919
 Frc consts  --      6.4966                 6.5465                 6.5564
 IR Inten    --     13.8671                40.0454                32.4369

                     88                     89                     90
                      A                      A                      A
 Frequencies --   3194.4436              3204.4432              3743.5447
 Red. masses --      1.0931                 1.0948                 1.0661
 Frc consts  --      6.5720                 6.6235                 8.8024
 IR Inten    --     33.9863                40.4569                 6.0340

 - Thermochemistry -
 -------------------
 Temperature   298.150 Kelvin.  Pressure   1.00000 Atm.
 Atom     1 has atomic number  6 and mass  12.00000

 Molecular mass:   234.10447 amu.
 Principal axes and moments of inertia in atomic units:
                           1         2         3
     Eigenvalues --  2344.587055049.489006979.15761
           X            0.99999  -0.00017   0.00520
           Y            0.00014   0.99999   0.00442
           Z           -0.00520  -0.00442   0.99998
 This molecule is an asymmetric top.
 Rotational symmetry number  1.
 Warning -- assumption of classical behavior for rotation
           may cause significant error
 Rotational temperatures (Kelvin)      0.03694     0.01715     0.01241
 Rotational constants (GHZ):           0.76975     0.35741     0.25859
 Zero-point vibrational energy     688830.0 (Joules/Mol)
                                  164.63432 (Kcal/Mol)
 Warning -- explicit consideration of  22 degrees of freedom as
           vibrations may cause significant error
 Vibrational temperatures:     76.30    98.57   137.09   181.91   303.80
          (Kelvin)            344.99   361.19   393.63   429.99   480.79
                              542.60   554.71   608.78   627.82   642.99
                              693.88   737.42   748.20   770.61   789.25
                              828.36   844.13   942.73  1001.71  1030.99
                             1056.48  1089.00  1110.15  1119.68  1152.34
                             1201.60  1234.65  1261.89  1292.96  1298.20
                             1325.40  1361.05  1364.33  1382.81  1395.90
                             1411.39  1466.43  1491.69  1508.41  1536.28
                             1583.91  1650.53  1665.77  1674.87  1702.76
                             1750.80  1795.14  1837.59  1850.84  1853.65
                             1859.99  1867.91  1876.87  1907.50  1936.35
                             1962.36  1983.43  2003.78  2025.79  2038.92
                             2076.79  2112.85  2155.33  2199.09  2231.32
                             2248.47  2266.81  2308.44  2326.32  2328.93
                             2392.13  4258.88  4310.81  4331.19  4470.11
                             4561.56  4564.17  4569.45  4570.11  4576.91
                             4586.98  4593.23  4596.09  4610.48  5386.13

 Zero-point correction=                           0.262361 (Hartree/Particle)
 Thermal correction to Energy=                    0.275697
 Thermal correction to Enthalpy=                  0.276641
 Thermal correction to Gibbs Free Energy=         0.222690
 Sum of electronic and zero-point Energies=           -731.205501
 Sum of electronic and thermal Energies=              -731.192166
 Sum of electronic and thermal Enthalpies=            -731.191222
 Sum of electronic and thermal Free Energies=         -731.245172

                     E (Thermal)             CV                S
                      KCal/Mol        Cal/Mol-Kelvin    Cal/Mol-Kelvin
 Total                  173.002             56.188            113.549
 Electronic               0.000              0.000              0.000
 Translational            0.889              2.981             42.253
 Rotational               0.889              2.981             32.780
 Vibrational            171.225             50.227             38.516
 Vibration     1          0.596              1.976              4.701
 Vibration     2          0.598              1.969              4.196
 Vibration     3          0.603              1.953              3.549
 Vibration     4          0.611              1.927              3.000
 Vibration     5          0.643              1.824              2.034
 Vibration     6          0.657              1.780              1.804
 Vibration     7          0.663              1.761              1.723
 Vibration     8          0.676              1.722              1.573
 Vibration     9          0.692              1.676              1.423
 Vibration    10          0.716              1.607              1.240
 Vibration    11          0.748              1.519              1.051
 Vibration    12          0.754              1.501              1.017
 Vibration    13          0.785              1.420              0.881
 Vibration    14          0.797              1.391              0.838
 Vibration    15          0.806              1.368              0.805
 Vibration    16          0.839              1.289              0.704
 Vibration    17          0.868              1.222              0.628
 Vibration    18          0.875              1.206              0.610
 Vibration    19          0.891              1.171              0.575
 Vibration    20          0.904              1.143              0.547
 Vibration    21          0.932              1.084              0.493
 Vibration    22          0.944              1.060              0.473

 Optimization completed.
    -- Stationary point found.
 Normal termination of Gaussian 16 at Mon Dec 14 13:53:53 2020.

 ----------------------------------------------------------------------
 # B3LYP/6-311++G(d,p) empiricaldispersion=gd3bj scf=xqc pop=npa geom=c
 heck
 ----------------------------------------------------------------------

 ---------------------------------------
 CID_134968186_JID_8467_Energie_neutraal
 ---------------------------------------
 Structure from the checkpoint file:  "JID_8467.chk"
 Charge =  0 Multiplicity = 1

 SCF Done:  E(RB3LYP) =  -731.661307208     A.U. after   16 cycles
 Normal termination of Gaussian 16 at Mon Dec 14 14:00:58 2020.

 ----------------------------------------------------------------------
 # B3LYP/6-311++G(d,p) empiricaldispersion=gd3bj scf=xqc pop=npa geom=c
 heck
 ----------------------------------------------------------------------

 -------------------------------------
 CID_134968186_JID_8467_Energie_kation
 -------------------------------------
 Structure from the checkpoint file:  "JID_8467.chk"
 Charge =  1 Multiplicity = 2

 SCF Done:  E(UB3LYP) =  -731.409016552     A.U. after   25 cycles
 Normal termination of Gaussian 16 at Mon Dec 14 14:16:28 2020.
 Gaussian 16:  ES64L-G16RevA.03 25-Dec-2016

 ----------------------------------------------------------------------
 # B3LYP/6-311++G(d,p) empiricaldispersion=gd3bj scf=xqc pop=npa geom=c
 heck
 ----------------------------------------------------------------------

 ------------------------------------
 CID_134968186_JID_8467_Energie_anion
 ------------------------------------
 Structure from the checkpoint file:  "JID_8467.chk"
 Charge = -1 Multiplicity = 2

                         Standard orientation:
 ---------------------------------------------------------------------
 Center     Atomic      Atomic             Coordinates (Angstroms)
 Number     Number       Type             X           Y           Z
 ---------------------------------------------------------------------
      1          6           0        3.791633   -1.159285    0.367433
      2          6           0        3.604854    0.227580    0.405617
      3          6           0        2.379848    0.806245    0.077459
      4          6           0        2.096989    2.152573    0.310583
      5          6           0        0.808627    2.672564    0.215208
      6          6           0       -0.295792    1.887639   -0.118913
      7          6           0       -1.606697    2.337883    0.018048
      8          6           0       -2.690890    1.468723   -0.121718
      9          6           0       -2.529776    0.083860   -0.265570
     10          6           0       -1.239063   -0.460416   -0.404959
     11          6           0       -0.103494    0.507175   -0.729263
     12          6           0        1.357886   -0.079269   -0.624237
     13          6           0        1.455028   -1.539231   -0.206501
     14          6           0        2.720570   -2.024248    0.131908
     15          6           0        0.321980   -2.345920   -0.236464
     16          6           0       -0.971885   -1.828232   -0.333051
     17          6           0       -3.732053   -0.817392   -0.098176
     18          8           0       -3.881671   -1.303426    1.238605
     19          1           0        4.755692   -1.572363    0.650219
     20          1           0        4.403300    0.866141    0.776380
     21          1           0        2.903538    2.794830    0.656983
     22          1           0        0.634755    3.710864    0.488440
     23          1           0       -1.781590    3.369035    0.315907
     24          1           0       -3.696921    1.857194    0.014331
     25          1           0       -0.257104    0.697221   -1.802592
     26          1           0        1.731559   -0.100575   -1.659408
     27          1           0        2.846169   -3.092436    0.292996
     28          1           0        0.449066   -3.417659   -0.100889
     29          1           0       -1.803421   -2.525126   -0.273712
     30          1           0       -4.646897   -0.257193   -0.311154
     31          1           0       -3.688289   -1.652950   -0.812697
     32          1           0       -3.003076   -1.591076    1.531937
 ---------------------------------------------------------------------

 SCF Done:  E(UB3LYP) =  -731.686471400     A.U. after   33 cycles
 SCF Done:  E(UB3LYP) =  -731.686471400     a.u. after    2 cycles

 The electronic state is 2-A.
 Alpha  occ. eigenvalues --  -19.00377 -10.09657 -10.06005 -10.05942 -10.04529
 Alpha  occ. eigenvalues --  -10.04381 -10.04379 -10.04209 -10.04134 -10.04098
 Alpha  occ. eigenvalues --  -10.03172 -10.03052 -10.02971 -10.02856 -10.02841
 Alpha  occ. eigenvalues --  -10.02587 -10.02485 -10.02427  -0.90328  -0.74620
 Alpha  occ. eigenvalues --   -0.71187  -0.68955  -0.65813  -0.63705  -0.61391
 Alpha  occ. eigenvalues --   -0.59926  -0.58396  -0.54423  -0.50158  -0.49150
 Alpha  occ. eigenvalues --   -0.48636  -0.45358  -0.41721  -0.39481  -0.38361
 Alpha  occ. eigenvalues --   -0.37772  -0.36859  -0.36049  -0.33679  -0.32152
 Alpha  occ. eigenvalues --   -0.31648  -0.30397  -0.29962  -0.29581  -0.28192
 Alpha  occ. eigenvalues --   -0.27509  -0.26423  -0.25382  -0.24638  -0.23587
 Alpha  occ. eigenvalues --   -0.23178  -0.22540  -0.21134  -0.19572  -0.19409
 Alpha  occ. eigenvalues --   -0.18358  -0.18191  -0.16086  -0.15599  -0.13414
 Alpha  occ. eigenvalues --   -0.06855  -0.05595   0.02750
 Alpha virt. eigenvalues --    0.05967   0.08516   0.08968   0.09231   0.10120
 Alpha virt. eigenvalues --    0.10330   0.11077   0.11603   0.11982   0.12098
 Alpha virt. eigenvalues --    0.13212   0.13550   0.14332   0.14389   0.15695

  Beta  occ. eigenvalues --  -19.00336 -10.09673 -10.06008 -10.05941 -10.04504
  Beta  occ. eigenvalues --  -10.04444 -10.04403 -10.04252 -10.04208 -10.04202
  Beta  occ. eigenvalues --  -10.03064 -10.02908 -10.02684 -10.02680 -10.02621
  Beta  occ. eigenvalues --  -10.02304 -10.02162 -10.02147  -0.90240  -0.74426
  Beta  occ. eigenvalues --   -0.70911  -0.68587  -0.65495  -0.63323  -0.61147
  Beta  occ. eigenvalues --   -0.59764  -0.58028  -0.54194  -0.49876  -0.49153
  Beta  occ. eigenvalues --   -0.48087  -0.45121  -0.41511  -0.39356  -0.38254
  Beta  occ. eigenvalues --   -0.37608  -0.36706  -0.35896  -0.33513  -0.31967
  Beta  occ. eigenvalues --   -0.31531  -0.30256  -0.29839  -0.29466  -0.28066
  Beta  occ. eigenvalues --   -0.27419  -0.26276  -0.25211  -0.24420  -0.23445
  Beta  occ. eigenvalues --   -0.22985  -0.22298  -0.20517  -0.19205  -0.18822
  Beta  occ. eigenvalues --   -0.18115  -0.17584  -0.15868  -0.14678  -0.12436
  Beta  occ. eigenvalues --   -0.05004  -0.04747
  Beta virt. eigenvalues --    0.05847   0.07745   0.08509   0.08980   0.09251
  Beta virt. eigenvalues --    0.10091   0.10328   0.11090   0.11626   0.11959
  Beta virt. eigenvalues --    0.12152   0.13488   0.13820   0.14348   0.14362

 Mulliken charges and spin densities:
               1          2
     1  C   -0.395268  -0.047500
     2  C   -0.176530   0.248699
     3  C   -0.279993  -0.053028
     4  C   -0.283658   0.073205
     5  C   -0.085987   0.106799
     6  C   -0.057189  -0.028603
     7  C   -0.307437   0.224570
     8  C   -0.613944  -0.075782
     9  C    0.642983   0.244746
    10  C   -0.045433  -0.028383
    11  C   -0.000784  -0.027257
    12  C    0.609924   0.005023
    13  C    0.010085  -0.073899
    14  C   -0.388653   0.268049
    15  C   -0.384592   0.176274
    16  C   -0.016657   0.068398
    17  C   -0.821981  -0.039468
    18  O   -0.218727   0.005369
    19  H    0.117222   0.005912
    20  H    0.096505  -0.011769
    21  H    0.103298  -0.008158
    22  H    0.109106  -0.010076
    23  H    0.097772  -0.013068
    24  H    0.095955   0.005728
    25  H    0.208084  -0.002228
    26  H    0.188520  -0.004489
    27  H    0.092407  -0.015345
    28  H    0.107625  -0.012092
    29  H    0.121246  -0.001590
    30  H    0.140230   0.003622
    31  H    0.113243   0.016343
    32  H    0.222627  -0.000004
 Sum of Mulliken charges =  -1.00000   1.00000

 Dipole moment (field-independent basis, Debye):
    X=              0.2574    Y=              0.0818    Z=             -0.9552  Tot=              0.9926
 Quadrupole moment (field-independent basis, Debye-Ang):
   XX=           -152.1040   YY=           -125.2257   ZZ=           -118.2712
   XY=             -1.2028   XZ=              5.7161   YZ=              0.9687

 Summary of Natural Population Analysis:

                                       Natural Population
                Natural  -----------------------------------------------
    Atom  No    Charge         Core      Valence    Rydberg      Total
 -----------------------------------------------------------------------
      C    1   -0.14091      0.99958     2.13083    0.01050     3.14091
      C    2   -0.05332      0.99952     2.04437    0.00943     3.05332
      C    3   -0.00873      0.99950     2.00069    0.00854     3.00873
      C    4   -0.08026      0.99952     2.07135    0.00939     3.08026
      C    5   -0.08071      0.99952     2.07156    0.00963     3.08071
      C    6   -0.00951      0.99951     2.00127    0.00873     3.00951
      C    7   -0.05691      0.99952     2.04797    0.00942     3.05691
      C    8   -0.12635      0.99955     2.11625    0.01055     3.12635
      C    9    0.01052      0.99937     1.98163    0.00848     2.98948
      C   10   -0.00203      0.99950     1.99340    0.00913     3.00203
      C   11   -0.11400      0.99947     2.10378    0.01075     3.11400
      C   12   -0.11934      0.99953     2.10942    0.01040     3.11934
      C   13   -0.02133      0.99950     2.01332    0.00851     3.02133
      C   14   -0.04516      0.99952     2.03624    0.00941     3.04516
      C   15   -0.06611      0.99953     2.05667    0.00991     3.06611
      C   16   -0.10334      0.99945     2.09313    0.01076     3.10334
      C   17   -0.01917      0.99957     2.00626    0.01335     3.01917
      O   18   -0.37298      0.99990     3.36627    0.00681     4.37298
      H   19    0.09075      0.00000     0.40817    0.00107     0.40925
      H   20    0.08754      0.00000     0.41077    0.00169     0.41246
      H   21    0.08858      0.00000     0.40971    0.00171     0.41142
      H   22    0.09187      0.00000     0.40727    0.00086     0.40813
      H   23    0.08761      0.00000     0.41036    0.00203     0.41239
      H   24    0.09131      0.00000     0.40757    0.00112     0.40869
      H   25    0.10877      0.00000     0.38935    0.00189     0.39123
      H   26    0.10776      0.00000     0.39053    0.00171     0.39224
      H   27    0.08711      0.00000     0.41118    0.00171     0.41289
      H   28    0.08783      0.00000     0.41046    0.00172     0.41217
      H   29    0.09387      0.00000     0.40551    0.00062     0.40613
      H   30    0.08245      0.00000     0.41611    0.00144     0.41755
      H   31    0.07438      0.00000     0.42380    0.00182     0.42562
      H   32    0.22991      0.00000     0.26734    0.00274     0.27009
 =======================================================================
   * Total *    0.00008     17.99157    43.81252    0.19584    61.99992

 Normal termination of Gaussian 16 at Mon Dec 14 14:51:01 2020.
