 Gaussian 16, Revision A.03,

 -----------------------------------------------------------
 # opt freq B3LYP/6-31G(d) empiricaldispersion=gd3bj scf=xqc
 -----------------------------------------------------------

 ------------------------------
 CID_60657287_JID_7835_neutraal
 ------------------------------
 Symbolic Z-matrix:
 Charge =  0 Multiplicity = 1

 SCF Done:  E(RB3LYP) =  -768.588653032     A.U. after   13 cycles
 SCF Done:  E(RB3LYP) =  -768.593760196     A.U. after   11 cycles
 SCF Done:  E(RB3LYP) =  -768.594395720     A.U. after   11 cycles
 SCF Done:  E(RB3LYP) =  -768.594840592     A.U. after   11 cycles
 SCF Done:  E(RB3LYP) =  -768.595108178     A.U. after   11 cycles
 SCF Done:  E(RB3LYP) =  -768.595478365     A.U. after   12 cycles
 SCF Done:  E(RB3LYP) =  -768.595722411     A.U. after   14 cycles
 SCF Done:  E(RB3LYP) =  -768.595787632     A.U. after   12 cycles
 SCF Done:  E(RB3LYP) =  -768.596061519     A.U. after   12 cycles
 SCF Done:  E(RB3LYP) =  -768.596122468     A.U. after   10 cycles
 SCF Done:  E(RB3LYP) =  -768.596575700     A.U. after   10 cycles
 SCF Done:  E(RB3LYP) =  -768.596576332     A.U. after   10 cycles
 SCF Done:  E(RB3LYP) =  -768.596576680     A.U. after    7 cycles
 SCF Done:  E(RB3LYP) =  -768.596576840     A.U. after    8 cycles
 SCF Done:  E(RB3LYP) =  -768.596576888     A.U. after    7 cycles
 Optimization completed.
    -- Stationary point found.
 Normal termination of Gaussian 16 at Fri Dec 11 13:29:05 2020.

 --------------------------------------------------------------------
 #N Geom=AllCheck Guess=TCheck SCRF=Check GenChk RB3LYP/6-31G(d) Freq
 --------------------------------------------------------------------

 Structure from the checkpoint file:  "JID_7835.chk"
 ------------------------------
 CID_60657287_JID_7835_neutraal
 ------------------------------
 Charge =  0 Multiplicity = 1

 SCF Done:  E(RB3LYP) =  -768.596576888     A.U. after    1 cycles

  Exact polarizability: 224.269   7.851 142.419  -5.623  15.369 120.491
 Approx polarizability: 280.865  13.801 206.575 -13.779  38.215 197.668

                      1                      2                      3
                      A                      A                      A
 Frequencies --     16.5248                19.1135                30.4491
 Red. masses --      3.7624                 4.3671                 3.1944
 Frc consts  --      0.0006                 0.0009                 0.0017
 IR Inten    --      0.5834                 0.4139                 4.7263

                      4                      5                      6
                      A                      A                      A
 Frequencies --     48.8647                58.9019                71.9371
 Red. masses --      3.8539                 3.5183                 3.2895
 Frc consts  --      0.0054                 0.0072                 0.0100
 IR Inten    --      1.5079                 1.8777                 1.5892

                      7                      8                      9
                      A                      A                      A
 Frequencies --     88.9657               104.5870               142.4470
 Red. masses --      2.5540                 3.7882                 2.6016
 Frc consts  --      0.0119                 0.0244                 0.0311
 IR Inten    --      5.6623                 1.4772                 0.3589

                     10                     11                     12
                      A                      A                      A
 Frequencies --    175.0967               182.7125               190.8726
 Red. masses --      1.8828                 1.3218                 2.6610
 Frc consts  --      0.0340                 0.0260                 0.0571
 IR Inten    --      0.2499                 0.9898                 1.0069

                     13                     14                     15
                      A                      A                      A
 Frequencies --    214.7538               238.7547               249.1456
 Red. masses --      3.3790                 3.5010                 1.4968
 Frc consts  --      0.0918                 0.1176                 0.0547
 IR Inten    --      5.5790                 2.4757                 3.9060

                     16                     17                     18
                      A                      A                      A
 Frequencies --    312.7959               319.0027               333.9831
 Red. masses --      2.2885                 2.8175                 3.0885
 Frc consts  --      0.1319                 0.1689                 0.2030
 IR Inten    --      1.3383                 0.8712                 2.5031

                     19                     20                     21
                      A                      A                      A
 Frequencies --    379.2043               395.1214               413.6650
 Red. masses --      2.7524                 4.2408                 2.0343
 Frc consts  --      0.2332                 0.3901                 0.2051
 IR Inten    --     10.3659                 2.3710                55.3557

                     22                     23                     24
                      A                      A                      A
 Frequencies --    421.6321               441.4422               459.7041
 Red. masses --      2.5237                 1.8631                 2.1124
 Frc consts  --      0.2643                 0.2139                 0.2630
 IR Inten    --     21.2719                64.3027                76.6653

                     25                     26                     27
                      A                      A                      A
 Frequencies --    516.0261               541.3073               572.3869
 Red. masses --      2.1019                 3.1245                 2.6026
 Frc consts  --      0.3298                 0.5394                 0.5024
 IR Inten    --      0.8490                 4.9168                 9.2529

                     28                     29                     30
                      A                      A                      A
 Frequencies --    574.2629               656.2861               707.9787
 Red. masses --      2.7634                 6.7875                 3.4542
 Frc consts  --      0.5369                 1.7225                 1.0201
 IR Inten    --      5.7573                 0.4569                 0.3875

                     31                     32                     33
                      A                      A                      A
 Frequencies --    742.6214               790.3027               822.3063
 Red. masses --      3.8624                 1.3771                 1.7190
 Frc consts  --      1.2550                 0.5068                 0.6848
 IR Inten    --      5.9507                96.0093                18.4921

                     34                     35                     36
                      A                      A                      A
 Frequencies --    842.3801               855.5616               865.7002
 Red. masses --      1.8260                 1.8395                 1.9699
 Frc consts  --      0.7634                 0.7933                 0.8698
 IR Inten    --      1.6866                15.6628                28.6755

                     37                     38                     39
                      A                      A                      A
 Frequencies --    887.7830               904.7638               916.4079
 Red. masses --      2.6134                 2.2065                 2.1252
 Frc consts  --      1.2136                 1.0642                 1.0516
 IR Inten    --     24.1312                 1.1010                 4.1316

                     40                     41                     42
                      A                      A                      A
 Frequencies --    943.6357               978.7799              1000.3103
 Red. masses --      1.3030                 1.3001                 1.9016
 Frc consts  --      0.6836                 0.7338                 1.1211
 IR Inten    --      3.6587                 1.8954                 6.2987

                     43                     44                     45
                      A                      A                      A
 Frequencies --   1023.1766              1029.0991              1038.9940
 Red. masses --      2.9537                 2.2773                 2.5553
 Frc consts  --      1.8219                 1.4210                 1.6252
 IR Inten    --     21.8778                 8.2214                 7.1777

                     46                     47                     48
                      A                      A                      A
 Frequencies --   1080.5298              1090.4183              1095.9171
 Red. masses --      2.0404                 3.5412                 2.1181
 Frc consts  --      1.4036                 2.4808                 1.4989
 IR Inten    --     60.7565                79.5185                 2.3564

                     49                     50                     51
                      A                      A                      A
 Frequencies --   1144.1044              1149.7932              1151.2460
 Red. masses --      2.0399                 1.4312                 1.5170
 Frc consts  --      1.5732                 1.1148                 1.1846
 IR Inten    --      8.9619                 8.3490                78.2851

                     52                     53                     54
                      A                      A                      A
 Frequencies --   1164.6217              1168.4070              1179.2192
 Red. masses --      1.8252                 2.7863                 3.6837
 Frc consts  --      1.4586                 2.2411                 3.0181
 IR Inten    --     15.6529                74.3927                79.0102

                     55                     56                     57
                      A                      A                      A
 Frequencies --   1197.6145              1205.0024              1219.4030
 Red. masses --      1.4291                 2.3615                 1.2239
 Frc consts  --      1.2076                 2.0203                 1.0722
 IR Inten    --      1.5146                47.2081                 4.3218

                     58                     59                     60
                      A                      A                      A
 Frequencies --   1221.8701              1240.0775              1248.0275
 Red. masses --      1.3464                 1.2107                 2.4314
 Frc consts  --      1.1844                 1.0969                 2.2313
 IR Inten    --     32.1374                12.0953                 0.7995

                     61                     62                     63
                      A                      A                      A
 Frequencies --   1261.0951              1277.1063              1293.1620
 Red. masses --      1.3567                 1.2116                 1.4855
 Frc consts  --      1.2712                 1.1643                 1.4636
 IR Inten    --      8.2888                11.5831                11.4843

                     64                     65                     66
                      A                      A                      A
 Frequencies --   1323.3214              1344.1147              1356.4927
 Red. masses --      1.6431                 2.4369                 1.4055
 Frc consts  --      1.6953                 2.5939                 1.5237
 IR Inten    --     21.6267                12.5655                54.9919

                     67                     68                     69
                      A                      A                      A
 Frequencies --   1369.4186              1402.8173              1417.1025
 Red. masses --      2.0759                 1.2957                 1.2572
 Frc consts  --      2.2937                 1.5023                 1.4875
 IR Inten    --     44.0827                55.4175                16.2721

                     70                     71                     72
                      A                      A                      A
 Frequencies --   1420.5918              1424.4364              1432.3416
 Red. masses --      1.5495                 1.3378                 1.3423
 Frc consts  --      1.8424                 1.5993                 1.6225
 IR Inten    --     13.3404                13.5041                17.4983

                     73                     74                     75
                      A                      A                      A
 Frequencies --   1450.2908              1470.6677              1487.3560
 Red. masses --      1.2784                 2.4609                 1.2035
 Frc consts  --      1.5843                 3.1359                 1.5686
 IR Inten    --     22.5677                 3.2246                 6.2754

                     76                     77                     78
                      A                      A                      A
 Frequencies --   1497.1989              1503.2842              1514.9654
 Red. masses --      1.0896                 1.1629                 1.0497
 Frc consts  --      1.4390                 1.5484                 1.4195
 IR Inten    --      4.6727                 5.7425                 3.1583

                     79                     80                     81
                      A                      A                      A
 Frequencies --   1520.1411              1521.7312              1522.2208
 Red. masses --      1.0671                 1.1357                 1.1573
 Frc consts  --      1.4529                 1.5495                 1.5799
 IR Inten    --     20.1827                28.8782                12.7288

                     82                     83                     84
                      A                      A                      A
 Frequencies --   1526.1320              1532.1598              1537.2719
 Red. masses --      1.0883                 1.0623                 1.1125
 Frc consts  --      1.4935                 1.4693                 1.5490
 IR Inten    --      5.7752                16.2464                10.0417

                     85                     86                     87
                      A                      A                      A
 Frequencies --   1540.4548              1557.1791              1567.5907
 Red. masses --      1.0942                 1.0942                 2.2358
 Frc consts  --      1.5299                 1.5632                 3.2370
 IR Inten    --      2.6136                 4.9587                98.9684

                     88                     89                     90
                      A                      A                      A
 Frequencies --   1626.0697              1676.2555              2957.4693
 Red. masses --      5.9696                 5.7045                 1.0693
 Frc consts  --      9.2997                 9.4438                 5.5103
 IR Inten    --      8.7539                35.5573                44.3799

                     91                     92                     93
                      A                      A                      A
 Frequencies --   2973.9454              2976.5325              2983.9682
 Red. masses --      1.0602                 1.0530                 1.0710
 Frc consts  --      5.5247                 5.4969                 5.6188
 IR Inten    --     67.3088                39.4904                80.4125

                     94                     95                     96
                      A                      A                      A
 Frequencies --   2992.6118              3005.5543              3010.8939
 Red. masses --      1.0418                 1.1023                 1.0674
 Frc consts  --      5.4970                 5.8670                 5.7011
 IR Inten    --     95.1036                70.0814                66.0587

                     97                     98                     99
                      A                      A                      A
 Frequencies --   3019.2131              3033.5186              3049.6663
 Red. masses --      1.0895                 1.1051                 1.0611
 Frc consts  --      5.8513                 5.9914                 5.8143
 IR Inten    --     34.0067                67.6585                65.6448

                    100                    101                    102
                      A                      A                      A
 Frequencies --   3081.6027              3091.5739              3093.5864
 Red. masses --      1.0927                 1.0880                 1.1052
 Frc consts  --      6.1137                 6.1270                 6.2319
 IR Inten    --     12.2402                40.6475                42.8834

                    103                    104                    105
                      A                      A                      A
 Frequencies --   3094.1543              3136.4751              3162.0068
 Red. masses --      1.0866                 1.0967                 1.0975
 Frc consts  --      6.1292                 6.3565                 6.4651
 IR Inten    --     79.1009                30.5239                21.3689

                    106                    107                    108
                      A                      A                      A
 Frequencies --   3176.3035              3194.0169              3215.1665
 Red. masses --      1.0893                 1.0877                 1.0932
 Frc consts  --      6.4753                 6.5377                 6.6580
 IR Inten    --     20.5077                10.4994                 8.5788

                    109                    110                    111
                      A                      A                      A
 Frequencies --   3239.6709              3499.0543              3737.8385
 Red. masses --      1.0905                 1.0735                 1.0660
 Frc consts  --      6.7432                 7.7434                 8.7748
 IR Inten    --      5.4512                 0.9996                48.5429

 - Thermochemistry -
 -------------------
 Temperature   298.150 Kelvin.  Pressure   1.00000 Atm.
 Atom     1 has atomic number  6 and mass  12.00000

 Molecular mass:   238.16813 amu.
 Principal axes and moments of inertia in atomic units:
                           1         2         3
     Eigenvalues --  1963.15359********************
           X            0.99998  -0.00598  -0.00338
           Y            0.00602   0.99992   0.01125
           Z            0.00331  -0.01127   0.99993
 This molecule is an asymmetric top.
 Rotational symmetry number  1.
 Warning -- assumption of classical behavior for rotation
           may cause significant error
 Rotational temperatures (Kelvin)      0.04412     0.00827     0.00735
 Rotational constants (GHZ):           0.91931     0.17229     0.15317
 Zero-point vibrational energy     904220.1 (Joules/Mol)
                                  216.11379 (Kcal/Mol)
 Warning -- explicit consideration of  28 degrees of freedom as
           vibrations may cause significant error
 Vibrational temperatures:     23.78    27.50    43.81    70.31    84.75
          (Kelvin)            103.50   128.00   150.48   204.95   251.93
                              262.88   274.62   308.98   343.51   358.46
                              450.04   458.97   480.53   545.59   568.49
                              595.17   606.63   635.14   661.41   742.45
                              778.82   823.54   826.24   944.25  1018.62
                             1068.47  1137.07  1183.12  1212.00  1230.96
                             1245.55  1277.32  1301.75  1318.51  1357.68
                             1408.25  1439.22  1472.12  1480.64  1494.88
                             1554.64  1568.87  1576.78  1646.11  1654.30
                             1656.39  1675.63  1681.08  1696.63  1723.10
                             1733.73  1754.45  1758.00  1784.19  1795.63
                             1814.43  1837.47  1860.57  1903.96  1933.88
                             1951.69  1970.29  2018.34  2038.89  2043.91
                             2049.45  2060.82  2086.65  2115.96  2139.97
                             2154.14  2162.89  2179.70  2187.14  2189.43
                             2190.14  2195.76  2204.44  2211.79  2216.37
                             2240.43  2255.41  2339.55  2411.76  4255.14
                             4278.84  4282.57  4293.26  4305.70  4324.32
                             4332.00  4343.97  4364.56  4387.79  4433.74
                             4448.09  4450.98  4451.80  4512.69  4549.42
                             4569.99  4595.48  4625.91  4661.16  5034.36
                             5377.92

 Zero-point correction=                           0.344399 (Hartree/Particle)
 Thermal correction to Energy=                    0.363022
 Thermal correction to Enthalpy=                  0.363966
 Thermal correction to Gibbs Free Energy=         0.294183
 Sum of electronic and zero-point Energies=           -768.252178
 Sum of electronic and thermal Energies=              -768.233555
 Sum of electronic and thermal Enthalpies=            -768.232611
 Sum of electronic and thermal Free Energies=         -768.302394

                     E (Thermal)             CV                S
                      KCal/Mol        Cal/Mol-Kelvin    Cal/Mol-Kelvin
 Total                  227.800             67.877            146.871
 Electronic               0.000              0.000              0.000
 Translational            0.889              2.981             42.305
 Rotational               0.889              2.981             33.849
 Vibrational            226.022             61.915             70.717
 Vibration     1          0.593              1.986              7.013
 Vibration     2          0.593              1.986              6.724
 Vibration     3          0.594              1.984              5.800
 Vibration     4          0.595              1.978              4.863
 Vibration     5          0.596              1.974              4.494
 Vibration     6          0.598              1.967              4.100
 Vibration     7          0.602              1.957              3.683
 Vibration     8          0.605              1.946              3.367
 Vibration     9          0.616              1.911              2.771
 Vibration    10          0.627              1.873              2.380
 Vibration    11          0.630              1.863              2.301
 Vibration    12          0.634              1.852              2.219
 Vibration    13          0.645              1.819              2.003
 Vibration    14          0.657              1.781              1.812
 Vibration    15          0.662              1.764              1.737
 Vibration    16          0.701              1.649              1.347
 Vibration    17          0.705              1.637              1.315
 Vibration    18          0.716              1.608              1.241
 Vibration    19          0.749              1.514              1.042
 Vibration    20          0.762              1.481              0.981
 Vibration    21          0.777              1.441              0.914
 Vibration    22          0.784              1.423              0.886
 Vibration    23          0.801              1.380              0.822
 Vibration    24          0.818              1.339              0.767
 Vibration    25          0.871              1.214              0.619
 Vibration    26          0.896              1.159              0.562
 Vibration    27          0.929              1.091              0.500
 Vibration    28          0.931              1.087              0.496

                           ! Non-Optimized Parameters !
 Normal termination of Gaussian 16 at Fri Dec 11 13:42:37 2020.

 ----------------------------------------------------------------------
 # B3LYP/6-311++G(d,p) empiricaldispersion=gd3bj scf=xqc pop=npa geom=c
 heck
 ----------------------------------------------------------------------

 --------------------------------------
 CID_60657287_JID_7835_Energie_neutraal
 --------------------------------------
 Structure from the checkpoint file:  "JID_7835.chk"
 Charge =  0 Multiplicity = 1

 SCF Done:  E(RB3LYP) =  -768.824162104     A.U. after   14 cycles
 Normal termination of Gaussian 16 at Fri Dec 11 13:49:47 2020.

 ----------------------------------------------------------------------
 # B3LYP/6-311++G(d,p) empiricaldispersion=gd3bj scf=xqc pop=npa geom=c
 heck
 ----------------------------------------------------------------------

 ------------------------------------
 CID_60657287_JID_7835_Energie_kation
 ------------------------------------
 Structure from the checkpoint file:  "JID_7835.chk"
 Charge =  1 Multiplicity = 2

 SCF Done:  E(UB3LYP) =  -768.559447068     A.U. after   23 cycles
 Normal termination of Gaussian 16 at Fri Dec 11 14:06:27 2020.
 Gaussian 16:  ES64L-G16RevA.03 25-Dec-2016

 ----------------------------------------------------------------------
 # B3LYP/6-311++G(d,p) empiricaldispersion=gd3bj scf=xqc pop=npa geom=c
 heck
 ----------------------------------------------------------------------

 -----------------------------------
 CID_60657287_JID_7835_Energie_anion
 -----------------------------------
 Structure from the checkpoint file:  "JID_7835.chk"
 Charge = -1 Multiplicity = 2

                         Standard orientation:
 ---------------------------------------------------------------------
 Center     Atomic      Atomic             Coordinates (Angstroms)
 Number     Number       Type             X           Y           Z
 ---------------------------------------------------------------------
      1          6           0        4.425761   -1.705533   -0.018433
      2          7           0        3.686396   -0.459366   -0.222151
      3          6           0        4.423965    0.717744    0.235308
      4          6           0        4.141385    1.979002   -0.587227
      5          8           0        2.900918    2.617681   -0.328770
      6          6           0        2.294893   -0.541847    0.048167
      7          6           0        1.515337   -1.452498   -0.693007
      8          6           0        0.151543   -1.579527   -0.472139
      9          6           0       -0.502588   -0.789062    0.484132
     10          6           0        0.261413    0.130367    1.200721
     11          6           0        1.640192    0.249009    1.005720
     12          6           0       -1.987389   -0.937429    0.727666
     13          7           0       -2.718319   -1.068537   -0.531933
     14          6           0       -4.152462   -1.287471   -0.384257
     15          6           0       -4.930228   -0.124812    0.233473
     16          8           0       -4.686257    1.018435   -0.565675
     17          6           0       -5.293566    2.184706   -0.056750
     18          1           0        5.381115   -1.657717   -0.551260
     19          1           0        3.859061   -2.549814   -0.412821
     20          1           0        4.630568   -1.904086    1.048292
     21          1           0        4.285967    0.924658    1.310346
     22          1           0        5.486552    0.486998    0.100762
     23          1           0        4.905996    2.725233   -0.344063
     24          1           0        4.247031    1.721577   -1.652651
     25          1           0        2.193745    1.997786   -0.567154
     26          1           0        1.992561   -2.045191   -1.467766
     27          1           0       -0.436432   -2.271870   -1.066438
     28          1           0       -0.221047    0.768092    1.938188
     29          1           0        2.189438    0.980982    1.583773
     30          1           0       -2.182304   -1.852773    1.306862
     31          1           0       -2.326883   -0.097581    1.359626
     32          1           0       -2.580156   -0.221105   -1.080295
     33          1           0       -4.565180   -1.487511   -1.380193
     34          1           0       -4.311739   -2.187737    0.223353
     35          1           0       -6.008361   -0.358898    0.262930
     36          1           0       -4.608181    0.062858    1.271466
     37          1           0       -6.390314    2.087485   -0.014607
     38          1           0       -4.929498    2.423087    0.955749
     39          1           0       -5.035303    3.006016   -0.730217
 ---------------------------------------------------------------------

 SCF Done:  E(UB3LYP) =  -768.811641159     A.U. after   33 cycles
 SCF Done:  E(UB3LYP) =  -768.811641159     a.u. after    1 cycles

 The electronic state is 2-A.
 Alpha  occ. eigenvalues --  -19.04263 -19.03635 -14.23705 -14.21100 -10.13226
 Alpha  occ. eigenvalues --  -10.12784 -10.12586 -10.12403 -10.11405 -10.11045
 Alpha  occ. eigenvalues --  -10.10977 -10.10729 -10.08895 -10.08793 -10.08534
 Alpha  occ. eigenvalues --  -10.08520 -10.08476  -0.95595  -0.93958  -0.85587
 Alpha  occ. eigenvalues --   -0.82366  -0.76424  -0.68816  -0.66854  -0.65888
 Alpha  occ. eigenvalues --   -0.65106  -0.60578  -0.58258  -0.56896  -0.54040
 Alpha  occ. eigenvalues --   -0.52025  -0.51072  -0.48364  -0.44043  -0.43076
 Alpha  occ. eigenvalues --   -0.41838  -0.40820  -0.40180  -0.39247  -0.37829
 Alpha  occ. eigenvalues --   -0.37689  -0.36341  -0.35665  -0.34975  -0.34415
 Alpha  occ. eigenvalues --   -0.33767  -0.33175  -0.32841  -0.31568  -0.30642
 Alpha  occ. eigenvalues --   -0.29969  -0.29365  -0.28964  -0.28086  -0.27306
 Alpha  occ. eigenvalues --   -0.26245  -0.25778  -0.24541  -0.24274  -0.19754
 Alpha  occ. eigenvalues --   -0.18822  -0.18023  -0.17057  -0.14396  -0.11869
 Alpha  occ. eigenvalues --    0.03825
 Alpha virt. eigenvalues --    0.04819   0.06505   0.06691   0.06945   0.07063
 Alpha virt. eigenvalues --    0.07439   0.07608   0.07969   0.08808   0.09236
 Alpha virt. eigenvalues --    0.09436   0.10095   0.10259   0.10402   0.10711

  Beta  occ. eigenvalues --  -19.04254 -19.03631 -14.23702 -14.21099 -10.13214
  Beta  occ. eigenvalues --  -10.12757 -10.12583 -10.12361 -10.11385 -10.11033
  Beta  occ. eigenvalues --  -10.10970 -10.10693 -10.08889 -10.08784 -10.08525
  Beta  occ. eigenvalues --  -10.08517 -10.08468  -0.95581  -0.93949  -0.85569
  Beta  occ. eigenvalues --   -0.82357  -0.76408  -0.68792  -0.66827  -0.65864
  Beta  occ. eigenvalues --   -0.65072  -0.60533  -0.58201  -0.56855  -0.54000
  Beta  occ. eigenvalues --   -0.51991  -0.51020  -0.48338  -0.44023  -0.43060
  Beta  occ. eigenvalues --   -0.41805  -0.40792  -0.40133  -0.39218  -0.37798
  Beta  occ. eigenvalues --   -0.37659  -0.36316  -0.35633  -0.34947  -0.34389
  Beta  occ. eigenvalues --   -0.33749  -0.33150  -0.32814  -0.31534  -0.30611
  Beta  occ. eigenvalues --   -0.29942  -0.29334  -0.28932  -0.28063  -0.27278
  Beta  occ. eigenvalues --   -0.26225  -0.25765  -0.24526  -0.24212  -0.19733
  Beta  occ. eigenvalues --   -0.18794  -0.17998  -0.17022  -0.14386  -0.11839
  Beta virt. eigenvalues --    0.05807   0.06071   0.06752   0.06868   0.07246
  Beta virt. eigenvalues --    0.07380   0.07600   0.07905   0.08224   0.09222
  Beta virt. eigenvalues --    0.09398   0.09692   0.10365   0.10544   0.10632

 Mulliken charges and spin densities:
               1          2
     1  C    0.843369  -1.174871
     2  N    0.175964   0.148637
     3  C   -0.252570  -0.054544
     4  C    0.160411  -0.450830
     5  O   -0.276356   0.011195
     6  C   -0.531809   0.009465
     7  C   -0.440223   0.085272
     8  C   -0.890669   0.470436
     9  C    1.648720  -0.610100
    10  C    0.395097  -0.551884
    11  C   -0.505241   0.408926
    12  C   -0.684619  -0.508722
    13  N    0.041784   0.029491
    14  C   -0.205556  -0.140462
    15  C    0.238221  -0.494710
    16  O   -0.215209   0.060210
    17  C    0.751359  -0.989316
    18  H   -0.371765   0.546585
    19  H    0.002543   0.109208
    20  H   -0.218394   0.362979
    21  H    0.055272   0.083704
    22  H   -0.588970   0.735144
    23  H   -0.036189   0.202077
    24  H    0.071583   0.071139
    25  H    0.254718   0.017515
    26  H   -0.025220   0.181288
    27  H    0.128881   0.067490
    28  H   -0.298842   0.466372
    29  H    0.214902  -0.047420
    30  H    0.026181   0.117408
    31  H    0.516894  -0.368934
    32  H    0.225231  -0.012115
    33  H    0.116140   0.073477
    34  H    0.008701   0.117822
    35  H   -0.365970   0.511585
    36  H   -0.242919   0.390987
    37  H   -0.371804   0.503471
    38  H   -0.236589   0.369033
    39  H   -0.117057   0.252994
 Sum of Mulliken charges =  -1.00000   1.00000

 Dipole moment (field-independent basis, Debye):
    X=              0.3950    Y=             -2.0393    Z=             -0.6657  Tot=              2.1813
 Quadrupole moment (field-independent basis, Debye-Ang):
   XX=           -263.2917   YY=           -148.7015   ZZ=           -134.0446
   XY=             17.0141   XZ=              5.9969   YZ=             -1.4088

 Summary of Natural Population Analysis:

                                       Natural Population
                Natural  -----------------------------------------------
    Atom  No    Charge         Core      Valence    Rydberg      Total
 -----------------------------------------------------------------------
      C    1   -0.16975      0.99963     2.16208    0.00804     3.16975
      N    2   -0.27362      0.99967     2.75998    0.01396     3.77362
      C    3   -0.09900      0.99960     2.08743    0.01197     3.09900
      C    4   -0.01351      0.99959     2.00095    0.01297     3.01351
      O    5   -0.36954      0.99990     3.36281    0.00683     4.36954
      C    6    0.08129      0.99947     1.90635    0.01289     2.91871
      C    7   -0.10771      0.99952     2.09949    0.00870     3.10771
      C    8   -0.09208      0.99952     2.08382    0.00875     3.09208
      C    9   -0.03216      0.99950     2.02317    0.00948     3.03216
      C   10   -0.09163      0.99952     2.08327    0.00884     3.09163
      C   11   -0.13413      0.99952     2.12609    0.00853     3.13413
      C   12   -0.09383      0.99959     2.08298    0.01126     3.09383
      N   13   -0.33824      0.99975     2.82776    0.01073     3.83824
      C   14   -0.09465      0.99963     2.08209    0.01294     3.09465
      C   15   -0.01868      0.99959     2.00692    0.01217     3.01868
      O   16   -0.30409      0.99988     3.29355    0.01066     4.30409
      C   17   -0.09578      0.99962     2.08704    0.00912     3.09578
      H   18    0.09790      0.00000     0.40004    0.00206     0.40210
      H   19    0.09805      0.00000     0.40065    0.00130     0.40195
      H   20    0.08493      0.00000     0.41376    0.00131     0.41507
      H   21    0.08670      0.00000     0.41171    0.00159     0.41330
      H   22    0.10445      0.00000     0.39329    0.00226     0.39555
      H   23    0.08575      0.00000     0.41319    0.00106     0.41425
      H   24    0.07903      0.00000     0.41949    0.00148     0.42097
      H   25    0.23356      0.00000     0.26340    0.00304     0.26644
      H   26    0.10251      0.00000     0.39649    0.00100     0.39749
      H   27    0.10838      0.00000     0.39031    0.00131     0.39162
      H   28    0.10123      0.00000     0.39758    0.00119     0.39877
      H   29    0.10995      0.00000     0.38867    0.00138     0.39005
      H   30    0.09343      0.00000     0.40536    0.00121     0.40657
      H   31    0.08566      0.00000     0.41249    0.00186     0.41434
      H   32    0.17748      0.00000     0.31952    0.00300     0.32252
      H   33    0.09524      0.00000     0.40362    0.00113     0.40476
      H   34    0.09222      0.00000     0.40680    0.00098     0.40778
      H   35    0.08232      0.00000     0.41575    0.00193     0.41768
      H   36    0.07883      0.00000     0.41931    0.00185     0.42117
      H   37    0.07976      0.00000     0.41808    0.00216     0.42024
      H   38    0.08030      0.00000     0.41792    0.00177     0.41970
      H   39    0.08945      0.00000     0.40944    0.00110     0.41055
 =======================================================================
   * Total *   -0.00000     16.99351    47.79266    0.21383    65.00000

 Normal termination of Gaussian 16 at Fri Dec 11 14:30:31 2020.
