 Gaussian 16, Revision A.03,

 -----------------------------------------------------------
 # opt freq B3LYP/6-31G(d) empiricaldispersion=gd3bj scf=xqc
 -----------------------------------------------------------

 ------------------------------
 CID_79673045_JID_8334_neutraal
 ------------------------------
 Symbolic Z-matrix:
 Charge =  0 Multiplicity = 1

 SCF Done:  E(RB3LYP) =  -862.501675141     A.U. after   15 cycles
 SCF Done:  E(RB3LYP) =  -862.505870331     A.U. after   13 cycles
 SCF Done:  E(RB3LYP) =  -862.503816030     A.U. after   13 cycles
 SCF Done:  E(RB3LYP) =  -862.506771142     A.U. after   12 cycles
 SCF Done:  E(RB3LYP) =  -862.508027151     A.U. after   12 cycles
 SCF Done:  E(RB3LYP) =  -862.508082161     A.U. after   11 cycles
 SCF Done:  E(RB3LYP) =  -862.508569789     A.U. after   12 cycles
 SCF Done:  E(RB3LYP) =  -862.508666126     A.U. after   11 cycles
 SCF Done:  E(RB3LYP) =  -862.508752847     A.U. after   11 cycles
 SCF Done:  E(RB3LYP) =  -862.508782307     A.U. after   10 cycles
 SCF Done:  E(RB3LYP) =  -862.508793214     A.U. after    8 cycles
 SCF Done:  E(RB3LYP) =  -862.508794625     A.U. after    8 cycles
 SCF Done:  E(RB3LYP) =  -862.508795110     A.U. after    8 cycles
 SCF Done:  E(RB3LYP) =  -862.508795384     A.U. after    8 cycles
 SCF Done:  E(RB3LYP) =  -862.508795527     A.U. after    8 cycles
 Optimization completed.
    -- Stationary point found.
 Normal termination of Gaussian 16 at Fri Dec 11 20:07:58 2020.

 --------------------------------------------------------------------
 #N Geom=AllCheck Guess=TCheck SCRF=Check GenChk RB3LYP/6-31G(d) Freq
 --------------------------------------------------------------------

 Structure from the checkpoint file:  "JID_8334.chk"
 ------------------------------
 CID_79673045_JID_8334_neutraal
 ------------------------------
 Charge =  0 Multiplicity = 1

 SCF Done:  E(RB3LYP) =  -862.508795527     A.U. after    1 cycles

  Exact polarizability: 216.851  -2.571 140.583   5.966  10.065 115.486
 Approx polarizability: 278.351 -10.677 237.166   4.946  31.525 179.458

                      1                      2                      3
                      A                      A                      A
 Frequencies --     24.5157                31.5079                48.9179
 Red. masses --      4.7418                 4.4881                 3.5288
 Frc consts  --      0.0017                 0.0026                 0.0050
 IR Inten    --      0.5767                 2.9268                 1.3244

                      4                      5                      6
                      A                      A                      A
 Frequencies --     66.3224                87.8327                93.3287
 Red. masses --      3.4880                 4.4425                 3.3814
 Frc consts  --      0.0090                 0.0202                 0.0174
 IR Inten    --      0.9482                 2.7567                 1.5004

                      7                      8                      9
                      A                      A                      A
 Frequencies --    142.4598               149.7896               167.3716
 Red. masses --      3.1383                 2.4443                 2.4716
 Frc consts  --      0.0375                 0.0323                 0.0408
 IR Inten    --      1.2661                 6.5662                 6.1723

                     10                     11                     12
                      A                      A                      A
 Frequencies --    184.4382               192.5369               206.2488
 Red. masses --      2.9756                 2.1430                 1.3798
 Frc consts  --      0.0596                 0.0468                 0.0346
 IR Inten    --      0.5572                 0.8285                 0.6867

                     13                     14                     15
                      A                      A                      A
 Frequencies --    221.9142               225.7370               247.9748
 Red. masses --      1.2773                 2.2622                 1.3039
 Frc consts  --      0.0371                 0.0679                 0.0472
 IR Inten    --      0.9499                 1.2904                 0.3331

                     16                     17                     18
                      A                      A                      A
 Frequencies --    256.8984               281.3598               303.0882
 Red. masses --      2.8959                 3.3608                 2.8906
 Frc consts  --      0.1126                 0.1568                 0.1564
 IR Inten    --      2.1801                 0.6840                 2.5283

                     19                     20                     21
                      A                      A                      A
 Frequencies --    326.1014               338.8626               371.0101
 Red. masses --      3.4579                 5.1657                 4.1368
 Frc consts  --      0.2167                 0.3495                 0.3355
 IR Inten    --      4.1268                16.2857                 5.4935

                     22                     23                     24
                      A                      A                      A
 Frequencies --    412.4530               434.8356               437.6647
 Red. masses --      3.5773                 3.0782                 2.3020
 Frc consts  --      0.3586                 0.3429                 0.2598
 IR Inten    --      1.8504                 2.4513                 9.2270

                     25                     26                     27
                      A                      A                      A
 Frequencies --    449.2226               470.3245               484.5641
 Red. masses --      1.4509                 1.9252                 3.5400
 Frc consts  --      0.1725                 0.2509                 0.4897
 IR Inten    --     60.9552                39.5520                 9.7186

                     28                     29                     30
                      A                      A                      A
 Frequencies --    519.3067               572.8872               621.2996
 Red. masses --      5.5624                 5.2809                 6.4829
 Frc consts  --      0.8838                 1.0212                 1.4744
 IR Inten    --      1.1309                13.7295                29.1646

                     31                     32                     33
                      A                      A                      A
 Frequencies --    626.2797               686.0305               691.3338
 Red. masses --      4.6263                 4.3885                 4.2407
 Frc consts  --      1.0691                 1.2169                 1.1942
 IR Inten    --      1.4425                 0.8174                 5.8597

                     34                     35                     36
                      A                      A                      A
 Frequencies --    711.9629               762.9261               780.1754
 Red. masses --      6.1001                 3.7824                 4.3252
 Frc consts  --      1.8218                 1.2971                 1.5511
 IR Inten    --      1.9519                37.7959                23.6963

                     37                     38                     39
                      A                      A                      A
 Frequencies --    795.9146               822.3012               890.0086
 Red. masses --      3.9127                 1.6429                 2.4924
 Frc consts  --      1.4603                 0.6545                 1.1632
 IR Inten    --      4.8175                16.9744                32.6325

                     40                     41                     42
                      A                      A                      A
 Frequencies --    910.4756               921.0827               940.0891
 Red. masses --      1.4372                 1.3169                 2.2355
 Frc consts  --      0.7020                 0.6583                 1.1640
 IR Inten    --     17.4168                 3.5184                 2.2190

                     43                     44                     45
                      A                      A                      A
 Frequencies --    952.6515               980.1495              1068.9744
 Red. masses --      2.3749                 2.9472                 2.3758
 Frc consts  --      1.2699                 1.6682                 1.5995
 IR Inten    --      2.5036                15.7515                38.3864

                     46                     47                     48
                      A                      A                      A
 Frequencies --   1074.7097              1094.9056              1127.2174
 Red. masses --      3.2480                 1.8575                 1.8126
 Frc consts  --      2.2103                 1.3120                 1.3570
 IR Inten    --     50.2482                34.7179                55.5505

                     49                     50                     51
                      A                      A                      A
 Frequencies --   1137.3822              1162.2069              1165.3398
 Red. masses --      2.3471                 1.3572                 1.5473
 Frc consts  --      1.7889                 1.0801                 1.2381
 IR Inten    --      6.6644                25.5911                75.5836

                     52                     53                     54
                      A                      A                      A
 Frequencies --   1187.6607              1188.7846              1201.3450
 Red. masses --      1.2670                 2.1988                 1.3996
 Frc consts  --      1.0529                 1.8308                 1.1901
 IR Inten    --      0.4314                57.8468                20.5097

                     55                     56                     57
                      A                      A                      A
 Frequencies --   1208.3736              1217.2034              1239.4321
 Red. masses --      2.0123                 1.6079                 2.7368
 Frc consts  --      1.7312                 1.4036                 2.4771
 IR Inten    --     50.1577                17.6993                49.9022

                     58                     59                     60
                      A                      A                      A
 Frequencies --   1248.7559              1250.9925              1286.8479
 Red. masses --      1.5309                 2.1878                 2.8129
 Frc consts  --      1.4065                 2.0173                 2.7444
 IR Inten    --     50.5863                13.3827               159.2086

                     61                     62                     63
                      A                      A                      A
 Frequencies --   1320.6283              1335.9083              1339.1098
 Red. masses --      3.5930                 1.3550                 1.4765
 Frc consts  --      3.6921                 1.4247                 1.5600
 IR Inten    --    177.9796                32.1027                64.1691

                     64                     65                     66
                      A                      A                      A
 Frequencies --   1365.9617              1386.1762              1397.7111
 Red. masses --      1.3721                 2.3046                 3.7987
 Frc consts  --      1.5084                 2.6090                 4.3724
 IR Inten    --     30.2129               176.4601               120.8040

                     67                     68                     69
                      A                      A                      A
 Frequencies --   1422.9417              1444.6765              1457.6477
 Red. masses --      1.1985                 1.3168                 1.4587
 Frc consts  --      1.4297                 1.6192                 1.8260
 IR Inten    --      6.0574                50.7242                26.9092

                     70                     71                     72
                      A                      A                      A
 Frequencies --   1494.5705              1497.4417              1500.8309
 Red. masses --      1.1986                 1.6301                 1.1910
 Frc consts  --      1.5775                 2.1536                 1.5806
 IR Inten    --     13.8501                51.4862                11.7742

                     73                     74                     75
                      A                      A                      A
 Frequencies --   1508.8457              1510.5686              1517.3799
 Red. masses --      1.5309                 1.1016                 1.0893
 Frc consts  --      2.0534                 1.4810                 1.4777
 IR Inten    --     21.9423                15.8213                 7.8462

                     76                     77                     78
                      A                      A                      A
 Frequencies --   1518.5175              1520.7792              1526.4290
 Red. masses --      1.0498                 1.0896                 1.0844
 Frc consts  --      1.4262                 1.4848                 1.4886
 IR Inten    --      6.6200                11.1279                 9.8553

                     79                     80                     81
                      A                      A                      A
 Frequencies --   1530.6059              1536.8469              1549.8720
 Red. masses --      1.0612                 1.0734                 1.1764
 Frc consts  --      1.4648                 1.4937                 1.6649
 IR Inten    --      3.9603                35.5059                77.0548

                     82                     83                     84
                      A                      A                      A
 Frequencies --   1555.4544              1566.1128              1645.4767
 Red. masses --      1.0492                 2.7221                 7.3090
 Frc consts  --      1.4957                 3.9337                11.6598
 IR Inten    --      5.1399                97.8400                53.3654

                     85                     86                     87
                      A                      A                      A
 Frequencies --   1678.6184              1734.7905              2997.5784
 Red. masses --      6.0009                10.3157                 1.0663
 Frc consts  --      9.9625                18.2913                 5.6451
 IR Inten    --     26.1169               253.6628                42.3052

                     88                     89                     90
                      A                      A                      A
 Frequencies --   3012.6073              3027.3647              3033.7554
 Red. masses --      1.0467                 1.0707                 1.0341
 Frc consts  --      5.5968                 5.7817                 5.6074
 IR Inten    --     92.9996                 8.6890                63.5665

                     91                     92                     93
                      A                      A                      A
 Frequencies --   3034.8097              3057.8549              3084.3359
 Red. masses --      1.0567                 1.0492                 1.0946
 Frc consts  --      5.7340                 5.7803                 6.1353
 IR Inten    --     47.2456                61.9712                54.7019

                     94                     95                     96
                      A                      A                      A
 Frequencies --   3088.7288              3095.2765              3107.4265
 Red. masses --      1.0995                 1.1071                 1.0874
 Frc consts  --      6.1800                 6.2492                 6.1862
 IR Inten    --     35.5399                37.0746                22.9310

                     97                     98                     99
                      A                      A                      A
 Frequencies --   3125.6373              3140.8781              3163.5580
 Red. masses --      1.0967                 1.1067                 1.1010
 Frc consts  --      6.3127                 6.4326                 6.4920
 IR Inten    --     28.6898                21.0458                24.4734

                    100                    101                    102
                      A                      A                      A
 Frequencies --   3183.7328              3212.7464              3214.6663
 Red. masses --      1.0959                 1.0874                 1.0948
 Frc consts  --      6.5446                 6.6132                 6.6659
 IR Inten    --     12.7288                 4.7532                 7.7028

                    103                    104                    105
                      A                      A                      A
 Frequencies --   3222.0833              3227.6424              3702.5910
 Red. masses --      1.0910                 1.0939                 1.0647
 Frc consts  --      6.6735                 6.7140                 8.5995
 IR Inten    --      1.6229                10.7073                89.1722

 - Thermochemistry -
 -------------------
 Temperature   298.150 Kelvin.  Pressure   1.00000 Atm.
 Atom     1 has atomic number  6 and mass  12.00000

 Molecular mass:   253.13141 amu.
 Principal axes and moments of inertia in atomic units:
                           1         2         3
     Eigenvalues --  2016.179648388.159058922.12386
           X            0.99996   0.00847   0.00220
           Y           -0.00842   0.99971  -0.02262
           Z           -0.00239   0.02260   0.99974
 This molecule is an asymmetric top.
 Rotational symmetry number  1.
 Warning -- assumption of classical behavior for rotation
           may cause significant error
 Rotational temperatures (Kelvin)      0.04296     0.01033     0.00971
 Rotational constants (GHZ):           0.89513     0.21515     0.20228
 Zero-point vibrational energy     821233.2 (Joules/Mol)
                                  196.27944 (Kcal/Mol)
 Warning -- explicit consideration of  29 degrees of freedom as
           vibrations may cause significant error
 Vibrational temperatures:     35.27    45.33    70.38    95.42   126.37
          (Kelvin)            134.28   204.97   215.51   240.81   265.37
                              277.02   296.75   319.29   324.79   356.78
                              369.62   404.81   436.08   469.19   487.55
                              533.80   593.43   625.63   629.70   646.33
                              676.69   697.18   747.17   824.26   893.91
                              901.08   987.04   994.68  1024.36  1097.68
                             1122.50  1145.14  1183.11  1280.52  1309.97
                             1325.23  1352.58  1370.65  1410.22  1538.02
                             1546.27  1575.32  1621.81  1636.44  1672.16
                             1676.66  1708.78  1710.40  1728.47  1738.58
                             1751.28  1783.27  1796.68  1799.90  1851.49
                             1900.09  1922.07  1926.68  1965.31  1994.40
                             2010.99  2047.30  2078.57  2097.23  2150.35
                             2154.48  2159.36  2170.89  2173.37  2183.17
                             2184.81  2188.06  2196.19  2202.20  2211.18
                             2229.92  2237.95  2253.29  2367.47  2415.16
                             2495.98  4312.85  4334.47  4355.70  4364.90
                             4366.41  4399.57  4437.67  4443.99  4453.41
                             4470.89  4497.09  4519.02  4551.65  4580.68
                             4622.43  4625.19  4635.86  4643.86  5327.20

 Zero-point correction=                           0.312791 (Hartree/Particle)
 Thermal correction to Energy=                    0.331806
 Thermal correction to Enthalpy=                  0.332750
 Thermal correction to Gibbs Free Energy=         0.264863
 Sum of electronic and zero-point Energies=           -862.196004
 Sum of electronic and thermal Energies=              -862.176989
 Sum of electronic and thermal Enthalpies=            -862.176045
 Sum of electronic and thermal Free Energies=         -862.243933

                     E (Thermal)             CV                S
                      KCal/Mol        Cal/Mol-Kelvin    Cal/Mol-Kelvin
 Total                  208.211             70.327            142.881
 Electronic               0.000              0.000              0.000
 Translational            0.889              2.981             42.486
 Rotational               0.889              2.981             33.378
 Vibrational            206.434             64.365             67.017
 Vibration     1          0.593              1.985              6.230
 Vibration     2          0.594              1.983              5.732
 Vibration     3          0.595              1.978              4.861
 Vibration     4          0.598              1.970              4.260
 Vibration     5          0.601              1.958              3.708
 Vibration     6          0.602              1.954              3.589
 Vibration     7          0.616              1.911              2.771
 Vibration     8          0.618              1.903              2.675
 Vibration     9          0.624              1.883              2.465
 Vibration    10          0.631              1.861              2.283
 Vibration    11          0.635              1.850              2.203
 Vibration    12          0.641              1.831              2.077
 Vibration    13          0.648              1.808              1.943
 Vibration    14          0.650              1.802              1.913
 Vibration    15          0.662              1.766              1.745
 Vibration    16          0.666              1.751              1.683
 Vibration    17          0.681              1.708              1.525
 Vibration    18          0.695              1.668              1.400
 Vibration    19          0.710              1.623              1.279
 Vibration    20          0.719              1.598              1.218
 Vibration    21          0.743              1.532              1.076
 Vibration    22          0.776              1.443              0.918
 Vibration    23          0.795              1.394              0.843
 Vibration    24          0.798              1.388              0.834
 Vibration    25          0.808              1.363              0.798
 Vibration    26          0.827              1.316              0.737
 Vibration    27          0.841              1.284              0.698
 Vibration    28          0.874              1.207              0.612
 Vibration    29          0.929              1.090              0.499

                           ! Non-Optimized Parameters !
 Normal termination of Gaussian 16 at Fri Dec 11 20:24:25 2020.

 ----------------------------------------------------------------------
 # B3LYP/6-311++G(d,p) empiricaldispersion=gd3bj scf=xqc pop=npa geom=c
 heck
 ----------------------------------------------------------------------

 --------------------------------------
 CID_79673045_JID_8334_Energie_neutraal
 --------------------------------------
 Structure from the checkpoint file:  "JID_8334.chk"
 Charge =  0 Multiplicity = 1

 SCF Done:  E(RB3LYP) =  -862.761409061     A.U. after   16 cycles
 Normal termination of Gaussian 16 at Fri Dec 11 20:31:23 2020.

 ----------------------------------------------------------------------
 # B3LYP/6-311++G(d,p) empiricaldispersion=gd3bj scf=xqc pop=npa geom=c
 heck
 ----------------------------------------------------------------------

 ------------------------------------
 CID_79673045_JID_8334_Energie_kation
 ------------------------------------
 Structure from the checkpoint file:  "JID_8334.chk"
 Charge =  1 Multiplicity = 2

 SCF Done:  E(UB3LYP) =  -862.480348536     A.U. after   26 cycles
 Normal termination of Gaussian 16 at Fri Dec 11 20:47:19 2020.
 Gaussian 16:  ES64L-G16RevA.03 25-Dec-2016

 ----------------------------------------------------------------------
 # B3LYP/6-311++G(d,p) empiricaldispersion=gd3bj scf=xqc pop=npa geom=c
 heck
 ----------------------------------------------------------------------

 -----------------------------------
 CID_79673045_JID_8334_Energie_anion
 -----------------------------------
 Structure from the checkpoint file:  "JID_8334.chk"
 Charge = -1 Multiplicity = 2

                         Standard orientation:
 ---------------------------------------------------------------------
 Center     Atomic      Atomic             Coordinates (Angstroms)
 Number     Number       Type             X           Y           Z
 ---------------------------------------------------------------------
      1          6           0        4.067305   -1.342935   -0.115167
      2          6           0        3.284624   -0.360631    0.764047
      3          6           0        3.479635    1.137292    0.393530
      4          8           0        2.587388    1.648243   -0.570489
      5          6           0        2.904187    1.364915   -1.927440
      6          7           0        1.848317   -0.641237    0.919130
      7          6           0        1.292331   -0.261687    2.213085
      8          6           0        1.052442   -0.915435   -0.170336
      9          8           0        1.485609   -1.391092   -1.219271
     10          6           0       -0.415328   -0.613295   -0.055338
     11          6           0       -0.846907    0.693346    0.217495
     12          6           0       -2.202361    0.989399    0.214641
     13          6           0       -3.141128   -0.027772   -0.053816
     14          6           0       -2.713989   -1.321860   -0.336260
     15          6           0       -1.345774   -1.608353   -0.350748
     16          8           0       -4.444717    0.403184   -0.013268
     17          6           0       -5.462521   -0.534282   -0.326112
     18          8           0       -2.629649    2.258473    0.467156
     19          1           0        3.830823   -1.253026   -1.171762
     20          1           0        3.854162   -2.372673    0.186227
     21          1           0        5.138019   -1.156064    0.033248
     22          1           0        3.704217   -0.464498    1.773457
     23          1           0        3.299509    1.743163    1.288352
     24          1           0        4.526304    1.297455    0.087222
     25          1           0        3.974574    1.530150   -2.123280
     26          1           0        2.629253    0.341808   -2.200847
     27          1           0        2.321683    2.065151   -2.532401
     28          1           0        1.275474    0.825682    2.367143
     29          1           0        0.274203   -0.634944    2.308572
     30          1           0        1.902174   -0.712018    3.004476
     31          1           0       -0.130233    1.487821    0.396230
     32          1           0       -3.431453   -2.105033   -0.553045
     33          1           0       -0.999976   -2.605995   -0.598902
     34          1           0       -5.339190   -0.927360   -1.343044
     35          1           0       -5.465117   -1.368420    0.386864
     36          1           0       -6.406714    0.007829   -0.255463
     37          1           0       -3.600075    2.246958    0.394542
 ---------------------------------------------------------------------

 SCF Done:  E(UB3LYP) =  -862.749780134     A.U. after   33 cycles
 SCF Done:  E(UB3LYP) =  -862.749780134     a.u. after    1 cycles

 The electronic state is 2-A.
 Alpha  occ. eigenvalues --  -19.08028 -19.06991 -19.04329 -18.99528 -14.25371
 Alpha  occ. eigenvalues --  -10.18311 -10.15316 -10.15121 -10.13493 -10.13282
 Alpha  occ. eigenvalues --  -10.12672 -10.12238 -10.11655 -10.09554 -10.09433
 Alpha  occ. eigenvalues --  -10.09006 -10.08954 -10.07036  -1.00212  -0.97223
 Alpha  occ. eigenvalues --   -0.95608  -0.94469  -0.84921  -0.77377  -0.70071
 Alpha  occ. eigenvalues --   -0.67734  -0.66648  -0.63443  -0.62754  -0.61270
 Alpha  occ. eigenvalues --   -0.57017  -0.54644  -0.53022  -0.52063  -0.48472
 Alpha  occ. eigenvalues --   -0.44693  -0.43912  -0.42154  -0.41570  -0.39879
 Alpha  occ. eigenvalues --   -0.39438  -0.39081  -0.38995  -0.37074  -0.36391
 Alpha  occ. eigenvalues --   -0.35430  -0.35050  -0.34425  -0.33193  -0.32966
 Alpha  occ. eigenvalues --   -0.32150  -0.31851  -0.30983  -0.30779  -0.29246
 Alpha  occ. eigenvalues --   -0.28908  -0.28165  -0.27016  -0.26626  -0.26011
 Alpha  occ. eigenvalues --   -0.25879  -0.24092  -0.23280  -0.18116  -0.17051
 Alpha  occ. eigenvalues --   -0.16100  -0.15507  -0.13129   0.03848
 Alpha virt. eigenvalues --    0.04626   0.06074   0.06818   0.07075   0.07562
 Alpha virt. eigenvalues --    0.07709   0.08162   0.08795   0.09096   0.09645
 Alpha virt. eigenvalues --    0.09941   0.10117   0.10916   0.11331   0.11485

  Beta  occ. eigenvalues --  -19.08016 -19.06989 -19.04328 -18.99518 -14.25371
  Beta  occ. eigenvalues --  -10.18298 -10.15308 -10.15122 -10.13422 -10.13261
  Beta  occ. eigenvalues --  -10.12655 -10.12233 -10.11640 -10.09553 -10.09422
  Beta  occ. eigenvalues --  -10.09002 -10.08948 -10.07021  -1.00194  -0.97212
  Beta  occ. eigenvalues --   -0.95601  -0.94453  -0.84907  -0.77364  -0.70037
  Beta  occ. eigenvalues --   -0.67700  -0.66631  -0.63421  -0.62696  -0.61229
  Beta  occ. eigenvalues --   -0.56985  -0.54607  -0.52989  -0.52032  -0.48451
  Beta  occ. eigenvalues --   -0.44645  -0.43887  -0.42118  -0.41544  -0.39861
  Beta  occ. eigenvalues --   -0.39417  -0.39049  -0.38965  -0.37050  -0.36359
  Beta  occ. eigenvalues --   -0.35398  -0.35020  -0.34383  -0.33170  -0.32942
  Beta  occ. eigenvalues --   -0.32136  -0.31824  -0.30964  -0.30753  -0.29220
  Beta  occ. eigenvalues --   -0.28886  -0.28136  -0.26988  -0.26596  -0.25975
  Beta  occ. eigenvalues --   -0.25843  -0.24059  -0.23263  -0.18102  -0.17034
  Beta  occ. eigenvalues --   -0.16077  -0.15483  -0.13100
  Beta virt. eigenvalues --    0.05887   0.06122   0.06414   0.07175   0.07412
  Beta virt. eigenvalues --    0.07651   0.08084   0.08471   0.09217   0.09574
  Beta virt. eigenvalues --    0.10076   0.10346   0.10441   0.11060   0.11580

 Mulliken charges and spin densities:
               1          2
     1  C    0.109549  -0.582895
     2  C   -0.513028   0.596400
     3  C    0.679082  -1.243533
     4  O   -0.058669   0.023156
     5  C   -0.207479  -0.053567
     6  N    0.306375  -0.037632
     7  C    0.048907  -0.385062
     8  C   -0.305529  -0.074740
     9  O   -0.232595  -0.000401
    10  C    0.502958  -0.222856
    11  C   -0.142651  -0.069696
    12  C   -0.559251   0.087235
    13  C   -1.045370   0.691205
    14  C    0.731294  -0.627044
    15  C    0.232776  -0.194462
    16  O   -0.324396   0.078681
    17  C    1.496132  -1.816959
    18  O   -0.260198   0.007351
    19  H    0.123607   0.038570
    20  H    0.118492   0.035342
    21  H   -0.210915   0.362037
    22  H   -0.730767   0.906552
    23  H   -0.020258   0.189544
    24  H   -0.207082   0.354050
    25  H    0.056926   0.065989
    26  H    0.167976   0.013000
    27  H    0.133852  -0.000541
    28  H    0.133409   0.029209
    29  H    0.180498  -0.007707
    30  H   -0.127876   0.288444
    31  H    0.265028  -0.004148
    32  H   -0.068616   0.264038
    33  H    0.167630   0.032885
    34  H   -0.306792   0.472696
    35  H   -0.341914   0.503557
    36  H   -1.014259   1.206367
    37  H    0.223153   0.074932
 Sum of Mulliken charges =  -1.00000   1.00000

 Dipole moment (field-independent basis, Debye):
    X=              4.7611    Y=              1.0356    Z=             -0.6394  Tot=              4.9142
 Quadrupole moment (field-independent basis, Debye-Ang):
   XX=           -261.4712   YY=           -141.1158   ZZ=           -141.3295
   XY=             -4.4974   XZ=            -17.1967   YZ=             -3.2340

 Summary of Natural Population Analysis:

                                       Natural Population
                Natural  -----------------------------------------------
    Atom  No    Charge         Core      Valence    Rydberg      Total
 -----------------------------------------------------------------------
      C    1   -0.28826      0.99964     2.28214    0.00648     3.28826
      C    2   -0.01832      0.99958     2.00322    0.01552     3.01832
      C    3   -0.01055      0.99955     1.99614    0.01486     3.01055
      O    4   -0.29908      0.99989     3.29011    0.00907     4.29908
      C    5   -0.10313      0.99960     2.09476    0.00877     3.10313
      N    6   -0.25668      0.99963     2.74529    0.01175     3.75668
      C    7   -0.17621      0.99964     2.16914    0.00744     3.17621
      C    8    0.34659      0.99958     1.62897    0.02486     2.65341
      O    9   -0.32350      0.99988     3.31869    0.00494     4.32350
      C   10   -0.06553      0.99942     2.05600    0.01011     3.06553
      C   11   -0.11789      0.99949     2.10926    0.00914     3.11789
      C   12    0.14044      0.99935     1.84658    0.01363     2.85956
      C   13    0.13506      0.99935     1.85301    0.01258     2.86494
      C   14   -0.13787      0.99954     2.12897    0.00937     3.13787
      C   15   -0.08843      0.99948     2.07969    0.00925     3.08843
      O   16   -0.28582      0.99986     3.27479    0.01117     4.28582
      C   17   -0.09790      0.99960     2.08900    0.00930     3.09790
      O   18   -0.34117      0.99988     3.33503    0.00627     4.34117
      H   19    0.11003      0.00000     0.38894    0.00104     0.38997
      H   20    0.10357      0.00000     0.39562    0.00081     0.39643
      H   21    0.09755      0.00000     0.40146    0.00099     0.40245
      H   22    0.10105      0.00000     0.39583    0.00312     0.39895
      H   23    0.09046      0.00000     0.40812    0.00142     0.40954
      H   24    0.08281      0.00000     0.41567    0.00152     0.41719
      H   25    0.07574      0.00000     0.42336    0.00090     0.42426
      H   26    0.09560      0.00000     0.40322    0.00118     0.40440
      H   27    0.08728      0.00000     0.41198    0.00074     0.41272
      H   28    0.09146      0.00000     0.40764    0.00091     0.40854
      H   29    0.10739      0.00000     0.39188    0.00073     0.39261
      H   30    0.09779      0.00000     0.40121    0.00101     0.40221
      H   31    0.11448      0.00000     0.38417    0.00136     0.38552
      H   32    0.10917      0.00000     0.38967    0.00117     0.39083
      H   33    0.10638      0.00000     0.39278    0.00084     0.39362
      H   34    0.08751      0.00000     0.41017    0.00232     0.41249
      H   35    0.08660      0.00000     0.41121    0.00220     0.41340
      H   36    0.10000      0.00000     0.39608    0.00391     0.40000
      H   37    0.24339      0.00000     0.25368    0.00293     0.25661
 =======================================================================
   * Total *    0.00000     17.99296    49.78345    0.22358    68.00000

 Normal termination of Gaussian 16 at Fri Dec 11 21:06:54 2020.
