 Gaussian 16, Revision A.03,

 -----------------------------------------------------------
 # opt freq B3LYP/6-31G(d) empiricaldispersion=gd3bj scf=xqc
 -----------------------------------------------------------

 ------------------------------
 CID_59912807_JID_4421_neutraal
 ------------------------------
 Symbolic Z-matrix:
 Charge =  0 Multiplicity = 1

 SCF Done:  E(RB3LYP) =  -575.201902534     A.U. after   15 cycles
 SCF Done:  E(RB3LYP) =  -575.228100912     A.U. after   13 cycles
 SCF Done:  E(RB3LYP) =  -575.230675038     A.U. after   13 cycles
 SCF Done:  E(RB3LYP) =  -575.233260898     A.U. after   14 cycles
 SCF Done:  E(RB3LYP) =  -575.234551222     A.U. after   15 cycles
 SCF Done:  E(RB3LYP) =  -575.235379486     A.U. after   14 cycles
 SCF Done:  E(RB3LYP) =  -575.235565673     A.U. after   12 cycles
 SCF Done:  E(RB3LYP) =  -575.235634870     A.U. after   12 cycles
 SCF Done:  E(RB3LYP) =  -575.235658135     A.U. after   10 cycles
 SCF Done:  E(RB3LYP) =  -575.235674959     A.U. after   11 cycles
 SCF Done:  E(RB3LYP) =  -575.235705611     A.U. after   10 cycles
 SCF Done:  E(RB3LYP) =  -575.235706505     A.U. after    9 cycles
 SCF Done:  E(RB3LYP) =  -575.235706669     A.U. after    7 cycles
 SCF Done:  E(RB3LYP) =  -575.235706725     A.U. after    7 cycles
 SCF Done:  E(RB3LYP) =  -575.235706753     A.U. after    7 cycles
 Optimization completed.
    -- Stationary point found.
 Normal termination of Gaussian 16 at Thu Dec 10 09:48:53 2020.

 --------------------------------------------------------------------
 #N Geom=AllCheck Guess=TCheck SCRF=Check GenChk RB3LYP/6-31G(d) Freq
 --------------------------------------------------------------------

 Structure from the checkpoint file:  "JID_4421.chk"
 ------------------------------
 CID_59912807_JID_4421_neutraal
 ------------------------------
 Charge =  0 Multiplicity = 1

 SCF Done:  E(RB3LYP) =  -575.235706753     A.U. after    1 cycles

  Exact polarizability: 269.047   6.205 145.020  -0.298  -0.084  64.665
 Approx polarizability: 386.058  21.729 255.697   1.592  -0.395  96.661

                      1                      2                      3
                      A                      A                      A
 Frequencies --     28.5606                46.0888                74.2521
 Red. masses --      4.3041                 3.0863                 2.4089
 Frc consts  --      0.0021                 0.0039                 0.0078
 IR Inten    --      1.3523                 7.4456                 1.3893

                      4                      5                      6
                      A                      A                      A
 Frequencies --     76.8384               106.6208               146.7863
 Red. masses --      2.4961                 5.9561                 1.4060
 Frc consts  --      0.0087                 0.0399                 0.0178
 IR Inten    --      1.4883                 4.9722                 0.0731

                      7                      8                      9
                      A                      A                      A
 Frequencies --    162.2308               170.6276               207.0113
 Red. masses --      5.3046                 1.2741                 1.2330
 Frc consts  --      0.0823                 0.0219                 0.0311
 IR Inten    --      3.5423                 0.4214                 0.1345

                     10                     11                     12
                      A                      A                      A
 Frequencies --    246.6339               261.9359               286.5324
 Red. masses --      2.4318                 2.6186                 4.1461
 Frc consts  --      0.0872                 0.1059                 0.2006
 IR Inten    --      1.2678                 0.2692                 3.2292

                     13                     14                     15
                      A                      A                      A
 Frequencies --    300.2496               351.9867               400.9721
 Red. masses --      3.9984                 4.0156                 3.7808
 Frc consts  --      0.2124                 0.2931                 0.3582
 IR Inten    --      4.4378                 0.1367                 0.8172

                     16                     17                     18
                      A                      A                      A
 Frequencies --    429.7621               451.6356               490.2997
 Red. masses --      3.3115                 3.4129                 3.6186
 Frc consts  --      0.3604                 0.4102                 0.5125
 IR Inten    --      0.0798                 0.1453                 3.2533

                     19                     20                     21
                      A                      A                      A
 Frequencies --    531.8421               555.9479               626.5131
 Red. masses --      2.3726                 4.1816                 4.8192
 Frc consts  --      0.3954                 0.7615                 1.1145
 IR Inten    --      4.6136                 4.5811                12.0600

                     22                     23                     24
                      A                      A                      A
 Frequencies --    633.1921               655.4315               740.1528
 Red. masses --      5.3439                 6.6409                 3.7987
 Frc consts  --      1.2623                 1.6809                 1.2261
 IR Inten    --      2.0501                 0.8251                 1.3055

                     25                     26                     27
                      A                      A                      A
 Frequencies --    752.9672               797.2371               811.0760
 Red. masses --      5.2231                 5.8796                 1.2850
 Frc consts  --      1.7447                 2.2018                 0.4981
 IR Inten    --      7.5177                 0.4819                 4.0454

                     28                     29                     30
                      A                      A                      A
 Frequencies --    831.8802               878.1771               920.9874
 Red. masses --      1.6992                 4.2024                 1.2937
 Frc consts  --      0.6928                 1.9095                 0.6465
 IR Inten    --     42.2616                 0.8226                 5.3130

                     31                     32                     33
                      A                      A                      A
 Frequencies --    953.4794               969.5949               976.6134
 Red. masses --      1.3443                 1.3627                 3.0858
 Frc consts  --      0.7201                 0.7548                 1.7341
 IR Inten    --      2.1846                 2.7481                27.5687

                     34                     35                     36
                      A                      A                      A
 Frequencies --   1025.9688              1051.6740              1082.4671
 Red. masses --      2.7496                 1.6154                 1.4174
 Frc consts  --      1.7052                 1.0527                 0.9785
 IR Inten    --      0.7441                24.8573                 2.0149

                     37                     38                     39
                      A                      A                      A
 Frequencies --   1093.9875              1152.3680              1157.7974
 Red. masses --      1.5161                 1.3209                 1.2336
 Frc consts  --      1.0690                 1.0335                 0.9743
 IR Inten    --     26.2005                25.8160                 0.2277

                     40                     41                     42
                      A                      A                      A
 Frequencies --   1173.4728              1196.0172              1214.1224
 Red. masses --      1.9022                 2.1604                 1.6961
 Frc consts  --      1.5433                 1.8208                 1.4730
 IR Inten    --      0.8791                11.4205                34.6040

                     43                     44                     45
                      A                      A                      A
 Frequencies --   1239.0334              1280.7798              1293.2863
 Red. masses --      1.2853                 2.0059                 2.8488
 Frc consts  --      1.1626                 1.9387                 2.8074
 IR Inten    --    134.8402                12.1715                31.3938

                     46                     47                     48
                      A                      A                      A
 Frequencies --   1366.6036              1387.2123              1410.2363
 Red. masses --      2.5091                 2.6697                 3.1834
 Frc consts  --      2.7609                 3.0268                 3.7301
 IR Inten    --     37.8718                 3.3546               316.4346

                     49                     50                     51
                      A                      A                      A
 Frequencies --   1423.1465              1442.9859              1470.1403
 Red. masses --      1.5638                 1.2369                 1.2552
 Frc consts  --      1.8661                 1.5174                 1.5984
 IR Inten    --     10.2401                 7.6453                 3.6764

                     52                     53                     54
                      A                      A                      A
 Frequencies --   1493.6442              1504.7823              1510.5476
 Red. masses --      2.3015                 1.0438                 1.0419
 Frc consts  --      3.0252                 1.3925                 1.4008
 IR Inten    --     15.7036                 6.0747                 1.1770

                     55                     56                     57
                      A                      A                      A
 Frequencies --   1514.7278              1518.9184              1527.4149
 Red. masses --      1.2303                 1.0524                 1.0754
 Frc consts  --      1.6631                 1.4305                 1.4782
 IR Inten    --     28.2237                11.3874                 6.5679

                     58                     59                     60
                      A                      A                      A
 Frequencies --   1545.8507              1560.3735              1582.8167
 Red. masses --      1.0857                 1.0859                 2.4533
 Frc consts  --      1.5286                 1.5577                 3.6213
 IR Inten    --      3.0316                61.7361               208.4894

                     61                     62                     63
                      A                      A                      A
 Frequencies --   1600.9779              1665.5403              1688.8362
 Red. masses --      5.4392                 5.3137                 6.0536
 Frc consts  --      8.2140                 8.6848                10.1728
 IR Inten    --      3.5164               457.5958                45.5506

                     64                     65                     66
                      A                      A                      A
 Frequencies --   2317.9055              3009.7073              3017.9715
 Red. masses --     12.6680                 1.0447                 1.0484
 Frc consts  --     40.1006                 5.5757                 5.6260
 IR Inten    --     75.8931                81.0871                94.5890

                     67                     68                     69
                      A                      A                      A
 Frequencies --   3045.0465              3068.3776              3073.2263
 Red. masses --      1.0360                 1.0956                 1.0965
 Frc consts  --      5.6600                 6.0775                 6.1017
 IR Inten    --     43.1002                30.8072                43.9993

                     70                     71                     72
                      A                      A                      A
 Frequencies --   3098.3099              3134.4050              3148.1185
 Red. masses --      1.1017                 1.1016                 1.0980
 Frc consts  --      6.2311                 6.3763                 6.4113
 IR Inten    --     17.7234                10.6833                 1.8890

                     73                     74                     75
                      A                      A                      A
 Frequencies --   3151.4271              3160.8964              3177.6749
 Red. masses --      1.0873                 1.0953                 1.0890
 Frc consts  --      6.3620                 6.4475                 6.4791
 IR Inten    --     19.3430                43.1952                19.3182

                     76                     77                     78
                      A                      A                      A
 Frequencies --   3230.1279              3233.5126              3250.3282
 Red. masses --      1.0875                 1.0906                 1.0924
 Frc consts  --      6.6853                 6.7183                 6.7997
 IR Inten    --      8.3876                17.5889                 4.3622

 - Thermochemistry -
 -------------------
 Temperature   298.150 Kelvin.  Pressure   1.00000 Atm.
 Atom     1 has atomic number  6 and mass  12.00000

 Molecular mass:   186.11570 amu.
 Principal axes and moments of inertia in atomic units:
                           1         2         3
     Eigenvalues --  1003.273815802.926046770.79286
           X            0.99984  -0.01801  -0.00075
           Y            0.01802   0.99984   0.00010
           Z            0.00075  -0.00011   1.00000
 This molecule is an asymmetric top.
 Rotational symmetry number  1.
 Warning -- assumption of classical behavior for rotation
           may cause significant error
 Rotational temperatures (Kelvin)      0.08633     0.01493     0.01279
 Rotational constants (GHZ):           1.79885     0.31101     0.26655
 Zero-point vibrational energy     617075.0 (Joules/Mol)
                                  147.48446 (Kcal/Mol)
 Warning -- explicit consideration of  20 degrees of freedom as
           vibrations may cause significant error
 Vibrational temperatures:     41.09    66.31   106.83   110.55   153.40
          (Kelvin)            211.19   233.41   245.50   297.84   354.85
                              376.87   412.26   431.99   506.43   576.91
                              618.33   649.80   705.43   765.20   799.88
                              901.41   911.02   943.02  1064.91  1083.35
                             1147.05  1166.96  1196.89  1263.50  1325.10
                             1371.84  1395.03  1405.13  1476.14  1513.12
                             1557.43  1574.00  1658.00  1665.81  1688.37
                             1720.80  1746.85  1782.69  1842.76  1860.75
                             1966.24  1995.89  2029.02  2047.59  2076.13
                             2115.20  2149.02  2165.05  2173.34  2179.36
                             2185.38  2197.61  2224.13  2245.03  2277.32
                             2303.45  2396.34  2429.86  3334.95  4330.30
                             4342.19  4381.14  4414.71  4421.69  4457.78
                             4509.71  4529.44  4534.20  4547.82  4571.97
                             4647.43  4652.30  4676.50

 Zero-point correction=                           0.235031 (Hartree/Particle)
 Thermal correction to Energy=                    0.249357
 Thermal correction to Enthalpy=                  0.250301
 Thermal correction to Gibbs Free Energy=         0.192732
 Sum of electronic and zero-point Energies=           -575.000675
 Sum of electronic and thermal Energies=              -574.986350
 Sum of electronic and thermal Enthalpies=            -574.985406
 Sum of electronic and thermal Free Energies=         -575.042975

                     E (Thermal)             CV                S
                      KCal/Mol        Cal/Mol-Kelvin    Cal/Mol-Kelvin
 Total                  156.474             52.237            121.165
 Electronic               0.000              0.000              0.000
 Translational            0.889              2.981             41.570
 Rotational               0.889              2.981             32.044
 Vibrational            154.696             46.276             47.551
 Vibration     1          0.593              1.984              5.927
 Vibration     2          0.595              1.979              4.979
 Vibration     3          0.599              1.966              4.037
 Vibration     4          0.599              1.965              3.970
 Vibration     5          0.605              1.944              3.330
 Vibration     6          0.617              1.906              2.713
 Vibration     7          0.622              1.889              2.524
 Vibration     8          0.626              1.879              2.429
 Vibration     9          0.641              1.830              2.070
 Vibration    10          0.661              1.768              1.755
 Vibration    11          0.669              1.742              1.649
 Vibration    12          0.684              1.699              1.494
 Vibration    13          0.693              1.673              1.416
 Vibration    14          0.729              1.571              1.157
 Vibration    15          0.767              1.468              0.959
 Vibration    16          0.791              1.405              0.859
 Vibration    17          0.810              1.357              0.791
 Vibration    18          0.846              1.272              0.683
 Vibration    19          0.887              1.180              0.583
 Vibration    20          0.911              1.127              0.532

                           ! Non-Optimized Parameters !
 Normal termination of Gaussian 16 at Thu Dec 10 09:55:40 2020.

 ----------------------------------------------------------------------
 # B3LYP/6-311++G(d,p) empiricaldispersion=gd3bj scf=xqc pop=npa geom=c
 heck
 ----------------------------------------------------------------------

 --------------------------------------
 CID_59912807_JID_4421_Energie_neutraal
 --------------------------------------
 Structure from the checkpoint file:  "JID_4421.chk"
 Charge =  0 Multiplicity = 1

 SCF Done:  E(RB3LYP) =  -575.387120019     A.U. after   15 cycles
 Normal termination of Gaussian 16 at Thu Dec 10 09:58:25 2020.

 ----------------------------------------------------------------------
 # B3LYP/6-311++G(d,p) empiricaldispersion=gd3bj scf=xqc pop=npa geom=c
 heck
 ----------------------------------------------------------------------

 ------------------------------------
 CID_59912807_JID_4421_Energie_kation
 ------------------------------------
 Structure from the checkpoint file:  "JID_4421.chk"
 Charge =  1 Multiplicity = 2

 SCF Done:  E(UB3LYP) =  -575.128946325     A.U. after   20 cycles
 Normal termination of Gaussian 16 at Thu Dec 10 10:03:42 2020.
 Gaussian 16:  ES64L-G16RevA.03 25-Dec-2016

 ----------------------------------------------------------------------
 # B3LYP/6-311++G(d,p) empiricaldispersion=gd3bj scf=xqc pop=npa geom=c
 heck
 ----------------------------------------------------------------------

 -----------------------------------
 CID_59912807_JID_4421_Energie_anion
 -----------------------------------
 Structure from the checkpoint file:  "JID_4421.chk"
 Charge = -1 Multiplicity = 2

                         Standard orientation:
 ---------------------------------------------------------------------
 Center     Atomic      Atomic             Coordinates (Angstroms)
 Number     Number       Type             X           Y           Z
 ---------------------------------------------------------------------
      1          6           0        4.703302   -0.901654    0.026669
      2          6           0        3.334211   -0.256298    0.011006
      3          6           0        2.190079   -0.987586    0.006077
      4          6           0        0.788298   -0.606286   -0.008718
      5          6           0       -0.171771   -1.637602   -0.013275
      6          6           0       -1.533319   -1.386868   -0.026078
      7          6           0       -2.020773   -0.059158   -0.041585
      8          6           0       -1.061648    0.983041   -0.027661
      9          6           0        0.296029    0.715535   -0.014508
     10          7           0       -3.372226    0.210548   -0.071882
     11          6           0       -4.326098   -0.876688    0.048208
     12          6           0       -3.838549    1.580685    0.046689
     13          6           0        3.348922    1.170924    0.001702
     14          7           0        3.424213    2.334347   -0.005278
     15          1           0        4.611595   -1.991592    0.033373
     16          1           0        5.275647   -0.597742    0.911442
     17          1           0        5.290113   -0.609812   -0.852676
     18          1           0        2.345820   -2.066062    0.013880
     19          1           0        0.167369   -2.670988   -0.003049
     20          1           0       -2.219654   -2.224330   -0.023036
     21          1           0       -1.381503    2.017500   -0.025549
     22          1           0        0.981882    1.553026   -0.005182
     23          1           0       -4.224447   -1.418698    1.000492
     24          1           0       -5.337933   -0.473031   -0.009300
     25          1           0       -4.206861   -1.599852   -0.768172
     26          1           0       -3.539965    2.042834    0.999357
     27          1           0       -3.450347    2.202733   -0.768954
     28          1           0       -4.927730    1.593476   -0.013658
 ---------------------------------------------------------------------

 SCF Done:  E(UB3LYP) =  -575.392339501     A.U. after   33 cycles
 SCF Done:  E(UB3LYP) =  -575.392339501     a.u. after    1 cycles

 The electronic state is 2-A.
 Alpha  occ. eigenvalues --  -14.22011 -14.15380 -10.09940 -10.09928 -10.08404
 Alpha  occ. eigenvalues --  -10.05708 -10.05665 -10.04706 -10.04487 -10.04405
 Alpha  occ. eigenvalues --  -10.04235 -10.04003 -10.03352 -10.03290  -0.84084
 Alpha  occ. eigenvalues --   -0.75804  -0.72413  -0.67896  -0.63518  -0.63328
 Alpha  occ. eigenvalues --   -0.61083  -0.57750  -0.53725  -0.49545  -0.47646
 Alpha  occ. eigenvalues --   -0.45086  -0.41593  -0.37564  -0.37047  -0.36263
 Alpha  occ. eigenvalues --   -0.33227  -0.32421  -0.30911  -0.30680  -0.30434
 Alpha  occ. eigenvalues --   -0.30093  -0.28857  -0.27837  -0.27555  -0.26699
 Alpha  occ. eigenvalues --   -0.25241  -0.23291  -0.22026  -0.21965  -0.21110
 Alpha  occ. eigenvalues --   -0.18698  -0.17846  -0.13205  -0.13087  -0.07032
 Alpha  occ. eigenvalues --    0.04060
 Alpha virt. eigenvalues --    0.05702   0.07849   0.08342   0.08968   0.10072
 Alpha virt. eigenvalues --    0.10478   0.10967   0.11646   0.12127   0.12189
 Alpha virt. eigenvalues --    0.12223   0.12962   0.13924   0.14390   0.14412

  Beta  occ. eigenvalues --  -14.21956 -14.15113 -10.09918 -10.09911 -10.08201
  Beta  occ. eigenvalues --  -10.05727 -10.05680 -10.04480 -10.04463 -10.04362
  Beta  occ. eigenvalues --  -10.04313 -10.04019 -10.03169 -10.02995  -0.83930
  Beta  occ. eigenvalues --   -0.75404  -0.72200  -0.67420  -0.63438  -0.63084
  Beta  occ. eigenvalues --   -0.60938  -0.57487  -0.53595  -0.49088  -0.47434
  Beta  occ. eigenvalues --   -0.44867  -0.41511  -0.37465  -0.36877  -0.36094
  Beta  occ. eigenvalues --   -0.33121  -0.32288  -0.30868  -0.30377  -0.30336
  Beta  occ. eigenvalues --   -0.30010  -0.28783  -0.27767  -0.27468  -0.26507
  Beta  occ. eigenvalues --   -0.24699  -0.23081  -0.21777  -0.20951  -0.20917
  Beta  occ. eigenvalues --   -0.17804  -0.17680  -0.12747  -0.11863  -0.06135
  Beta virt. eigenvalues --    0.06283   0.07980   0.08320   0.09033   0.09230
  Beta virt. eigenvalues --    0.10202   0.10478   0.11164   0.11699   0.12144
  Beta virt. eigenvalues --    0.12202   0.12242   0.12913   0.13903   0.14441

 Mulliken charges and spin densities:
               1          2
     1  C   -0.411839  -0.002536
     2  C    1.128863   0.142387
     3  C    0.191793   0.193615
     4  C    1.013402  -0.183469
     5  C    0.015068  -0.024018
     6  C    0.012558  -0.087464
     7  C   -0.908285   0.590314
     8  C   -0.249878  -0.158208
     9  C   -0.454197   0.041840
    10  N   -0.062878   0.129121
    11  C    0.234251  -0.573930
    12  C    0.011740  -0.375984
    13  C   -1.635478  -0.083392
    14  N   -0.311131   0.140991
    15  H    0.134324   0.001323
    16  H    0.123058   0.009847
    17  H    0.124888   0.007465
    18  H    0.011402  -0.031166
    19  H    0.092839   0.038059
    20  H    0.160112  -0.036996
    21  H    0.211486  -0.045354
    22  H    0.044651   0.009853
    23  H   -0.051711   0.201586
    24  H   -0.335151   0.459039
    25  H    0.019892   0.115359
    26  H    0.006909   0.146345
    27  H    0.082414   0.054628
    28  H   -0.199105   0.320746
 Sum of Mulliken charges =  -1.00000   1.00000

 Dipole moment (field-independent basis, Debye):
    X=             -2.1046    Y=             -3.6985    Z=             -0.4017  Tot=              4.2743
 Quadrupole moment (field-independent basis, Debye-Ang):
   XX=           -156.2435   YY=           -107.9195   ZZ=            -99.6198
   XY=            -15.4615   XZ=              1.7712   YZ=             -0.0478

 Summary of Natural Population Analysis:

                                       Natural Population
                Natural  -----------------------------------------------
    Atom  No    Charge         Core      Valence    Rydberg      Total
 -----------------------------------------------------------------------
      C    1   -0.27934      0.99965     2.27565    0.00404     3.27934
      C    2   -0.06179      0.99941     2.05319    0.00919     3.06179
      C    3   -0.00760      0.99950     2.00007    0.00802     3.00760
      C    4   -0.06709      0.99951     2.05891    0.00867     3.06709
      C    5   -0.05627      0.99955     2.04813    0.00859     3.05627
      C    6   -0.15543      0.99954     2.14755    0.00834     3.15543
      C    7    0.12822      0.99950     1.86224    0.01004     2.87178
      C    8   -0.15006      0.99955     2.14267    0.00784     3.15006
      C    9   -0.04279      0.99954     2.03547    0.00778     3.04279
      N   10   -0.24354      0.99965     2.73403    0.00986     3.74354
      C   11   -0.17335      0.99965     2.16562    0.00809     3.17335
      C   12   -0.17332      0.99965     2.16570    0.00798     3.17332
      C   13    0.14035      0.99963     1.84086    0.01916     2.85965
      N   14   -0.17661      0.99979     2.66531    0.01151     3.67661
      H   15    0.09503      0.00000     0.40418    0.00079     0.40497
      H   16    0.09659      0.00000     0.40208    0.00133     0.40341
      H   17    0.09646      0.00000     0.40220    0.00134     0.40354
      H   18    0.08162      0.00000     0.41710    0.00127     0.41838
      H   19    0.08935      0.00000     0.40929    0.00136     0.41065
      H   20    0.09747      0.00000     0.40147    0.00106     0.40253
      H   21    0.09812      0.00000     0.40078    0.00110     0.40188
      H   22    0.10699      0.00000     0.39099    0.00202     0.39301
      H   23    0.09046      0.00000     0.40782    0.00171     0.40954
      H   24    0.09644      0.00000     0.40266    0.00090     0.40356
      H   25    0.09119      0.00000     0.40735    0.00146     0.40881
      H   26    0.09096      0.00000     0.40756    0.00148     0.40904
      H   27    0.09217      0.00000     0.40651    0.00133     0.40783
      H   28    0.09577      0.00000     0.40344    0.00079     0.40423
 =======================================================================
   * Total *   -0.00000     13.99412    35.85884    0.14703    50.00000

 Normal termination of Gaussian 16 at Thu Dec 10 10:12:42 2020.
