 Gaussian 16, Revision A.03,

 -----------------------------------------------------------
 # opt freq B3LYP/6-31G(d) empiricaldispersion=gd3bj scf=xqc
 -----------------------------------------------------------

 ------------------------------
 CID_12623021_JID_9538_neutraal
 ------------------------------
 Symbolic Z-matrix:
 Charge =  0 Multiplicity = 1

 SCF Done:  E(RB3LYP) =  -1169.03367121     A.U. after   14 cycles
 SCF Done:  E(RB3LYP) =  -1169.03642651     A.U. after   13 cycles
 SCF Done:  E(RB3LYP) =  -1169.03502783     A.U. after   12 cycles
 SCF Done:  E(RB3LYP) =  -1169.03885763     A.U. after   12 cycles
 SCF Done:  E(RB3LYP) =  -1169.04068320     A.U. after   12 cycles
 SCF Done:  E(RB3LYP) =  -1169.04082751     A.U. after   11 cycles
 SCF Done:  E(RB3LYP) =  -1169.04126104     A.U. after   12 cycles
 SCF Done:  E(RB3LYP) =  -1169.04097988     A.U. after   12 cycles
 SCF Done:  E(RB3LYP) =  -1169.04256459     A.U. after   12 cycles
 SCF Done:  E(RB3LYP) =  -1169.04293343     A.U. after   12 cycles
 SCF Done:  E(RB3LYP) =  -1169.05606541     A.U. after   10 cycles
 SCF Done:  E(RB3LYP) =  -1169.05606765     A.U. after    9 cycles
 SCF Done:  E(RB3LYP) =  -1169.05606819     A.U. after    8 cycles
 SCF Done:  E(RB3LYP) =  -1169.05606832     A.U. after    7 cycles
 SCF Done:  E(RB3LYP) =  -1169.05606835     A.U. after    6 cycles
 Optimization completed.
    -- Stationary point found.
 Normal termination of Gaussian 16 at Mon Dec 14 14:04:12 2020.

 --------------------------------------------------------------------
 #N Geom=AllCheck Guess=TCheck SCRF=Check GenChk RB3LYP/6-31G(d) Freq
 --------------------------------------------------------------------

 Structure from the checkpoint file:  "JID_9538.chk"
 ------------------------------
 CID_12623021_JID_9538_neutraal
 ------------------------------
 Charge =  0 Multiplicity = 1

 SCF Done:  E(RB3LYP) =  -1169.05606835     A.U. after    1 cycles

  Exact polarizability: 216.490  28.315 174.941  10.419   6.935 180.073
 Approx polarizability: 302.047  50.747 246.182  27.167  16.733 310.106

                      1                      2                      3
                      A                      A                      A
 Frequencies --     27.4040                36.1652                49.5538
 Red. masses --      4.5147                 4.4138                 3.7452
 Frc consts  --      0.0020                 0.0034                 0.0054
 IR Inten    --      0.0527                 0.4130                 0.1109

                      4                      5                      6
                      A                      A                      A
 Frequencies --     52.0097                62.1939                67.4367
 Red. masses --      7.3503                 3.1093                 2.6161
 Frc consts  --      0.0117                 0.0071                 0.0070
 IR Inten    --      4.1504                 0.2220                 0.0468

                      7                      8                      9
                      A                      A                      A
 Frequencies --     88.7689                93.8278               111.5354
 Red. masses --      3.9309                 3.5931                 3.6616
 Frc consts  --      0.0183                 0.0186                 0.0268
 IR Inten    --      1.6995                 2.2713                 0.1792

                     10                     11                     12
                      A                      A                      A
 Frequencies --    145.1565               177.5356               194.1765
 Red. masses --      3.1379                 2.7039                 3.2355
 Frc consts  --      0.0390                 0.0502                 0.0719
 IR Inten    --      2.9796                 3.6623                 0.4430

                     13                     14                     15
                      A                      A                      A
 Frequencies --    223.6048               231.8819               244.5360
 Red. masses --      1.1746                 1.6084                 1.6738
 Frc consts  --      0.0346                 0.0510                 0.0590
 IR Inten    --      1.3987                 1.8632                 1.6529

                     16                     17                     18
                      A                      A                      A
 Frequencies --    256.6308               270.0252               276.5363
 Red. masses --      2.5944                 3.4766                 1.9908
 Frc consts  --      0.1007                 0.1494                 0.0897
 IR Inten    --      1.9195                 2.9638                 2.8433

                     19                     20                     21
                      A                      A                      A
 Frequencies --    318.4056               330.5712               371.1533
 Red. masses --      2.6820                 3.0602                 3.1970
 Frc consts  --      0.1602                 0.1970                 0.2595
 IR Inten    --      0.4490                 1.0749                 1.7477

                     22                     23                     24
                      A                      A                      A
 Frequencies --    373.3831               406.6506               411.6611
 Red. masses --      3.0985                 2.6785                 2.6087
 Frc consts  --      0.2545                 0.2610                 0.2605
 IR Inten    --      4.8881                 0.4910                 1.0116

                     25                     26                     27
                      A                      A                      A
 Frequencies --    416.1813               434.7117               498.4570
 Red. masses --      2.9656                 2.5084                 1.0885
 Frc consts  --      0.3026                 0.2793                 0.1593
 IR Inten    --      0.3640                 1.2939               118.8971

                     28                     29                     30
                      A                      A                      A
 Frequencies --    511.9123               538.5332               542.7688
 Red. masses --      3.9142                 3.0876                 2.4694
 Frc consts  --      0.6043                 0.5276                 0.4286
 IR Inten    --     19.4972                 5.2124                 6.1049

                     31                     32                     33
                      A                      A                      A
 Frequencies --    578.8573               631.4002               636.5226
 Red. masses --      3.4001                 4.3670                 6.2664
 Frc consts  --      0.6712                 1.0257                 1.4959
 IR Inten    --     19.6775                 6.5215                 1.2877

                     34                     35                     36
                      A                      A                      A
 Frequencies --    681.8148               695.9647               718.4130
 Red. masses --      6.8749                 2.0699                 1.7381
 Frc consts  --      1.8830                 0.5907                 0.5285
 IR Inten    --      4.1121                45.4459                39.1687

                     37                     38                     39
                      A                      A                      A
 Frequencies --    723.1835               770.2679               812.5706
 Red. masses --      2.0873                 1.9809                 1.1706
 Frc consts  --      0.6432                 0.6925                 0.4554
 IR Inten    --     35.4257                20.4182                 3.8077

                     40                     41                     42
                      A                      A                      A
 Frequencies --    843.2621               860.2123               870.9335
 Red. masses --      2.8004                 1.2635                 2.6276
 Frc consts  --      1.1733                 0.5508                 1.1743
 IR Inten    --      5.2019                 0.3627                 1.9557

                     43                     44                     45
                      A                      A                      A
 Frequencies --    875.2028               909.8993               926.8746
 Red. masses --      2.3117                 2.0367                 1.4636
 Frc consts  --      1.0433                 0.9935                 0.7408
 IR Inten    --      6.9770                 3.1295                 3.0204

                     46                     47                     48
                      A                      A                      A
 Frequencies --    948.9790               955.7474               968.6320
 Red. masses --      1.2368                 1.9221                 1.3754
 Frc consts  --      0.6562                 1.0345                 0.7603
 IR Inten    --      3.3200                 4.2127                 0.5161

                     49                     50                     51
                      A                      A                      A
 Frequencies --    969.5317               982.9945               997.1267
 Red. masses --      2.1596                 1.4949                 1.2508
 Frc consts  --      1.1961                 0.8511                 0.7327
 IR Inten    --      4.0478                 0.6692                 0.1894

                     52                     53                     54
                      A                      A                      A
 Frequencies --   1018.0799              1023.0512              1057.0836
 Red. masses --      2.6836                 6.1538                 3.1086
 Frc consts  --      1.6388                 3.7948                 2.0466
 IR Inten    --     26.0823                 1.9903                16.6216

                     55                     56                     57
                      A                      A                      A
 Frequencies --   1065.6495              1070.7980              1100.2726
 Red. masses --      2.3881                 2.5402                 3.0626
 Frc consts  --      1.5978                 1.7161                 2.1845
 IR Inten    --     26.3174                22.4351                41.7477

                     58                     59                     60
                      A                      A                      A
 Frequencies --   1114.2936              1115.6650              1146.5987
 Red. masses --      1.8413                 1.7807                 1.8240
 Frc consts  --      1.3470                 1.3059                 1.4129
 IR Inten    --     26.5708                 3.1849                56.4180

                     61                     62                     63
                      A                      A                      A
 Frequencies --   1151.6905              1179.0618              1184.8481
 Red. masses --      2.1735                 2.1366                 2.2564
 Frc consts  --      1.6986                 1.7500                 1.8663
 IR Inten    --     16.0804                44.8148                20.3326

                     64                     65                     66
                      A                      A                      A
 Frequencies --   1195.1285              1205.4991              1216.8734
 Red. masses --      1.0995                 1.7391                 1.1343
 Frc consts  --      0.9253                 1.4891                 0.9896
 IR Inten    --      0.0262                 5.2217                 1.0988

                     67                     68                     69
                      A                      A                      A
 Frequencies --   1235.9485              1253.5106              1268.4296
 Red. masses --      2.5329                 1.5157                 1.7946
 Frc consts  --      2.2796                 1.4032                 1.7012
 IR Inten    --     18.9802                16.1965               139.7209

                     70                     71                     72
                      A                      A                      A
 Frequencies --   1300.9757              1314.2452              1339.1933
 Red. masses --      1.5129                 1.3426                 1.8223
 Frc consts  --      1.5087                 1.3663                 1.9255
 IR Inten    --     28.9613                 3.6751                21.5064

                     73                     74                     75
                      A                      A                      A
 Frequencies --   1343.2505              1363.6468              1369.7460
 Red. masses --      1.5196                 1.3762                 2.2048
 Frc consts  --      1.6154                 1.5077                 2.4373
 IR Inten    --    143.6128                 0.5320                 0.5383

                     76                     77                     78
                      A                      A                      A
 Frequencies --   1383.3533              1389.9017              1402.7255
 Red. masses --      1.3377                 1.3243                 1.4087
 Frc consts  --      1.5083                 1.5074                 1.6331
 IR Inten    --      7.9668                14.0500                 0.5610

                     79                     80                     81
                      A                      A                      A
 Frequencies --   1407.2208              1425.3359              1433.6280
 Red. masses --      1.3728                 1.2431                 1.2496
 Frc consts  --      1.6017                 1.4879                 1.5132
 IR Inten    --     28.7651                 0.1039                 3.2740

                     82                     83                     84
                      A                      A                      A
 Frequencies --   1434.4867              1442.8259              1454.3477
 Red. masses --      1.2024                 1.2657                 1.2199
 Frc consts  --      1.4578                 1.5524                 1.5203
 IR Inten    --     41.5776                10.2386                 6.6376

                     85                     86                     87
                      A                      A                      A
 Frequencies --   1466.6776              1504.1288              1518.6524
 Red. masses --      2.5387                 2.1584                 1.0723
 Frc consts  --      3.2176                 2.8771                 1.4571
 IR Inten    --    215.2623                 6.6435                11.0201

                     88                     89                     90
                      A                      A                      A
 Frequencies --   1519.5267              1524.0001              1524.8059
 Red. masses --      1.0532                 1.0475                 1.0510
 Frc consts  --      1.4328                 1.4335                 1.4397
 IR Inten    --      6.1384                 8.3063                10.6830

                     91                     92                     93
                      A                      A                      A
 Frequencies --   1528.2134              1534.8254              1537.2632
 Red. masses --      1.0780                 1.0730                 1.0971
 Frc consts  --      1.4834                 1.4892                 1.5275
 IR Inten    --      3.7081                17.3601                 5.7218

                     94                     95                     96
                      A                      A                      A
 Frequencies --   1540.0406              1544.1661              1548.5055
 Red. masses --      1.3499                 1.0658                 2.1445
 Frc consts  --      1.8863                 1.4973                 3.0298
 IR Inten    --    219.5276                22.8449                10.2697

                     97                     98                     99
                      A                      A                      A
 Frequencies --   1552.8180              1648.0951              1667.8120
 Red. masses --      1.2538                 5.4933                 5.5592
 Frc consts  --      1.7812                 8.7913                 9.1108
 IR Inten    --     43.7090                 1.6652                 2.8956

                    100                    101                    102
                      A                      A                      A
 Frequencies --   3003.2823              3042.6313              3045.1388
 Red. masses --      1.0827                 1.0631                 1.0392
 Frc consts  --      5.7539                 5.7984                 5.6777
 IR Inten    --     15.5278                30.8685                13.7707

                    103                    104                    105
                      A                      A                      A
 Frequencies --   3050.0113              3051.6733              3076.0065
 Red. masses --      1.0400                 1.0356                 1.0698
 Frc consts  --      5.7002                 5.6821                 5.9639
 IR Inten    --     27.3313                22.1664                11.9771

                    106                    107                    108
                      A                      A                      A
 Frequencies --   3083.7145              3095.7582              3108.8269
 Red. masses --      1.0845                 1.0934                 1.0994
 Frc consts  --      6.0762                 6.1742                 6.2605
 IR Inten    --      8.1405                17.1778                 1.1980

                    109                    110                    111
                      A                      A                      A
 Frequencies --   3111.6323              3115.0962              3115.2800
 Red. masses --      1.0787                 1.0983                 1.0899
 Frc consts  --      6.1538                 6.2794                 6.2323
 IR Inten    --     17.4406                49.1202                59.0217

                    112                    113                    114
                      A                      A                      A
 Frequencies --   3127.6917              3134.3498              3143.2981
 Red. masses --      1.1018                 1.1021                 1.1005
 Frc consts  --      6.3502                 6.3792                 6.4062
 IR Inten    --     34.4090                14.2152                24.8154

                    115                    116                    117
                      A                      A                      A
 Frequencies --   3155.0360              3166.5601              3176.9392
 Red. masses --      1.1058                 1.0970                 1.0871
 Frc consts  --      6.4854                 6.4808                 6.4645
 IR Inten    --     10.4745                 7.5846                 8.0838

                    118                    119                    120
                      A                      A                      A
 Frequencies --   3187.1976              3195.8697              3204.0724
 Red. masses --      1.0860                 1.0899                 1.0938
 Frc consts  --      6.4999                 6.5589                 6.6158
 IR Inten    --      0.8253                10.4863                31.1202

                    121                    122                    123
                      A                      A                      A
 Frequencies --   3214.2368              3586.6947              3668.8151
 Red. masses --      1.0980                 1.0759                 1.0670
 Frc consts  --      6.6834                 8.1544                 8.4618
 IR Inten    --     19.4201                27.1176                61.6274

 - Thermochemistry -
 -------------------
 Temperature   298.150 Kelvin.  Pressure   1.00000 Atm.
 Atom     1 has atomic number  6 and mass  12.00000

 Molecular mass:   280.16094 amu.
 Principal axes and moments of inertia in atomic units:
                           1         2         3
     Eigenvalues --  4148.997287120.551238583.63108
           X            0.99968  -0.01506  -0.02027
           Y            0.01480   0.99981  -0.01303
           Z            0.02046   0.01272   0.99971
 This molecule is an asymmetric top.
 Rotational symmetry number  1.
 Warning -- assumption of classical behavior for rotation
           may cause significant error
 Rotational temperatures (Kelvin)      0.02088     0.01216     0.01009
 Rotational constants (GHZ):           0.43498     0.25346     0.21025
 Zero-point vibrational energy     990199.7 (Joules/Mol)
                                  236.66342 (Kcal/Mol)
 Warning -- explicit consideration of  31 degrees of freedom as
           vibrations may cause significant error
 Vibrational temperatures:     39.43    52.03    71.30    74.83    89.48
          (Kelvin)             97.03   127.72   135.00   160.47   208.85
                              255.43   279.38   321.72   333.63   351.83
                              369.23   388.51   397.87   458.11   475.62
                              534.01   537.21   585.08   592.29   598.79
                              625.45   717.17   736.53   774.83   780.92
                              832.85   908.44   915.81   980.98  1001.34
                             1033.64  1040.50  1108.24  1169.11  1213.27
                             1237.65  1253.08  1259.22  1309.14  1333.57
                             1365.37  1375.11  1393.65  1394.94  1414.31
                             1434.64  1464.79  1471.94  1520.91  1533.23
                             1540.64  1583.05  1603.22  1605.19  1649.70
                             1657.03  1696.41  1704.73  1719.52  1734.44
                             1750.81  1778.25  1803.52  1824.99  1871.81
                             1890.91  1926.80  1932.64  1961.98  1970.76
                             1990.34  1999.76  2018.21  2024.68  2050.74
                             2062.67  2063.91  2075.90  2092.48  2110.22
                             2164.11  2185.00  2186.26  2192.70  2193.86
                             2198.76  2208.27  2211.78  2215.78  2221.71
                             2227.95  2234.16  2371.24  2399.61  4321.05
                             4377.67  4381.28  4388.29  4390.68  4425.69
                             4436.78  4454.11  4472.91  4476.94  4481.93
                             4482.19  4500.05  4509.63  4522.50  4539.39
                             4555.97  4570.91  4585.67  4598.14  4609.95
                             4624.57  5160.45  5278.61

 Zero-point correction=                           0.377147 (Hartree/Particle)
 Thermal correction to Energy=                    0.397649
 Thermal correction to Enthalpy=                  0.398593
 Thermal correction to Gibbs Free Energy=         0.326783
 Sum of electronic and zero-point Energies=          -1168.678921
 Sum of electronic and thermal Energies=             -1168.658419
 Sum of electronic and thermal Enthalpies=           -1168.657475
 Sum of electronic and thermal Free Energies=        -1168.729285

                     E (Thermal)             CV                S
                      KCal/Mol        Cal/Mol-Kelvin    Cal/Mol-Kelvin
 Total                  249.529             77.103            151.138
 Electronic               0.000              0.000              0.000
 Translational            0.889              2.981             42.789
 Rotational               0.889              2.981             33.894
 Vibrational            247.751             71.141             74.455
 Vibration     1          0.593              1.984              6.009
 Vibration     2          0.594              1.982              5.459
 Vibration     3          0.595              1.978              4.835
 Vibration     4          0.596              1.977              4.739
 Vibration     5          0.597              1.972              4.386
 Vibration     6          0.598              1.970              4.227
 Vibration     7          0.602              1.957              3.687
 Vibration     8          0.603              1.954              3.579
 Vibration     9          0.607              1.940              3.242
 Vibration    10          0.617              1.908              2.735
 Vibration    11          0.628              1.870              2.354
 Vibration    12          0.635              1.848              2.188
 Vibration    13          0.649              1.805              1.930
 Vibration    14          0.653              1.792              1.864
 Vibration    15          0.660              1.772              1.770
 Vibration    16          0.666              1.752              1.685
 Vibration    17          0.674              1.728              1.596
 Vibration    18          0.678              1.717              1.555
 Vibration    19          0.705              1.638              1.318
 Vibration    20          0.713              1.614              1.257
 Vibration    21          0.743              1.531              1.075
 Vibration    22          0.745              1.527              1.066
 Vibration    23          0.771              1.456              0.939
 Vibration    24          0.776              1.445              0.921
 Vibration    25          0.779              1.435              0.905
 Vibration    26          0.795              1.395              0.843
 Vibration    27          0.854              1.253              0.662
 Vibration    28          0.867              1.224              0.629
 Vibration    29          0.894              1.165              0.568
 Vibration    30          0.898              1.156              0.559
 Vibration    31          0.935              1.077              0.487

 Optimization completed.
    -- Stationary point found.
 Normal termination of Gaussian 16 at Mon Dec 14 14:31:21 2020.

 ----------------------------------------------------------------------
 # B3LYP/6-311++G(d,p) empiricaldispersion=gd3bj scf=xqc pop=npa geom=c
 heck
 ----------------------------------------------------------------------

 --------------------------------------
 CID_12623021_JID_9538_Energie_neutraal
 --------------------------------------
 Structure from the checkpoint file:  "JID_9538.chk"
 Charge =  0 Multiplicity = 1

 SCF Done:  E(RB3LYP) =  -1169.30246060     A.U. after   15 cycles
 Normal termination of Gaussian 16 at Mon Dec 14 14:44:13 2020.

 ----------------------------------------------------------------------
 # B3LYP/6-311++G(d,p) empiricaldispersion=gd3bj scf=xqc pop=npa geom=c
 heck
 ----------------------------------------------------------------------

 ------------------------------------
 CID_12623021_JID_9538_Energie_kation
 ------------------------------------
 Structure from the checkpoint file:  "JID_9538.chk"
 Charge =  1 Multiplicity = 2

 SCF Done:  E(UB3LYP) =  -1169.02017198     A.U. after   27 cycles
 Normal termination of Gaussian 16 at Mon Dec 14 15:15:50 2020.
 Gaussian 16:  ES64L-G16RevA.03 25-Dec-2016

 ----------------------------------------------------------------------
 # B3LYP/6-311++G(d,p) empiricaldispersion=gd3bj scf=xqc pop=npa geom=c
 heck
 ----------------------------------------------------------------------

 -----------------------------------
 CID_12623021_JID_9538_Energie_anion
 -----------------------------------
 Structure from the checkpoint file:  "JID_9538.chk"
 Charge = -1 Multiplicity = 2

                         Standard orientation:
 ---------------------------------------------------------------------
 Center     Atomic      Atomic             Coordinates (Angstroms)
 Number     Number       Type             X           Y           Z
 ---------------------------------------------------------------------
      1          6           0        3.055243    0.037577   -2.685392
      2          6           0        3.143011   -0.263175   -1.190478
      3          7           0        1.805068   -0.276866   -0.575482
      4          6           0        1.035514   -1.520048   -0.811378
      5          6           0        1.140181   -2.473541    0.385740
      6          8           0        2.484769   -2.713472    0.768103
      7          6           0        1.584907    0.396889    0.600655
      8         16           0        2.790143    0.859142    1.692183
      9          7           0        0.276189    0.633148    0.910988
     10          6           0       -0.787565    0.957186   -0.050266
     11          6           0       -1.914840   -0.061200   -0.009161
     12          6           0       -2.560598   -0.448453   -1.188771
     13          6           0       -3.613251   -1.363126   -1.160344
     14          6           0       -4.033762   -1.905536    0.054436
     15          6           0       -3.394442   -1.527695    1.236178
     16          6           0       -2.342878   -0.612250    1.203170
     17          6           0       -1.273433    2.407773    0.220918
     18          6           0       -0.109081    3.399935    0.096639
     19          6           0       -2.425341    2.808631   -0.707221
     20          1           0        2.463708   -0.710433   -3.225430
     21          1           0        4.059546    0.044796   -3.122961
     22          1           0        2.597254    1.018072   -2.853537
     23          1           0        3.632397   -1.225900   -1.006577
     24          1           0        3.729491    0.502045   -0.683564
     25          1           0       -0.013650   -1.316195   -1.033747
     26          1           0        1.471769   -1.989579   -1.695067
     27          1           0        0.550871   -2.077085    1.223305
     28          1           0        0.706706   -3.440170    0.106773
     29          1           0        2.801389   -1.919978    1.236371
     30          1           0        0.186604    1.072634    1.818869
     31          1           0       -0.328537    0.940046   -1.044047
     32          1           0       -2.231527   -0.031706   -2.137802
     33          1           0       -4.098785   -1.656394   -2.086818
     34          1           0       -4.849605   -2.622029    0.079731
     35          1           0       -3.711213   -1.949783    2.185690
     36          1           0       -1.840225   -0.337715    2.125920
     37          1           0       -1.650267    2.428688    1.255833
     38          1           0        0.291411    3.392086   -0.925142
     39          1           0       -0.450996    4.417951    0.311693
     40          1           0        0.715142    3.168193    0.777552
     41          1           0       -3.298228    2.162845   -0.583289
     42          1           0       -2.730932    3.839992   -0.501997
     43          1           0       -2.113544    2.759345   -1.758388
 ---------------------------------------------------------------------

 SCF Done:  E(UB3LYP) =  -1169.29518372     A.U. after   33 cycles
 SCF Done:  E(UB3LYP) =  -1169.29518372     a.u. after    1 cycles

 The electronic state is 2-A.
 Alpha  occ. eigenvalues --  -88.68534 -19.02281 -14.23814 -14.23795 -10.16314
 Alpha  occ. eigenvalues --  -10.12553 -10.11864 -10.10362 -10.09812 -10.09742
 Alpha  occ. eigenvalues --  -10.09042 -10.08368 -10.08325 -10.08266 -10.08105
 Alpha  occ. eigenvalues --  -10.07751 -10.07526 -10.07269 -10.06345  -7.77293
 Alpha  occ. eigenvalues --   -5.73676  -5.73146  -5.72841  -0.92670  -0.88551
 Alpha  occ. eigenvalues --   -0.82119  -0.76769  -0.72408  -0.67487  -0.66674
 Alpha  occ. eigenvalues --   -0.65677  -0.65064  -0.61304  -0.60034  -0.57618
 Alpha  occ. eigenvalues --   -0.54345  -0.53499  -0.51867  -0.50645  -0.48524
 Alpha  occ. eigenvalues --   -0.45808  -0.43213  -0.42734  -0.40755  -0.39547
 Alpha  occ. eigenvalues --   -0.38680  -0.37676  -0.36485  -0.36143  -0.35818
 Alpha  occ. eigenvalues --   -0.34666  -0.34334  -0.33130  -0.32203  -0.31482
 Alpha  occ. eigenvalues --   -0.30729  -0.29914  -0.29773  -0.29251  -0.28239
 Alpha  occ. eigenvalues --   -0.27702  -0.27626  -0.26812  -0.26307  -0.25570
 Alpha  occ. eigenvalues --   -0.25354  -0.24946  -0.24569  -0.23788  -0.23210
 Alpha  occ. eigenvalues --   -0.18910  -0.16695  -0.16007  -0.14373  -0.12323
 Alpha  occ. eigenvalues --   -0.10843   0.04110
 Alpha virt. eigenvalues --    0.05759   0.06503   0.06863   0.07198   0.07367
 Alpha virt. eigenvalues --    0.07469   0.08539   0.08588   0.09038   0.09213
 Alpha virt. eigenvalues --    0.09709   0.10557   0.10899   0.11534   0.11767

  Beta  occ. eigenvalues --  -88.68531 -19.02280 -14.23807 -14.23758 -10.16014
  Beta  occ. eigenvalues --  -10.12535 -10.11854 -10.10317 -10.09803 -10.09741
  Beta  occ. eigenvalues --  -10.09045 -10.08356 -10.08314 -10.08203 -10.08069
  Beta  occ. eigenvalues --  -10.07676 -10.07519 -10.07264 -10.06302  -7.77290
  Beta  occ. eigenvalues --   -5.73685  -5.73122  -5.72839  -0.92657  -0.88346
  Beta  occ. eigenvalues --   -0.82041  -0.76681  -0.72336  -0.67395  -0.66628
  Beta  occ. eigenvalues --   -0.65537  -0.64925  -0.61227  -0.60014  -0.57547
  Beta  occ. eigenvalues --   -0.54238  -0.53434  -0.51745  -0.50576  -0.48483
  Beta  occ. eigenvalues --   -0.45714  -0.43140  -0.42670  -0.40671  -0.39464
  Beta  occ. eigenvalues --   -0.38589  -0.37601  -0.36420  -0.36101  -0.35770
  Beta  occ. eigenvalues --   -0.34597  -0.34301  -0.33068  -0.32135  -0.31439
  Beta  occ. eigenvalues --   -0.30691  -0.29883  -0.29715  -0.29158  -0.28106
  Beta  occ. eigenvalues --   -0.27581  -0.27441  -0.26735  -0.26094  -0.25490
  Beta  occ. eigenvalues --   -0.25282  -0.24898  -0.24509  -0.23726  -0.22917
  Beta  occ. eigenvalues --   -0.18870  -0.16367  -0.15835  -0.14161  -0.12113
  Beta  occ. eigenvalues --   -0.10796
  Beta virt. eigenvalues --    0.06139   0.06711   0.06896   0.07243   0.07620
  Beta virt. eigenvalues --    0.07775   0.08325   0.08856   0.08996   0.09182
  Beta virt. eigenvalues --    0.09272   0.09857   0.10774   0.11138   0.11552

 Mulliken charges and spin densities:
               1          2
     1  C    0.612951  -1.084803
     2  C   -0.652441   0.462389
     3  N    0.194831   0.048894
     4  C    0.070963  -0.053061
     5  C   -0.460484  -0.089873
     6  O   -0.231862   0.003866
     7  C    0.057729   0.001123
     8  S   -1.014950   0.042212
     9  N    0.166731   0.035232
    10  C   -0.001104  -0.223384
    11  C    0.863556  -0.513349
    12  C   -0.258340   0.180684
    13  C   -0.214324  -0.133450
    14  C    0.825646  -1.213972
    15  C   -0.712473   0.434671
    16  C   -0.416727   0.247558
    17  C   -0.035208   0.354298
    18  C   -0.422586  -0.096303
    19  C   -0.456651  -0.324770
    20  H   -0.266080   0.400211
    21  H   -0.233160   0.369668
    22  H   -0.076141   0.222874
    23  H    0.179705  -0.009194
    24  H    0.112399   0.030529
    25  H    0.471997  -0.320684
    26  H    0.004650   0.203074
    27  H    0.192292  -0.014170
    28  H    0.094559   0.073436
    29  H    0.216952  -0.002522
    30  H    0.285945  -0.005202
    31  H    0.457304  -0.196680
    32  H   -0.354673   0.529677
    33  H   -0.800253   0.997952
    34  H   -0.051203   0.191462
    35  H    0.066945   0.094050
    36  H    0.130576   0.000345
    37  H    0.123195   0.023731
    38  H    0.088546   0.055836
    39  H    0.142924   0.009230
    40  H    0.074395   0.042735
    41  H    0.187002  -0.037395
    42  H    0.110706   0.023915
    43  H   -0.073838   0.239155
 Sum of Mulliken charges =  -1.00000   1.00000

 Dipole moment (field-independent basis, Debye):
    X=             -1.7167    Y=              2.3790    Z=              4.7661  Tot=              5.5966
 Quadrupole moment (field-independent basis, Debye-Ang):
   XX=           -202.1233   YY=           -161.5747   ZZ=           -175.2222
   XY=             -8.2990   XZ=            -15.4804   YZ=             -3.1427

 Summary of Natural Population Analysis:

                                       Natural Population
                Natural  -----------------------------------------------
    Atom  No    Charge         Core      Valence    Rydberg      Total
 -----------------------------------------------------------------------
      C    1   -0.28813      0.99966     2.28366    0.00482     3.28813
      C    2   -0.08913      0.99960     2.07908    0.01044     3.08913
      N    3   -0.27607      0.99961     2.75880    0.01765     3.77607
      C    4   -0.09509      0.99959     2.08426    0.01124     3.09509
      C    5   -0.01874      0.99960     2.00668    0.01246     3.01874
      O    6   -0.37674      0.99990     3.37117    0.00567     4.37674
      C    7    0.20867      0.99959     1.76976    0.02198     2.79133
      S    8   -0.16893      4.99957     3.15711    0.01225     8.16893
      N    9   -0.31742      0.99963     2.80481    0.01297     3.81742
      C   10   -0.01936      0.99951     2.00402    0.01583     3.01936
      C   11   -0.02092      0.99948     2.00985    0.01158     3.02092
      C   12   -0.09262      0.99950     2.08235    0.01077     3.09262
      C   13   -0.09279      0.99956     2.08270    0.01053     3.09279
      C   14   -0.10658      0.99956     2.09694    0.01008     3.10658
      C   15   -0.08906      0.99956     2.07981    0.00969     3.08906
      C   16   -0.10382      0.99949     2.09518    0.00914     3.10382
      C   17   -0.10576      0.99960     2.09880    0.00736     3.10576
      C   18   -0.28933      0.99965     2.28400    0.00567     3.28933
      C   19   -0.28655      0.99964     2.28140    0.00551     3.28655
      H   20    0.09827      0.00000     0.40034    0.00140     0.40173
      H   21    0.09875      0.00000     0.40034    0.00091     0.40125
      H   22    0.09985      0.00000     0.39887    0.00129     0.40015
      H   23    0.09576      0.00000     0.40310    0.00114     0.40424
      H   24    0.11147      0.00000     0.38724    0.00130     0.38853
      H   25    0.10570      0.00000     0.39259    0.00171     0.39430
      H   26    0.10086      0.00000     0.39808    0.00106     0.39914
      H   27    0.08451      0.00000     0.41424    0.00126     0.41549
      H   28    0.08630      0.00000     0.41271    0.00099     0.41370
      H   29    0.23876      0.00000     0.25873    0.00251     0.26124
      H   30    0.19481      0.00000     0.30362    0.00157     0.30519
      H   31    0.10937      0.00000     0.38787    0.00276     0.39063
      H   32    0.10442      0.00000     0.39372    0.00186     0.39558
      H   33    0.10340      0.00000     0.39483    0.00177     0.39660
      H   34    0.09995      0.00000     0.39923    0.00082     0.40005
      H   35    0.09702      0.00000     0.40224    0.00073     0.40298
      H   36    0.09963      0.00000     0.39929    0.00108     0.40037
      H   37    0.09031      0.00000     0.40825    0.00144     0.40969
      H   38    0.09990      0.00000     0.39929    0.00081     0.40010
      H   39    0.09609      0.00000     0.40325    0.00067     0.40391
      H   40    0.10962      0.00000     0.38950    0.00088     0.39038
      H   41    0.10688      0.00000     0.39237    0.00075     0.39312
      H   42    0.09677      0.00000     0.40255    0.00068     0.40323
      H   43    0.09995      0.00000     0.39911    0.00093     0.40005
 =======================================================================
   * Total *    0.00000     22.99230    52.77172    0.23598    76.00000

 Normal termination of Gaussian 16 at Mon Dec 14 15:55:25 2020.
