 Gaussian 16, Revision A.03,

 -----------------------------------------------------------
 # opt freq B3LYP/6-31G(d) empiricaldispersion=gd3bj scf=xqc
 -----------------------------------------------------------

 -------------------------------
 CID_152046399_JID_6165_neutraal
 -------------------------------
 Symbolic Z-matrix:
 Charge =  0 Multiplicity = 1

 SCF Done:  E(RB3LYP) =  -1136.12760044     A.U. after   16 cycles
 SCF Done:  E(RB3LYP) =  -1136.13545829     A.U. after   15 cycles
 SCF Done:  E(RB3LYP) =  -1136.13786605     A.U. after   15 cycles
 SCF Done:  E(RB3LYP) =  -1136.13968055     A.U. after   15 cycles
 SCF Done:  E(RB3LYP) =  -1136.14241876     A.U. after   16 cycles
 SCF Done:  E(RB3LYP) =  -1136.14458901     A.U. after   15 cycles
 SCF Done:  E(RB3LYP) =  -1136.14758718     A.U. after   15 cycles
 SCF Done:  E(RB3LYP) =  -1136.14883061     A.U. after   16 cycles
 SCF Done:  E(RB3LYP) =  -1136.14920785     A.U. after   13 cycles
 SCF Done:  E(RB3LYP) =  -1136.14933170     A.U. after   13 cycles
 SCF Done:  E(RB3LYP) =  -1136.15936500     A.U. after   11 cycles
 SCF Done:  E(RB3LYP) =  -1136.15936880     A.U. after   11 cycles
 SCF Done:  E(RB3LYP) =  -1136.15937167     A.U. after   11 cycles
 SCF Done:  E(RB3LYP) =  -1136.15937179     A.U. after    8 cycles
 SCF Done:  E(RB3LYP) =  -1136.15937175     A.U. after    8 cycles
 Optimization completed.
    -- Stationary point found.
 Normal termination of Gaussian 16 at Thu Dec 10 21:34:22 2020.

 --------------------------------------------------------------------
 #N Geom=AllCheck Guess=TCheck SCRF=Check GenChk RB3LYP/6-31G(d) Freq
 --------------------------------------------------------------------

 Structure from the checkpoint file:  "JID_6165.chk"
 -------------------------------
 CID_152046399_JID_6165_neutraal
 -------------------------------
 Charge =  0 Multiplicity = 1

 SCF Done:  E(RB3LYP) =  -1136.15937175     A.U. after    1 cycles

  Exact polarizability: 139.982 -10.410 166.985  -2.681  -1.387 112.820
 Approx polarizability: 185.561 -15.322 279.681  -2.984  -3.633 179.115

                      1                      2                      3
                      A                      A                      A
 Frequencies --     25.6084                48.4763                63.6144
 Red. masses --      7.8471                 4.1474                 5.3773
 Frc consts  --      0.0030                 0.0057                 0.0128
 IR Inten    --      0.2175                 0.4720                 1.2422

                      4                      5                      6
                      A                      A                      A
 Frequencies --     71.6161                99.8715               161.3243
 Red. masses --      6.3474                 5.5241                 4.0199
 Frc consts  --      0.0192                 0.0325                 0.0616
 IR Inten    --      2.7308                 1.8563                 3.6138

                      7                      8                      9
                      A                      A                      A
 Frequencies --    201.6046               218.9594               244.9315
 Red. masses --     10.5731                 4.1257                 4.0617
 Frc consts  --      0.2532                 0.1165                 0.1436
 IR Inten    --      1.9717                 0.4957                 5.8772

                     10                     11                     12
                      A                      A                      A
 Frequencies --    260.1255               275.5340               305.0535
 Red. masses --      2.8733                 2.8776                 4.2498
 Frc consts  --      0.1145                 0.1287                 0.2330
 IR Inten    --      5.8338                 2.9693                 3.3898

                     13                     14                     15
                      A                      A                      A
 Frequencies --    316.6884               334.8277               378.2046
 Red. masses --      5.7025                 2.9230                 2.9254
 Frc consts  --      0.3370                 0.1931                 0.2465
 IR Inten    --      2.4243                 9.6186                 2.3688

                     16                     17                     18
                      A                      A                      A
 Frequencies --    408.9308               433.2044               457.0591
 Red. masses --      2.8086                 1.9325                 3.7102
 Frc consts  --      0.2767                 0.2137                 0.4567
 IR Inten    --      2.6820                 0.8164                 1.0470

                     19                     20                     21
                      A                      A                      A
 Frequencies --    491.1801               494.4752               553.1844
 Red. masses --      3.3968                 3.1738                 4.1854
 Frc consts  --      0.4828                 0.4572                 0.7546
 IR Inten    --      0.9486                 1.8815                 8.7849

                     22                     23                     24
                      A                      A                      A
 Frequencies --    568.5039               601.4814               632.7845
 Red. masses --     13.0549                 4.7229                 2.2896
 Frc consts  --      2.4859                 1.0067                 0.5402
 IR Inten    --      6.6147                 3.1890                14.6089

                     25                     26                     27
                      A                      A                      A
 Frequencies --    651.6238               675.6547               753.2201
 Red. masses --      4.6250                 2.6676                 3.5660
 Frc consts  --      1.1571                 0.7175                 1.1920
 IR Inten    --     16.0331                12.5431                 1.3138

                     28                     29                     30
                      A                      A                      A
 Frequencies --    821.7813               837.6559               877.1937
 Red. masses --      2.2632                 6.3567                 1.9660
 Frc consts  --      0.9005                 2.6279                 0.8913
 IR Inten    --      8.4982                 0.5545                 2.3536

                     31                     32                     33
                      A                      A                      A
 Frequencies --    882.3807               903.5910               914.0297
 Red. masses --      2.1151                 3.1364                 2.3314
 Frc consts  --      0.9703                 1.5088                 1.1476
 IR Inten    --      1.0907                20.4429                 5.7743

                     34                     35                     36
                      A                      A                      A
 Frequencies --    942.1001               963.4781               991.4638
 Red. masses --      2.5404                 2.4228                 2.2386
 Frc consts  --      1.3285                 1.3251                 1.2965
 IR Inten    --     18.6529                 1.6802                 2.3881

                     37                     38                     39
                      A                      A                      A
 Frequencies --   1015.1136              1036.5047              1048.4401
 Red. masses --      2.0235                 2.2816                 2.1709
 Frc consts  --      1.2285                 1.4442                 1.4060
 IR Inten    --     54.5789                49.0024                 7.4712

                     40                     41                     42
                      A                      A                      A
 Frequencies --   1067.9708              1084.1343              1109.7265
 Red. masses --      2.3936                 7.7539                 1.7278
 Frc consts  --      1.6085                 5.3695                 1.2536
 IR Inten    --      8.2029               121.0253                 1.9736

                     43                     44                     45
                      A                      A                      A
 Frequencies --   1122.4016              1155.4292              1158.3878
 Red. masses --      2.1192                 3.1942                 2.5699
 Frc consts  --      1.5730                 2.5125                 2.0318
 IR Inten    --     38.2340                56.4486                29.4964

                     46                     47                     48
                      A                      A                      A
 Frequencies --   1166.4295              1190.1652              1202.7601
 Red. masses --      2.3261                 1.6436                 2.8245
 Frc consts  --      1.8646                 1.3717                 2.4074
 IR Inten    --     46.3166                30.4699                22.4350

                     49                     50                     51
                      A                      A                      A
 Frequencies --   1230.0189              1244.0152              1252.1440
 Red. masses --      3.2312                 2.5714                 1.1385
 Frc consts  --      2.8803                 2.3446                 1.0517
 IR Inten    --     30.6978                90.1032                16.8573

                     52                     53                     54
                      A                      A                      A
 Frequencies --   1263.9238              1290.6995              1317.2861
 Red. masses --      1.5026                 1.4858                 1.4083
 Frc consts  --      1.4143                 1.4584                 1.4398
 IR Inten    --      1.1044                13.7364                53.9821

                     55                     56                     57
                      A                      A                      A
 Frequencies --   1327.4431              1344.0810              1354.1016
 Red. masses --      1.2771                 1.2025                 1.1753
 Frc consts  --      1.3259                 1.2799                 1.2697
 IR Inten    --     11.1724                 4.6271                 8.6861

                     58                     59                     60
                      A                      A                      A
 Frequencies --   1372.4148              1384.5301              1388.4310
 Red. masses --      1.4115                 1.2609                 1.2925
 Frc consts  --      1.5664                 1.4241                 1.4680
 IR Inten    --     33.8730                 7.6853                 4.9779

                     61                     62                     63
                      A                      A                      A
 Frequencies --   1410.7279              1416.0092              1438.7852
 Red. masses --      1.3347                 1.3554                 1.3788
 Frc consts  --      1.5650                 1.6013                 1.6817
 IR Inten    --     44.9347                 1.5841                 1.4358

                     64                     65                     66
                      A                      A                      A
 Frequencies --   1449.4168              1486.4817              1496.4704
 Red. masses --      1.4318                 1.0863                 1.0830
 Frc consts  --      1.7723                 1.4142                 1.4289
 IR Inten    --      9.9656                 1.5192                11.7646

                     67                     68                     69
                      A                      A                      A
 Frequencies --   1504.2572              1510.8077              1515.8987
 Red. masses --      1.0868                 1.0798                 1.0874
 Frc consts  --      1.4490                 1.4521                 1.4722
 IR Inten    --     21.3442                 1.5396                 5.5181

                     70                     71                     72
                      A                      A                      A
 Frequencies --   1523.9779              1533.8576              2236.4256
 Red. masses --      1.1057                 1.1052                13.9577
 Frc consts  --      1.5130                 1.5320                41.1313
 IR Inten    --     11.4829                 1.3364               521.2397

                     73                     74                     75
                      A                      A                      A
 Frequencies --   2949.7497              2952.7013              2961.8143
 Red. masses --      1.0813                 1.0740                 1.0734
 Frc consts  --      5.5434                 5.5168                 5.5477
 IR Inten    --     12.5434                32.9035                95.2027

                     76                     77                     78
                      A                      A                      A
 Frequencies --   2996.2229              3003.3728              3080.6326
 Red. masses --      1.0704                 1.0704                 1.0580
 Frc consts  --      5.6617                 5.6890                 5.9159
 IR Inten    --     22.8289                94.0700                 4.4056

                     79                     80                     81
                      A                      A                      A
 Frequencies --   3090.2970              3098.2977              3118.8752
 Red. masses --      1.0616                 1.0597                 1.0940
 Frc consts  --      5.9731                 5.9936                 6.2697
 IR Inten    --     22.4119                 4.0015                34.2214

                     82                     83                     84
                      A                      A                      A
 Frequencies --   3121.1506              3127.0158              3132.7384
 Red. masses --      1.0959                 1.0883                 1.0886
 Frc consts  --      6.2898                 6.2698                 6.2946
 IR Inten    --     37.2377                19.9943                11.3790

                     85                     86                     87
                      A                      A                      A
 Frequencies --   3135.0213              3144.3245              3153.3791
 Red. masses --      1.1068                 1.1055                 1.1059
 Frc consts  --      6.4093                 6.4397                 6.4790
 IR Inten    --      7.3879                 8.1194                 6.0022

 - Thermochemistry -
 -------------------
 Temperature   298.150 Kelvin.  Pressure   1.00000 Atm.
 Atom     1 has atomic number  6 and mass  12.00000

 Molecular mass:   245.09465 amu.
 Principal axes and moments of inertia in atomic units:
                           1         2         3
     Eigenvalues --  3277.337274470.080286827.49881
           X            0.99941   0.03392  -0.00574
           Y           -0.03388   0.99940   0.00702
           Z            0.00597  -0.00682   0.99996
 This molecule is an asymmetric top.
 Rotational symmetry number  1.
 Warning -- assumption of classical behavior for rotation
           may cause significant error
 Rotational temperatures (Kelvin)      0.02643     0.01938     0.01269
 Rotational constants (GHZ):           0.55067     0.40374     0.26433
 Zero-point vibrational energy     667376.7 (Joules/Mol)
                                  159.50687 (Kcal/Mol)
 Warning -- explicit consideration of  23 degrees of freedom as
           vibrations may cause significant error
 Vibrational temperatures:     36.84    69.75    91.53   103.04   143.69
          (Kelvin)            232.11   290.06   315.03   352.40   374.26
                              396.43   438.90   455.64   481.74   544.15
                              588.36   623.28   657.61   706.70   711.44
                              795.91   817.95   865.40   910.44   937.54
                              972.12  1083.72  1182.36  1205.20  1262.09
                             1269.55  1300.07  1315.08  1355.47  1386.23
                             1426.50  1460.52  1491.30  1508.47  1536.57
                             1559.83  1596.65  1614.89  1662.40  1666.66
                             1678.23  1712.38  1730.50  1769.72  1789.86
                             1801.56  1818.50  1857.03  1895.28  1909.89
                             1933.83  1948.25  1974.60  1992.03  1997.64
                             2029.72  2037.32  2070.09  2085.39  2138.72
                             2153.09  2164.29  2173.72  2181.04  2192.66
                             2206.88  3217.72  4244.03  4248.28  4261.39
                             4310.90  4321.18  4432.34  4446.25  4457.76
                             4487.37  4490.64  4499.08  4507.31  4510.60
                             4523.98  4537.01

 Zero-point correction=                           0.254190 (Hartree/Particle)
 Thermal correction to Energy=                    0.269017
 Thermal correction to Enthalpy=                  0.269962
 Thermal correction to Gibbs Free Energy=         0.210997
 Sum of electronic and zero-point Energies=          -1135.905181
 Sum of electronic and thermal Energies=             -1135.890354
 Sum of electronic and thermal Enthalpies=           -1135.889410
 Sum of electronic and thermal Free Energies=        -1135.948375

                     E (Thermal)             CV                S
                      KCal/Mol        Cal/Mol-Kelvin    Cal/Mol-Kelvin
 Total                  168.811             56.880            124.101
 Electronic               0.000              0.000              0.000
 Translational            0.889              2.981             42.390
 Rotational               0.889              2.981             32.970
 Vibrational            167.033             50.919             48.741
 Vibration     1          0.593              1.985              6.143
 Vibration     2          0.595              1.978              4.879
 Vibration     3          0.597              1.972              4.342
 Vibration     4          0.598              1.968              4.108
 Vibration     5          0.604              1.949              3.457
 Vibration     6          0.622              1.890              2.534
 Vibration     7          0.638              1.838              2.118
 Vibration     8          0.647              1.812              1.968
 Vibration     9          0.660              1.771              1.767
 Vibration    10          0.668              1.746              1.661
 Vibration    11          0.677              1.719              1.561
 Vibration    12          0.696              1.664              1.389
 Vibration    13          0.704              1.642              1.327
 Vibration    14          0.716              1.606              1.237
 Vibration    15          0.748              1.517              1.046
 Vibration    16          0.773              1.451              0.930
 Vibration    17          0.794              1.398              0.848
 Vibration    18          0.815              1.345              0.775
 Vibration    19          0.847              1.270              0.681
 Vibration    20          0.850              1.262              0.672
 Vibration    21          0.909              1.133              0.538
 Vibration    22          0.925              1.099              0.507
 Vibration    23          0.960              1.029              0.447

                           ! Non-Optimized Parameters !
 Normal termination of Gaussian 16 at Thu Dec 10 21:45:42 2020.

 ----------------------------------------------------------------------
 # B3LYP/6-311++G(d,p) empiricaldispersion=gd3bj scf=xqc pop=npa geom=c
 heck
 ----------------------------------------------------------------------

 ---------------------------------------
 CID_152046399_JID_6165_Energie_neutraal
 ---------------------------------------
 Structure from the checkpoint file:  "JID_6165.chk"
 Charge =  0 Multiplicity = 1

 SCF Done:  E(RB3LYP) =  -1136.39595157     A.U. after   17 cycles
 Normal termination of Gaussian 16 at Thu Dec 10 21:51:34 2020.

 ----------------------------------------------------------------------
 # B3LYP/6-311++G(d,p) empiricaldispersion=gd3bj scf=xqc pop=npa geom=c
 heck
 ----------------------------------------------------------------------

 -------------------------------------
 CID_152046399_JID_6165_Energie_kation
 -------------------------------------
 Structure from the checkpoint file:  "JID_6165.chk"
 Charge =  1 Multiplicity = 2

 SCF Done:  E(UB3LYP) =  -1136.09430485     A.U. after   32 cycles
 Normal termination of Gaussian 16 at Thu Dec 10 22:11:33 2020.
 Gaussian 16:  ES64L-G16RevA.03 25-Dec-2016

 ----------------------------------------------------------------------
 # B3LYP/6-311++G(d,p) empiricaldispersion=gd3bj scf=xqc pop=npa geom=c
 heck
 ----------------------------------------------------------------------

 ------------------------------------
 CID_152046399_JID_6165_Energie_anion
 ------------------------------------
 Structure from the checkpoint file:  "JID_6165.chk"
 Charge = -1 Multiplicity = 2

                         Standard orientation:
 ---------------------------------------------------------------------
 Center     Atomic      Atomic             Coordinates (Angstroms)
 Number     Number       Type             X           Y           Z
 ---------------------------------------------------------------------
      1          6           0        2.062510   -0.696237   -0.844477
      2          6           0        3.377810   -0.781854   -0.073626
      3          8           0        3.980837    0.490557    0.092062
      4          6           0        3.100970    1.366634    0.780094
      5          6           0        1.783090    1.522696    0.034148
      6          7           0        1.148681    0.208790   -0.142614
      7          6           0       -0.183774    0.337676   -0.715267
      8          6           0       -0.789784   -0.989961   -1.185941
      9         16           0       -0.897457   -2.258560    0.150159
     10          8           0       -1.786299   -3.365776   -0.370530
     11          6           0       -1.921866   -1.180013    1.238611
     12          6           0       -1.241583    0.166351    1.505792
     13          7           0       -1.019383    1.001306    0.317363
     14          7           0       -2.309837    1.317995   -0.282196
     15          7           0       -2.465990    2.557470   -0.340134
     16          7           0       -2.754701    3.651382   -0.464866
     17          1           0        2.263031   -0.356058   -1.877305
     18          1           0        1.631540   -1.698865   -0.887498
     19          1           0        3.184788   -1.242310    0.909092
     20          1           0        4.095892   -1.400759   -0.618453
     21          1           0        3.614485    2.328981    0.857032
     22          1           0        2.905361    0.986527    1.796397
     23          1           0        1.974773    1.997536   -0.946460
     24          1           0        1.101661    2.165678    0.595284
     25          1           0       -0.189683    1.025423   -1.580272
     26          1           0       -1.811798   -0.820974   -1.536617
     27          1           0       -0.221988   -1.441103   -2.002631
     28          1           0       -2.071390   -1.736486    2.168804
     29          1           0       -2.889228   -1.062629    0.739864
     30          1           0       -0.255380    0.014175    1.951496
     31          1           0       -1.844656    0.749207    2.207610
 ---------------------------------------------------------------------

 SCF Done:  E(UB3LYP) =  -1136.39960541     A.U. after   33 cycles
 SCF Done:  E(UB3LYP) =  -1136.39960541     a.u. after    1 cycles

 The electronic state is 2-A.
 Alpha  occ. eigenvalues --  -88.84195 -19.04061 -18.97887 -14.28948 -14.22390
 Alpha  occ. eigenvalues --  -14.22223 -14.22088 -14.20656 -10.13806 -10.13046
 Alpha  occ. eigenvalues --  -10.13021 -10.10720 -10.10105 -10.09995 -10.09500
 Alpha  occ. eigenvalues --  -10.09486  -7.91911  -5.88187  -5.88033  -5.87508
 Alpha  occ. eigenvalues --   -0.97793  -0.95860  -0.90948  -0.87572  -0.83512
 Alpha  occ. eigenvalues --   -0.76002  -0.69064  -0.67911  -0.67414  -0.60719
 Alpha  occ. eigenvalues --   -0.56970  -0.54470  -0.53312  -0.50292  -0.47228
 Alpha  occ. eigenvalues --   -0.42608  -0.41385  -0.39621  -0.39125  -0.38387
 Alpha  occ. eigenvalues --   -0.37092  -0.36875  -0.35293  -0.35103  -0.34668
 Alpha  occ. eigenvalues --   -0.33943  -0.32724  -0.32089  -0.30899  -0.30244
 Alpha  occ. eigenvalues --   -0.29830  -0.29314  -0.27808  -0.27338  -0.26816
 Alpha  occ. eigenvalues --   -0.26099  -0.25334  -0.22805  -0.20735  -0.17887
 Alpha  occ. eigenvalues --   -0.16626  -0.14388  -0.12847  -0.11932  -0.11118
 Alpha  occ. eigenvalues --    0.04720
 Alpha virt. eigenvalues --    0.06295   0.07093   0.07869   0.07991   0.09484
 Alpha virt. eigenvalues --    0.09948   0.10328   0.10715   0.11005   0.12075
 Alpha virt. eigenvalues --    0.12289   0.12461   0.13151   0.13514   0.13892

  Beta  occ. eigenvalues --  -88.84194 -19.04058 -18.97879 -14.28458 -14.22285
  Beta  occ. eigenvalues --  -14.22214 -14.22066 -14.19950 -10.13797 -10.13042
  Beta  occ. eigenvalues --  -10.13011 -10.10705 -10.10097 -10.09988 -10.09491
  Beta  occ. eigenvalues --  -10.09474  -7.91909  -5.88186  -5.88032  -5.87506
  Beta  occ. eigenvalues --   -0.96853  -0.95851  -0.90927  -0.87276  -0.83317
  Beta  occ. eigenvalues --   -0.75659  -0.69019  -0.67809  -0.67379  -0.60644
  Beta  occ. eigenvalues --   -0.56943  -0.54338  -0.53249  -0.50142  -0.47129
  Beta  occ. eigenvalues --   -0.42419  -0.41257  -0.39568  -0.39035  -0.38360
  Beta  occ. eigenvalues --   -0.36955  -0.36569  -0.35261  -0.34542  -0.33910
  Beta  occ. eigenvalues --   -0.33524  -0.32427  -0.31809  -0.30795  -0.30157
  Beta  occ. eigenvalues --   -0.29577  -0.28279  -0.27437  -0.27285  -0.26735
  Beta  occ. eigenvalues --   -0.25999  -0.25301  -0.22782  -0.19367  -0.17850
  Beta  occ. eigenvalues --   -0.16611  -0.14299  -0.12790  -0.11668  -0.10910
  Beta virt. eigenvalues --    0.06615   0.07377   0.07934   0.08074   0.09629
  Beta virt. eigenvalues --    0.09959   0.10385   0.10488   0.10949   0.12128
  Beta virt. eigenvalues --    0.12345   0.12554   0.12661   0.13090   0.13505

 Mulliken charges and spin densities:
               1          2
     1  C    0.012708  -0.012715
     2  C    0.241686  -0.795501
     3  O   -0.152557   0.040125
     4  C   -0.157760  -0.332042
     5  C   -0.055703   0.071529
     6  N    0.259586  -0.001145
     7  C   -0.530930  -0.099881
     8  C   -1.096138   0.099611
     9  S    0.982891  -0.416058
    10  O   -0.449210   0.007889
    11  C   -0.822254   0.132521
    12  C    0.287280  -0.421588
    13  N    0.553241  -0.064672
    14  N   -0.981560   0.903395
    15  N    0.613988  -0.203740
    16  N   -0.265271  -0.079662
    17  H   -0.146607   0.299922
    18  H    0.093357   0.061547
    19  H    0.123171   0.008261
    20  H   -0.225412   0.417943
    21  H    0.125383   0.047526
    22  H    0.042356   0.091637
    23  H    0.090550   0.067870
    24  H    0.152634   0.006341
    25  H   -0.101822   0.297955
    26  H    0.078902   0.194978
    27  H    0.016069   0.220966
    28  H    0.079966   0.143783
    29  H    0.211235   0.026880
    30  H    0.165185  -0.079551
    31  H   -0.144965   0.365876
 Sum of Mulliken charges =  -1.00000   1.00000

 Dipole moment (field-independent basis, Debye):
    X=              4.5451    Y=             -1.5762    Z=              3.1599  Tot=              5.7557
 Quadrupole moment (field-independent basis, Debye-Ang):
   XX=           -165.0461   YY=           -164.1623   ZZ=           -120.5058
   XY=             11.1801   XZ=              0.1502   YZ=             -0.9125

 Summary of Natural Population Analysis:

                                       Natural Population
                Natural  -----------------------------------------------
    Atom  No    Charge         Core      Valence    Rydberg      Total
 -----------------------------------------------------------------------
      C    1   -0.10308      0.99961     2.09025    0.01322     3.10308
      C    2   -0.01414      0.99957     2.00017    0.01440     3.01414
      O    3   -0.29886      0.99989     3.28959    0.00938     4.29886
      C    4   -0.01283      0.99958     2.00177    0.01149     3.01283
      C    5   -0.10166      0.99961     2.09304    0.00900     3.10166
      N    6   -0.29224      0.99968     2.77897    0.01358     3.79224
      C    7    0.08986      0.99956     1.89361    0.01697     2.91014
      C    8   -0.29562      0.99955     2.28301    0.01305     3.29562
      S    9    0.58277      4.99942     2.36390    0.05391     7.41723
      O   10   -0.48803      0.99993     3.48220    0.00590     4.48803
      C   11   -0.28799      0.99959     2.27616    0.01224     3.28799
      C   12   -0.10023      0.99958     2.08727    0.01337     3.10023
      N   13   -0.18555      0.99970     2.67115    0.01470     3.68555
      N   14   -0.18115      0.99972     2.66541    0.01602     3.68115
      N   15    0.15297      0.99971     2.33210    0.01522     3.34703
      N   16    0.04479      0.99982     2.44150    0.01389     3.45521
      H   17    0.08416      0.00000     0.41411    0.00173     0.41584
      H   18    0.10084      0.00000     0.39681    0.00235     0.39916
      H   19    0.07833      0.00000     0.41989    0.00178     0.42167
      H   20    0.09299      0.00000     0.40570    0.00131     0.40701
      H   21    0.09062      0.00000     0.40822    0.00116     0.40938
      H   22    0.07808      0.00000     0.42034    0.00158     0.42192
      H   23    0.08376      0.00000     0.41467    0.00157     0.41624
      H   24    0.11424      0.00000     0.38414    0.00162     0.38576
      H   25    0.09688      0.00000     0.40102    0.00210     0.40312
      H   26    0.12738      0.00000     0.37119    0.00143     0.37262
      H   27    0.11091      0.00000     0.38771    0.00138     0.38909
      H   28    0.10534      0.00000     0.39319    0.00147     0.39466
      H   29    0.11801      0.00000     0.38036    0.00163     0.38199
      H   30    0.10225      0.00000     0.39594    0.00180     0.39775
      H   31    0.10718      0.00000     0.39161    0.00121     0.39282
 =======================================================================
   * Total *   -0.00000     19.99453    44.73500    0.27046    65.00000

 Normal termination of Gaussian 16 at Thu Dec 10 22:31:15 2020.
