 Gaussian 16, Revision A.03,

 -----------------------------------------------------------
 # opt freq B3LYP/6-31G(d) empiricaldispersion=gd3bj scf=xqc
 -----------------------------------------------------------

 ------------------------------
 CID_61427159_JID_3865_neutraal
 ------------------------------
 Symbolic Z-matrix:
 Charge =  0 Multiplicity = 1

 SCF Done:  E(RB3LYP) =  -634.850371317     A.U. after   14 cycles
 SCF Done:  E(RB3LYP) =  -634.854233412     A.U. after   12 cycles
 SCF Done:  E(RB3LYP) =  -634.853478949     A.U. after   12 cycles
 SCF Done:  E(RB3LYP) =  -634.855315574     A.U. after   12 cycles
 SCF Done:  E(RB3LYP) =  -634.855490562     A.U. after   12 cycles
 SCF Done:  E(RB3LYP) =  -634.855728798     A.U. after   12 cycles
 SCF Done:  E(RB3LYP) =  -634.855826619     A.U. after   12 cycles
 SCF Done:  E(RB3LYP) =  -634.855837272     A.U. after   10 cycles
 SCF Done:  E(RB3LYP) =  -634.855846471     A.U. after    9 cycles
 SCF Done:  E(RB3LYP) =  -634.855847064     A.U. after    8 cycles
 SCF Done:  E(RB3LYP) =  -634.855847258     A.U. after    8 cycles
 Optimization completed.
    -- Stationary point found.
 Normal termination of Gaussian 16 at Sun Dec 13 12:21:09 2020.

 --------------------------------------------------------------------
 #N Geom=AllCheck Guess=TCheck SCRF=Check GenChk RB3LYP/6-31G(d) Freq
 --------------------------------------------------------------------

 Structure from the checkpoint file:  "JID_3865.chk"
 ------------------------------
 CID_61427159_JID_3865_neutraal
 ------------------------------
 Charge =  0 Multiplicity = 1

 SCF Done:  E(RB3LYP) =  -634.855847258     A.U. after    1 cycles

  Exact polarizability: 114.312  -1.351 109.810  -0.771  -2.972 105.474
 Approx polarizability: 145.186  -2.363 158.712   5.838  -7.456 155.858

                      1                      2                      3
                      A                      A                      A
 Frequencies --     32.9328                53.5313                63.9084
 Red. masses --      3.7517                 3.5737                 3.6037
 Frc consts  --      0.0024                 0.0060                 0.0087
 IR Inten    --      0.1906                 0.4948                 0.6732

                      4                      5                      6
                      A                      A                      A
 Frequencies --     72.5711                87.7932               129.3136
 Red. masses --      2.7206                 2.3338                 1.9158
 Frc consts  --      0.0084                 0.0106                 0.0189
 IR Inten    --      1.3405                 1.5087                 0.6831

                      7                      8                      9
                      A                      A                      A
 Frequencies --    147.2072               167.0272               190.3729
 Red. masses --      3.2331                 3.9414                 2.1811
 Frc consts  --      0.0413                 0.0648                 0.0466
 IR Inten    --      1.5283                 0.5523                 2.5370

                     10                     11                     12
                      A                      A                      A
 Frequencies --    201.4394               214.0630               230.7424
 Red. masses --      1.6375                 1.4452                 1.6908
 Frc consts  --      0.0391                 0.0390                 0.0530
 IR Inten    --      0.7069                 0.3802                 0.2748

                     13                     14                     15
                      A                      A                      A
 Frequencies --    244.1800               252.5420               310.5031
 Red. masses --      1.1700                 1.4124                 2.7527
 Frc consts  --      0.0411                 0.0531                 0.1564
 IR Inten    --      0.5810                 0.2112                 2.4588

                     16                     17                     18
                      A                      A                      A
 Frequencies --    324.0492               350.7531               377.7531
 Red. masses --      3.2362                 3.0881                 3.3733
 Frc consts  --      0.2002                 0.2238                 0.2836
 IR Inten    --      1.3236                11.7779                 8.2589

                     19                     20                     21
                      A                      A                      A
 Frequencies --    400.1217               425.2113               456.2422
 Red. masses --      2.8705                 2.6143                 2.5356
 Frc consts  --      0.2708                 0.2785                 0.3110
 IR Inten    --      5.6063                 1.7521                 6.8551

                     22                     23                     24
                      A                      A                      A
 Frequencies --    511.0076               531.8325               625.5374
 Red. masses --      3.0132                 3.7999                 1.7804
 Frc consts  --      0.4636                 0.6332                 0.4105
 IR Inten    --      7.5950                 6.5364                57.2946

                     25                     26                     27
                      A                      A                      A
 Frequencies --    660.2033               755.4092               796.2351
 Red. masses --      2.2926                 2.6935                 1.3713
 Frc consts  --      0.5888                 0.9056                 0.5122
 IR Inten    --     60.0622                57.1124                 1.6578

                     28                     29                     30
                      A                      A                      A
 Frequencies --    868.6720               887.2234               906.0657
 Red. masses --      2.4721                 2.9729                 3.2873
 Frc consts  --      1.0991                 1.3788                 1.5901
 IR Inten    --      9.5569                10.0296                 1.5611

                     31                     32                     33
                      A                      A                      A
 Frequencies --    949.9810               965.4736               981.6437
 Red. masses --      1.1864                 3.7708                 1.5534
 Frc consts  --      0.6308                 2.0710                 0.8819
 IR Inten    --      1.1268                21.2802                 2.7559

                     34                     35                     36
                      A                      A                      A
 Frequencies --    990.0659              1030.7762              1077.3393
 Red. masses --      2.1929                 4.5475                 2.2598
 Frc consts  --      1.2665                 2.8468                 1.5453
 IR Inten    --     15.5705                 7.2873                56.9823

                     37                     38                     39
                      A                      A                      A
 Frequencies --   1101.9198              1128.1052              1139.1421
 Red. masses --      1.7033                 2.2973                 2.7962
 Frc consts  --      1.2185                 1.7225                 2.1378
 IR Inten    --      6.4854                80.6924               174.0620

                     40                     41                     42
                      A                      A                      A
 Frequencies --   1150.3233              1165.8298              1184.5684
 Red. masses --      2.1497                 1.3533                 2.1616
 Frc consts  --      1.6759                 1.0837                 1.7871
 IR Inten    --      0.4584                 1.7013                66.0375

                     43                     44                     45
                      A                      A                      A
 Frequencies --   1189.8656              1209.8608              1224.0412
 Red. masses --      1.4420                 1.7484                 2.0179
 Frc consts  --      1.2029                 1.5078                 1.7813
 IR Inten    --     35.7486                 4.9821                48.0967

                     46                     47                     48
                      A                      A                      A
 Frequencies --   1245.3779              1273.5349              1296.5799
 Red. masses --      2.0399                 1.8942                 1.3598
 Frc consts  --      1.8640                 1.8101                 1.3469
 IR Inten    --     13.9680                12.4644                 7.8236

                     49                     50                     51
                      A                      A                      A
 Frequencies --   1333.8931              1358.8280              1367.1194
 Red. masses --      1.2878                 1.6818                 1.4210
 Frc consts  --      1.3501                 1.8296                 1.5648
 IR Inten    --      6.3897                 4.3311                 2.0879

                     52                     53                     54
                      A                      A                      A
 Frequencies --   1371.7454              1379.9835              1412.4885
 Red. masses --      1.1831                 1.3776                 1.6707
 Frc consts  --      1.3117                 1.5457                 1.9639
 IR Inten    --      4.6719                 6.0313                13.7109

                     55                     56                     57
                      A                      A                      A
 Frequencies --   1420.3213              1427.8412              1448.2120
 Red. masses --      1.4848                 1.2667                 1.2333
 Frc consts  --      1.7648                 1.5216                 1.5240
 IR Inten    --     12.2650                 8.9408                 6.7341

                     58                     59                     60
                      A                      A                      A
 Frequencies --   1448.3832              1485.4881              1503.9250
 Red. masses --      1.3031                 1.1440                 1.1179
 Frc consts  --      1.6107                 1.4874                 1.4897
 IR Inten    --      6.7135                 1.7613                 1.1740

                     61                     62                     63
                      A                      A                      A
 Frequencies --   1510.2075              1517.0005              1519.3732
 Red. masses --      1.0717                 1.0656                 1.0493
 Frc consts  --      1.4401                 1.4449                 1.4271
 IR Inten    --      0.1686                 8.5016                 7.1063

                     64                     65                     66
                      A                      A                      A
 Frequencies --   1519.9974              1521.6990              1531.0076
 Red. masses --      1.0498                 1.0687                 1.0701
 Frc consts  --      1.4291                 1.4580                 1.4778
 IR Inten    --      0.4846                 7.3625                 6.9191

                     67                     68                     69
                      A                      A                      A
 Frequencies --   1535.6427              1536.0929              1545.0052
 Red. masses --      1.0524                 1.0885                 1.0493
 Frc consts  --      1.4622                 1.5132                 1.4757
 IR Inten    --      4.2312                 7.5788                12.2637

                     70                     71                     72
                      A                      A                      A
 Frequencies --   1549.6247              1821.7091              2991.3350
 Red. masses --      1.0543                 9.2492                 1.0521
 Frc consts  --      1.4917                18.0847                 5.5467
 IR Inten    --      6.3316               222.8883                57.1399

                     73                     74                     75
                      A                      A                      A
 Frequencies --   3009.5050              3034.2856              3041.9614
 Red. masses --      1.0387                 1.0688                 1.0402
 Frc consts  --      5.5429                 5.7979                 5.6713
 IR Inten    --     44.8219                 8.3622                18.6496

                     76                     77                     78
                      A                      A                      A
 Frequencies --   3043.8098              3045.4934              3056.1233
 Red. masses --      1.0647                 1.0470                 1.0772
 Frc consts  --      5.8119                 5.7218                 5.9279
 IR Inten    --     69.8080                24.1741                13.5503

                     79                     80                     81
                      A                      A                      A
 Frequencies --   3063.3634              3071.6609              3074.2623
 Red. masses --      1.1001                 1.0819                 1.0829
 Frc consts  --      6.0823                 6.0142                 6.0303
 IR Inten    --     47.1418                32.3829                32.1804

                     82                     83                     84
                      A                      A                      A
 Frequencies --   3094.8550              3104.2899              3112.2934
 Red. masses --      1.0998                 1.0990                 1.0995
 Frc consts  --      6.2064                 6.2399                 6.2747
 IR Inten    --     29.4016                 4.7409                39.1375

                     85                     86                     87
                      A                      A                      A
 Frequencies --   3114.0563              3133.0242              3135.7562
 Red. masses --      1.1021                 1.1011                 1.0941
 Frc consts  --      6.2968                 6.3679                 6.3389
 IR Inten    --     55.7081                24.2973                39.6889

                     88                     89                     90
                      A                      A                      A
 Frequencies --   3138.9114              3147.6728              3665.3639
 Red. masses --      1.0991                 1.0991                 1.0639
 Frc consts  --      6.3806                 6.4158                 8.4212
 IR Inten    --     35.6688                20.7856                35.7564

 - Thermochemistry -
 -------------------
 Temperature   298.150 Kelvin.  Pressure   1.00000 Atm.
 Atom     1 has atomic number  6 and mass  12.00000

 Molecular mass:   189.13649 amu.
 Principal axes and moments of inertia in atomic units:
                           1         2         3
     Eigenvalues --  1863.558963387.484863549.07110
           X            0.99972  -0.01728  -0.01634
           Y            0.01406   0.98359  -0.17987
           Z            0.01918   0.17959   0.98355
 This molecule is an asymmetric top.
 Rotational symmetry number  1.
 Warning -- assumption of classical behavior for rotation
           may cause significant error
 Rotational temperatures (Kelvin)      0.04648     0.02557     0.02440
 Rotational constants (GHZ):           0.96844     0.53277     0.50851
 Zero-point vibrational energy     746006.1 (Joules/Mol)
                                  178.29974 (Kcal/Mol)
 Warning -- explicit consideration of  23 degrees of freedom as
           vibrations may cause significant error
 Vibrational temperatures:     47.38    77.02    91.95   104.41   126.31
          (Kelvin)            186.05   211.80   240.31   273.90   289.83
                              307.99   331.99   351.32   363.35   446.74
                              466.23   504.66   543.50   575.69   611.78
                              656.43   735.23   765.19   900.01   949.89
                             1086.87  1145.60  1249.83  1276.52  1303.63
                             1366.81  1389.10  1412.37  1424.48  1483.06
                             1550.05  1585.42  1623.09  1638.97  1655.06
                             1677.37  1704.33  1711.95  1740.72  1761.12
                             1791.82  1832.33  1865.49  1919.17  1955.05
                             1966.98  1973.64  1985.49  2032.26  2043.53
                             2054.35  2083.65  2083.90  2137.29  2163.81
                             2172.85  2182.63  2186.04  2186.94  2189.39
                             2202.78  2209.45  2210.10  2222.92  2229.56
                             2621.03  4303.86  4330.01  4365.66  4376.70
                             4379.36  4381.79  4397.08  4407.50  4419.43
                             4423.18  4452.81  4466.38  4477.90  4480.43
                             4507.72  4511.65  4516.19  4528.80  5273.64

 Zero-point correction=                           0.284139 (Hartree/Particle)
 Thermal correction to Energy=                    0.300078
 Thermal correction to Enthalpy=                  0.301022
 Thermal correction to Gibbs Free Energy=         0.240605
 Sum of electronic and zero-point Energies=           -634.571709
 Sum of electronic and thermal Energies=              -634.555769
 Sum of electronic and thermal Enthalpies=            -634.554825
 Sum of electronic and thermal Free Energies=         -634.615242

                     E (Thermal)             CV                S
                      KCal/Mol        Cal/Mol-Kelvin    Cal/Mol-Kelvin
 Total                  188.302             56.970            127.159
 Electronic               0.000              0.000              0.000
 Translational            0.889              2.981             41.618
 Rotational               0.889              2.981             31.483
 Vibrational            186.524             51.008             54.058
 Vibration     1          0.594              1.983              5.644
 Vibration     2          0.596              1.976              4.682
 Vibration     3          0.597              1.972              4.333
 Vibration     4          0.599              1.967              4.082
 Vibration     5          0.601              1.958              3.709
 Vibration     6          0.612              1.924              2.956
 Vibration     7          0.617              1.906              2.708
 Vibration     8          0.624              1.883              2.469
 Vibration     9          0.634              1.853              2.224
 Vibration    10          0.638              1.838              2.120
 Vibration    11          0.644              1.820              2.009
 Vibration    12          0.652              1.794              1.873
 Vibration    13          0.660              1.772              1.772
 Vibration    14          0.664              1.758              1.713
 Vibration    15          0.699              1.654              1.360
 Vibration    16          0.709              1.627              1.290
 Vibration    17          0.728              1.574              1.163
 Vibration    18          0.748              1.518              1.048
 Vibration    19          0.766              1.470              0.962
 Vibration    20          0.787              1.415              0.874
 Vibration    21          0.814              1.347              0.777
 Vibration    22          0.866              1.226              0.631
 Vibration    23          0.887              1.180              0.583

 Optimization completed.
    -- Stationary point found.
 Normal termination of Gaussian 16 at Sun Dec 13 12:29:45 2020.

 ----------------------------------------------------------------------
 # B3LYP/6-311++G(d,p) empiricaldispersion=gd3bj scf=xqc pop=npa geom=c
 heck
 ----------------------------------------------------------------------

 --------------------------------------
 CID_61427159_JID_3865_Energie_neutraal
 --------------------------------------
 Structure from the checkpoint file:  "JID_3865.chk"
 Charge =  0 Multiplicity = 1

 SCF Done:  E(RB3LYP) =  -635.050769885     A.U. after   15 cycles
 Normal termination of Gaussian 16 at Sun Dec 13 12:33:23 2020.

 ----------------------------------------------------------------------
 # B3LYP/6-311++G(d,p) empiricaldispersion=gd3bj scf=xqc pop=npa geom=c
 heck
 ----------------------------------------------------------------------

 ------------------------------------
 CID_61427159_JID_3865_Energie_kation
 ------------------------------------
 Structure from the checkpoint file:  "JID_3865.chk"
 Charge =  1 Multiplicity = 2

 SCF Done:  E(UB3LYP) =  -634.766932182     A.U. after   21 cycles
 Normal termination of Gaussian 16 at Sun Dec 13 12:40:47 2020.
 Gaussian 16:  ES64L-G16RevA.03 25-Dec-2016

 ----------------------------------------------------------------------
 # B3LYP/6-311++G(d,p) empiricaldispersion=gd3bj scf=xqc pop=npa geom=c
 heck
 ----------------------------------------------------------------------

 -----------------------------------
 CID_61427159_JID_3865_Energie_anion
 -----------------------------------
 Structure from the checkpoint file:  "JID_3865.chk"
 Charge = -1 Multiplicity = 2

                         Standard orientation:
 ---------------------------------------------------------------------
 Center     Atomic      Atomic             Coordinates (Angstroms)
 Number     Number       Type             X           Y           Z
 ---------------------------------------------------------------------
      1          6           0        2.994967    1.207967   -0.672313
      2          6           0        1.924193    0.137217   -0.922669
      3          6           0        2.544140   -1.132629   -1.511500
      4          6           0        1.170031   -0.178875    0.384298
      5          6           0        0.456992    1.062202    0.921551
      6          8           0       -0.046057    1.940927    0.251266
      7          8           0        0.340318    1.032983    2.274654
      8          7           0        0.226679   -1.292127    0.255742
      9          6           0        0.012067   -2.080416    1.457932
     10          6           0       -0.964660   -1.078323   -0.563485
     11          6           0       -2.227526   -0.583176    0.171576
     12          8           0       -3.234674   -0.199434   -0.749697
     13          6           0       -3.086453    1.130621   -1.214245
     14          1           0        3.732939    0.858933    0.061817
     15          1           0        2.557672    2.141296   -0.305461
     16          1           0        3.532792    1.434450   -1.599116
     17          1           0        1.204255    0.550339   -1.639484
     18          1           0        3.282269   -1.560720   -0.820658
     19          1           0        1.785916   -1.895641   -1.701480
     20          1           0        3.060101   -0.905763   -2.451059
     21          1           0        1.904352   -0.487772    1.136641
     22          1           0       -0.195489    1.813128    2.516252
     23          1           0       -0.531341   -1.557381    2.261974
     24          1           0       -0.553664   -2.981035    1.192606
     25          1           0        0.979922   -2.397208    1.861503
     26          1           0       -0.713262   -0.364102   -1.350416
     27          1           0       -1.217987   -2.021840   -1.065313
     28          1           0       -2.656183   -1.392381    0.772011
     29          1           0       -1.992634    0.245679    0.853191
     30          1           0       -3.173698    1.853787   -0.389106
     31          1           0       -2.120366    1.303023   -1.708034
     32          1           0       -3.891543    1.304758   -1.932713
 ---------------------------------------------------------------------

 SCF Done:  E(UB3LYP) =  -635.037157154     A.U. after   33 cycles
 SCF Done:  E(UB3LYP) =  -635.037157154     a.u. after    1 cycles

 The electronic state is 2-A.
 Alpha  occ. eigenvalues --  -19.06688 -19.02974 -19.01618 -14.21450 -10.20285
 Alpha  occ. eigenvalues --  -10.11491 -10.11435 -10.11370 -10.09698 -10.08833
 Alpha  occ. eigenvalues --  -10.07899 -10.06109 -10.05727  -1.00808  -0.94061
 Alpha  occ. eigenvalues --   -0.91955  -0.83347  -0.71137  -0.65598  -0.62478
 Alpha  occ. eigenvalues --   -0.60132  -0.58754  -0.54924  -0.51682  -0.49854
 Alpha  occ. eigenvalues --   -0.45307  -0.41833  -0.41035  -0.38960  -0.38854
 Alpha  occ. eigenvalues --   -0.37699  -0.37057  -0.35148  -0.34663  -0.32956
 Alpha  occ. eigenvalues --   -0.32221  -0.31609  -0.31030  -0.29586  -0.29326
 Alpha  occ. eigenvalues --   -0.28771  -0.27954  -0.27282  -0.26160  -0.24402
 Alpha  occ. eigenvalues --   -0.24060  -0.23109  -0.22763  -0.21811  -0.19005
 Alpha  occ. eigenvalues --   -0.17341  -0.11184   0.04497
 Alpha virt. eigenvalues --    0.06617   0.07283   0.07546   0.08622   0.08772
 Alpha virt. eigenvalues --    0.09219   0.09835   0.10036   0.10870   0.11324
 Alpha virt. eigenvalues --    0.12111   0.12401   0.12578   0.12840   0.13757

  Beta  occ. eigenvalues --  -19.06627 -19.02968 -19.01603 -14.21448 -10.20284
  Beta  occ. eigenvalues --  -10.11471 -10.11422 -10.11352 -10.09689 -10.08798
  Beta  occ. eigenvalues --  -10.07893 -10.06085 -10.05704  -1.00735  -0.94050
  Beta  occ. eigenvalues --   -0.91891  -0.83330  -0.71113  -0.65572  -0.62425
  Beta  occ. eigenvalues --   -0.60096  -0.58708  -0.54861  -0.51594  -0.49803
  Beta  occ. eigenvalues --   -0.45248  -0.41789  -0.41008  -0.38930  -0.38828
  Beta  occ. eigenvalues --   -0.37681  -0.37024  -0.35118  -0.34638  -0.32925
  Beta  occ. eigenvalues --   -0.32172  -0.31572  -0.31000  -0.29553  -0.29296
  Beta  occ. eigenvalues --   -0.28741  -0.27922  -0.27252  -0.26140  -0.24374
  Beta  occ. eigenvalues --   -0.24033  -0.23070  -0.22724  -0.21784  -0.18959
  Beta  occ. eigenvalues --   -0.17321  -0.11164
  Beta virt. eigenvalues --    0.06688   0.07532   0.07861   0.08263   0.08843
  Beta virt. eigenvalues --    0.09406   0.09550   0.10181   0.10249   0.11101
  Beta virt. eigenvalues --    0.11660   0.12454   0.12710   0.12846   0.13234

 Mulliken charges and spin densities:
               1          2
     1  C    0.219496  -0.893466
     2  C   -1.760811   2.054190
     3  C    0.707768  -1.225363
     4  C    0.451678  -0.927046
     5  C    0.308808  -0.962148
     6  O   -0.211261   0.045513
     7  O   -0.111353   0.060433
     8  N    0.273213   0.105632
     9  C    0.962746  -1.176805
    10  C   -0.334330  -0.023428
    11  C   -0.050709  -0.296842
    12  O   -0.143074   0.021077
    13  C    0.101730  -0.424175
    14  H   -0.234974   0.362958
    15  H    0.124525   0.062017
    16  H   -0.143421   0.291333
    17  H    0.101514   0.058842
    18  H   -0.092010   0.227782
    19  H   -0.015629   0.163460
    20  H   -0.246959   0.394365
    21  H    0.289000  -0.034301
    22  H   -0.646265   0.940301
    23  H   -0.098355   0.267687
    24  H   -0.077960   0.234817
    25  H   -0.512891   0.644900
    26  H    0.246163  -0.049955
    27  H   -0.007262   0.164119
    28  H   -0.141430   0.315669
    29  H    0.003240   0.201950
    30  H   -0.089541   0.229944
    31  H    0.041434   0.107262
    32  H    0.086920   0.059276
 Sum of Mulliken charges =  -1.00000   1.00000

 Dipole moment (field-independent basis, Debye):
    X=             -1.4173    Y=             -0.4580    Z=             -4.0344  Tot=              4.3006
 Quadrupole moment (field-independent basis, Debye-Ang):
   XX=           -136.9638   YY=           -126.2154   ZZ=           -129.0944
   XY=              2.5362   XZ=              6.1165   YZ=             -5.3912

 Summary of Natural Population Analysis:

                                       Natural Population
                Natural  -----------------------------------------------
    Atom  No    Charge         Core      Valence    Rydberg      Total
 -----------------------------------------------------------------------
      C    1   -0.28438      0.99965     2.27983    0.00491     3.28438
      C    2   -0.11857      0.99960     2.10829    0.01068     3.11857
      C    3   -0.28437      0.99965     2.27814    0.00659     3.28437
      C    4   -0.04235      0.99949     2.02670    0.01616     3.04235
      C    5    0.40156      0.99968     1.57189    0.02687     2.59844
      O    6   -0.31364      0.99987     3.30751    0.00626     4.31364
      O    7   -0.34338      0.99988     3.33581    0.00769     4.34338
      N    8   -0.27775      0.99972     2.76372    0.01431     3.77775
      C    9   -0.17527      0.99963     2.16687    0.00877     3.17527
      C   10   -0.09817      0.99960     2.08675    0.01182     3.09817
      C   11   -0.01760      0.99958     2.00586    0.01216     3.01760
      O   12   -0.29900      0.99989     3.28978    0.00932     4.29900
      C   13   -0.09760      0.99961     2.08988    0.00811     3.09760
      H   14    0.09636      0.00000     0.40255    0.00109     0.40364
      H   15    0.10501      0.00000     0.39399    0.00100     0.39499
      H   16    0.10013      0.00000     0.39892    0.00094     0.39987
      H   17    0.09864      0.00000     0.39914    0.00222     0.40136
      H   18    0.09672      0.00000     0.40220    0.00109     0.40328
      H   19    0.10590      0.00000     0.39289    0.00120     0.39410
      H   20    0.09771      0.00000     0.40138    0.00091     0.40229
      H   21    0.10950      0.00000     0.38827    0.00223     0.39050
      H   22    0.24577      0.00000     0.23197    0.02226     0.25423
      H   23    0.08955      0.00000     0.40877    0.00167     0.41045
      H   24    0.09461      0.00000     0.40431    0.00108     0.40539
      H   25    0.09758      0.00000     0.40118    0.00124     0.40242
      H   26    0.09942      0.00000     0.39893    0.00165     0.40058
      H   27    0.09330      0.00000     0.40551    0.00119     0.40670
      H   28    0.08781      0.00000     0.41053    0.00166     0.41219
      H   29    0.08321      0.00000     0.41459    0.00220     0.41679
      H   30    0.08234      0.00000     0.41621    0.00146     0.41766
      H   31    0.08239      0.00000     0.41630    0.00132     0.41761
      H   32    0.08457      0.00000     0.41447    0.00096     0.41543
 =======================================================================
   * Total *    0.00000     12.99584    38.81314    0.19102    52.00000

 Normal termination of Gaussian 16 at Sun Dec 13 12:51:27 2020.
