 Gaussian 16, Revision A.03,

 -----------------------------------------------------------
 # opt freq B3LYP/6-31G(d) empiricaldispersion=gd3bj scf=xqc
 -----------------------------------------------------------

 ------------------------------
 CID_60973349_JID_3364_neutraal
 ------------------------------
 Symbolic Z-matrix:
 Charge =  0 Multiplicity = 1

 SCF Done:  E(RB3LYP) =  -543.172036582     A.U. after   13 cycles
 SCF Done:  E(RB3LYP) =  -543.176344613     A.U. after   11 cycles
 SCF Done:  E(RB3LYP) =  -543.176597889     A.U. after   10 cycles
 SCF Done:  E(RB3LYP) =  -543.176822928     A.U. after   10 cycles
 SCF Done:  E(RB3LYP) =  -543.176867974     A.U. after    9 cycles
 SCF Done:  E(RB3LYP) =  -543.176884249     A.U. after    9 cycles
 SCF Done:  E(RB3LYP) =  -543.176889068     A.U. after    8 cycles
 SCF Done:  E(RB3LYP) =  -543.176892102     A.U. after    8 cycles
 SCF Done:  E(RB3LYP) =  -543.176894555     A.U. after    8 cycles
 SCF Done:  E(RB3LYP) =  -543.176896274     A.U. after    8 cycles
 SCF Done:  E(RB3LYP) =  -543.176897718     A.U. after    7 cycles
 SCF Done:  E(RB3LYP) =  -543.176898088     A.U. after    7 cycles
 SCF Done:  E(RB3LYP) =  -543.176898254     A.U. after    7 cycles
 SCF Done:  E(RB3LYP) =  -543.176898377     A.U. after    7 cycles
 SCF Done:  E(RB3LYP) =  -543.176898434     A.U. after    6 cycles
 SCF Done:  E(RB3LYP) =  -543.176898463     A.U. after    6 cycles
 Optimization completed.
    -- Stationary point found.
 Normal termination of Gaussian 16 at Wed Dec  9 23:04:28 2020.

 --------------------------------------------------------------------
 #N Geom=AllCheck Guess=TCheck SCRF=Check GenChk RB3LYP/6-31G(d) Freq
 --------------------------------------------------------------------

 Structure from the checkpoint file:  "JID_3364.chk"
 ------------------------------
 CID_60973349_JID_3364_neutraal
 ------------------------------
 Charge =  0 Multiplicity = 1

 SCF Done:  E(RB3LYP) =  -543.176898463     A.U. after    1 cycles

  Exact polarizability: 148.645   1.813 122.423   0.704  -0.372 116.598
 Approx polarizability: 180.864   2.340 171.885  -0.035  -2.294 170.317

                      1                      2                      3
                      A                      A                      A
 Frequencies --     25.3901                37.1614                39.9501
 Red. masses --      3.0379                 3.5992                 2.5740
 Frc consts  --      0.0012                 0.0029                 0.0024
 IR Inten    --      0.0093                 0.1041                 0.0714

                      4                      5                      6
                      A                      A                      A
 Frequencies --     64.9858                83.3782               111.9055
 Red. masses --      1.8102                 2.1698                 2.2866
 Frc consts  --      0.0045                 0.0089                 0.0169
 IR Inten    --      0.0265                 0.0927                 0.8130

                      7                      8                      9
                      A                      A                      A
 Frequencies --    144.3031               184.2642               232.3701
 Red. masses --      3.1388                 2.2518                 1.1682
 Frc consts  --      0.0385                 0.0450                 0.0372
 IR Inten    --      0.3583                 0.5708                 0.0455

                     10                     11                     12
                      A                      A                      A
 Frequencies --    236.8791               272.3829               278.2822
 Red. masses --      1.7413                 1.8463                 1.8097
 Frc consts  --      0.0576                 0.0807                 0.0826
 IR Inten    --      0.6732                 2.2718                 0.9172

                     13                     14                     15
                      A                      A                      A
 Frequencies --    286.5321               315.9973               334.3741
 Red. masses --      1.4848                 1.8277                 1.8815
 Frc consts  --      0.0718                 0.1075                 0.1239
 IR Inten    --      0.1069                 3.4284                 0.3500

                     16                     17                     18
                      A                      A                      A
 Frequencies --    383.6342               409.0950               457.7715
 Red. masses --      2.2875                 2.5843                 2.1039
 Frc consts  --      0.1984                 0.2548                 0.2598
 IR Inten    --      3.0478                 0.0997                 4.3345

                     19                     20                     21
                      A                      A                      A
 Frequencies --    471.6494               498.5156               508.6043
 Red. masses --      2.4803                 2.5342                 2.4455
 Frc consts  --      0.3251                 0.3711                 0.3727
 IR Inten    --      1.3832                 0.6515                 1.1714

                     22                     23                     24
                      A                      A                      A
 Frequencies --    593.7169               638.0076               741.5078
 Red. masses --      2.9779                 2.8109                 1.7734
 Frc consts  --      0.6185                 0.6741                 0.5745
 IR Inten    --      0.7422                 0.9948                13.3246

                     25                     26                     27
                      A                      A                      A
 Frequencies --    770.5305               794.2940               821.5679
 Red. masses --      2.2060                 1.2580                 1.4637
 Frc consts  --      0.7717                 0.4676                 0.5821
 IR Inten    --     36.1341                11.6379                 4.6472

                     28                     29                     30
                      A                      A                      A
 Frequencies --    852.6143               864.8955               908.1798
 Red. masses --      1.7773                 1.6962                 1.9596
 Frc consts  --      0.7612                 0.7476                 0.9523
 IR Inten    --     20.2014                 3.3634                 1.2742

                     31                     32                     33
                      A                      A                      A
 Frequencies --    910.9187               935.0678               946.1110
 Red. masses --      1.5471                 1.6753                 2.4173
 Frc consts  --      0.7564                 0.8630                 1.2749
 IR Inten    --      2.5761                 5.4568                 0.9002

                     34                     35                     36
                      A                      A                      A
 Frequencies --    953.7786               983.9355              1007.2138
 Red. masses --      2.0604                 1.2078                 1.6050
 Frc consts  --      1.1043                 0.6889                 0.9593
 IR Inten    --     11.2062                 2.0662                 6.1151

                     37                     38                     39
                      A                      A                      A
 Frequencies --   1015.2229              1042.9701              1052.5412
 Red. masses --      1.5481                 2.7933                 1.9660
 Frc consts  --      0.9401                 1.7902                 1.2832
 IR Inten    --      2.0736                 4.5856                17.1466

                     40                     41                     42
                      A                      A                      A
 Frequencies --   1061.7579              1095.2768              1136.1378
 Red. masses --      2.3829                 1.7166                 2.4339
 Frc consts  --      1.5827                 1.2133                 1.8510
 IR Inten    --      0.7054                 4.1046                15.7077

                     43                     44                     45
                      A                      A                      A
 Frequencies --   1143.1444              1152.7826              1162.9408
 Red. masses --      2.1504                 2.0482                 2.0188
 Frc consts  --      1.6556                 1.6037                 1.6087
 IR Inten    --     27.2534                19.1047                11.9137

                     46                     47                     48
                      A                      A                      A
 Frequencies --   1174.4348              1204.0398              1211.6664
 Red. masses --      2.1809                 2.1584                 1.8372
 Frc consts  --      1.7723                 1.8436                 1.5891
 IR Inten    --     31.4215                16.4800                 7.4258

                     49                     50                     51
                      A                      A                      A
 Frequencies --   1215.5083              1240.3202              1264.9583
 Red. masses --      2.3599                 1.4921                 1.6328
 Frc consts  --      2.0543                 1.3525                 1.5394
 IR Inten    --     25.8347                 4.4463                13.7555

                     52                     53                     54
                      A                      A                      A
 Frequencies --   1279.5203              1282.5866              1312.8439
 Red. masses --      1.2687                 1.2332                 1.2441
 Frc consts  --      1.2238                 1.1952                 1.2634
 IR Inten    --      4.6365                 0.0183                 0.8699

                     55                     56                     57
                      A                      A                      A
 Frequencies --   1318.1519              1325.4815              1342.8429
 Red. masses --      1.3111                 1.3699                 1.3339
 Frc consts  --      1.3422                 1.4180                 1.4172
 IR Inten    --      0.2191                35.5063                 3.4849

                     58                     59                     60
                      A                      A                      A
 Frequencies --   1350.0968              1381.3988              1382.6751
 Red. masses --      1.2965                 1.3674                 1.2437
 Frc consts  --      1.3924                 1.5374                 1.4009
 IR Inten    --      3.3747                 8.9924                10.7092

                     61                     62                     63
                      A                      A                      A
 Frequencies --   1393.7156              1398.1434              1405.9529
 Red. masses --      1.3924                 1.4150                 1.3633
 Frc consts  --      1.5935                 1.6297                 1.5878
 IR Inten    --     31.0923                12.5214                 4.5102

                     64                     65                     66
                      A                      A                      A
 Frequencies --   1417.4452              1429.5175              1436.9590
 Red. masses --      1.2894                 1.2818                 1.2860
 Frc consts  --      1.5263                 1.5433                 1.5645
 IR Inten    --      3.2736                10.3209                 1.3944

                     67                     68                     69
                      A                      A                      A
 Frequencies --   1442.0092              1443.4601              1508.7398
 Red. masses --      1.2390                 1.3972                 1.0962
 Frc consts  --      1.5180                 1.7153                 1.4702
 IR Inten    --      1.2027                13.0275                 5.4046

                     70                     71                     72
                      A                      A                      A
 Frequencies --   1513.2223              1515.5485              1518.3691
 Red. masses --      1.0960                 1.0886                 1.0756
 Frc consts  --      1.4787                 1.4732                 1.4610
 IR Inten    --     45.3193                 4.9536                 7.4364

                     73                     74                     75
                      A                      A                      A
 Frequencies --   1521.6263              1523.4660              1528.6635
 Red. masses --      1.0606                 1.0666                 1.0791
 Frc consts  --      1.4468                 1.4585                 1.4858
 IR Inten    --      1.2811                 2.7958                 4.0152

                     76                     77                     78
                      A                      A                      A
 Frequencies --   1529.9662              1535.0545              1538.6380
 Red. masses --      1.0926                 1.0886                 1.0691
 Frc consts  --      1.5069                 1.5113                 1.4913
 IR Inten    --     29.8229                 3.6939                 7.6106

                     79                     80                     81
                      A                      A                      A
 Frequencies --   1544.4607              1547.0686              1553.1047
 Red. masses --      1.0712                 1.0566                 1.1085
 Frc consts  --      1.5054                 1.4900                 1.5754
 IR Inten    --     18.6151                 6.2906                 7.1323

                     82                     83                     84
                      A                      A                      A
 Frequencies --   2893.8640              2928.2424              2954.4053
 Red. masses --      1.0812                 1.0741                 1.0731
 Frc consts  --      5.3349                 5.4262                 5.5188
 IR Inten    --     59.9050                78.6217                98.3415

                     85                     86                     87
                      A                      A                      A
 Frequencies --   3007.5934              3022.2997              3039.8505
 Red. masses --      1.0799                 1.0713                 1.0390
 Frc consts  --      5.7552                 5.7656                 5.6568
 IR Inten    --      6.4508                41.3112                28.6100

                     88                     89                     90
                      A                      A                      A
 Frequencies --   3043.3630              3046.0750              3053.8635
 Red. masses --      1.0579                 1.0381                 1.0388
 Frc consts  --      5.7727                 5.6751                 5.7079
 IR Inten    --     48.2618                24.4282                27.6220

                     91                     92                     93
                      A                      A                      A
 Frequencies --   3065.8687              3072.8802              3077.2180
 Red. masses --      1.0613                 1.1001                 1.0725
 Frc consts  --      5.8776                 6.1202                 5.9839
 IR Inten    --     27.3245                36.4986                29.1292

                     94                     95                     96
                      A                      A                      A
 Frequencies --   3082.5867              3087.1302              3102.7620
 Red. masses --      1.0940                 1.0773                 1.0927
 Frc consts  --      6.1248                 6.0494                 6.1982
 IR Inten    --      8.3790                32.6061                82.9144

                     97                     98                     99
                      A                      A                      A
 Frequencies --   3104.6577              3107.1580              3108.9857
 Red. masses --      1.1044                 1.0998                 1.1015
 Frc consts  --      6.2718                 6.2560                 6.2729
 IR Inten    --      1.5846                49.6498                47.5865

                    100                    101                    102
                      A                      A                      A
 Frequencies --   3117.7695              3119.9883              3122.6802
 Red. masses --      1.0995                 1.1015                 1.1000
 Frc consts  --      6.2972                 6.3175                 6.3199
 IR Inten    --     64.8601                19.8046                26.7627

                    103                    104                    105
                      A                      A                      A
 Frequencies --   3126.0027              3134.3448              3457.3423
 Red. masses --      1.1062                 1.1020                 1.0724
 Frc consts  --      6.3687                 6.3788                 7.5523
 IR Inten    --     58.4110                32.4143                23.2759

 - Thermochemistry -
 -------------------
 Temperature   298.150 Kelvin.  Pressure   1.00000 Atm.
 Atom     1 has atomic number  6 and mass  12.00000

 Molecular mass:   184.19395 amu.
 Principal axes and moments of inertia in atomic units:
                           1         2         3
     Eigenvalues --  1392.236344774.023985036.48184
           X            0.99996   0.00907   0.00149
           Y           -0.00909   0.99986   0.01419
           Z           -0.00136  -0.01421   0.99990
 This molecule is an asymmetric top.
 Rotational symmetry number  1.
 Warning -- assumption of classical behavior for rotation
           may cause significant error
 Rotational temperatures (Kelvin)      0.06221     0.01814     0.01720
 Rotational constants (GHZ):           1.29629     0.37803     0.35833
 Zero-point vibrational energy     911381.7 (Joules/Mol)
                                  217.82546 (Kcal/Mol)
 Warning -- explicit consideration of  22 degrees of freedom as
           vibrations may cause significant error
 Vibrational temperatures:     36.53    53.47    57.48    93.50   119.96
          (Kelvin)            161.01   207.62   265.12   334.33   340.82
                              391.90   400.39   412.26   454.65   481.09
                              551.96   588.60   658.63   678.60   717.25
                              731.77   854.23   917.95  1066.86  1108.62
                             1142.81  1182.05  1226.72  1244.39  1306.67
                             1310.61  1345.35  1361.24  1372.27  1415.66
                             1449.16  1460.68  1500.60  1514.37  1527.63
                             1575.86  1634.65  1644.73  1658.60  1673.21
                             1689.75  1732.34  1743.32  1748.85  1784.54
                             1819.99  1840.94  1845.36  1888.89  1896.53
                             1907.07  1932.05  1942.49  1987.52  1989.36
                             2005.25  2011.62  2022.85  2039.39  2056.76
                             2067.46  2074.73  2076.82  2170.74  2177.19
                             2180.54  2184.59  2189.28  2191.93  2199.41
                             2201.28  2208.60  2213.76  2222.13  2225.89
                             2234.57  4163.62  4213.09  4250.73  4327.26
                             4348.42  4373.67  4378.72  4382.62  4393.83
                             4411.10  4421.19  4427.43  4435.15  4441.69
                             4464.18  4466.91  4470.51  4473.14  4485.77
                             4488.97  4492.84  4497.62  4509.62  4974.34

 Zero-point correction=                           0.347127 (Hartree/Particle)
 Thermal correction to Energy=                    0.362407
 Thermal correction to Enthalpy=                  0.363352
 Thermal correction to Gibbs Free Energy=         0.303275
 Sum of electronic and zero-point Energies=           -542.829771
 Sum of electronic and thermal Energies=              -542.814491
 Sum of electronic and thermal Enthalpies=            -542.813547
 Sum of electronic and thermal Free Energies=         -542.873624

                     E (Thermal)             CV                S
                      KCal/Mol        Cal/Mol-Kelvin    Cal/Mol-Kelvin
 Total                  227.414             57.143            126.443
 Electronic               0.000              0.000              0.000
 Translational            0.889              2.981             41.539
 Rotational               0.889              2.981             31.882
 Vibrational            225.637             51.181             53.022
 Vibration     1          0.593              1.985              6.160
 Vibration     2          0.594              1.982              5.405
 Vibration     3          0.594              1.981              5.262
 Vibration     4          0.597              1.971              4.300
 Vibration     5          0.600              1.961              3.810
 Vibration     6          0.607              1.940              3.236
 Vibration     7          0.616              1.909              2.746
 Vibration     8          0.631              1.861              2.285
 Vibration     9          0.653              1.791              1.861
 Vibration    10          0.656              1.784              1.826
 Vibration    11          0.675              1.724              1.581
 Vibration    12          0.679              1.714              1.544
 Vibration    13          0.684              1.699              1.494
 Vibration    14          0.703              1.643              1.331
 Vibration    15          0.716              1.607              1.239
 Vibration    16          0.753              1.505              1.025
 Vibration    17          0.773              1.450              0.930
 Vibration    18          0.816              1.344              0.773
 Vibration    19          0.829              1.313              0.733
 Vibration    20          0.854              1.253              0.662
 Vibration    21          0.864              1.231              0.637
 Vibration    22          0.951              1.045              0.461

 Optimization completed.
    -- Stationary point found.
 Normal termination of Gaussian 16 at Wed Dec  9 23:14:36 2020.

 ----------------------------------------------------------------------
 # B3LYP/6-311++G(d,p) empiricaldispersion=gd3bj scf=xqc pop=npa geom=c
 heck
 ----------------------------------------------------------------------

 --------------------------------------
 CID_60973349_JID_3364_Energie_neutraal
 --------------------------------------
 Structure from the checkpoint file:  "JID_3364.chk"
 Charge =  0 Multiplicity = 1

 SCF Done:  E(RB3LYP) =  -543.330393917     A.U. after   13 cycles
 Normal termination of Gaussian 16 at Wed Dec  9 23:18:55 2020.

 ----------------------------------------------------------------------
 # B3LYP/6-311++G(d,p) empiricaldispersion=gd3bj scf=xqc pop=npa geom=c
 heck
 ----------------------------------------------------------------------

 ------------------------------------
 CID_60973349_JID_3364_Energie_kation
 ------------------------------------
 Structure from the checkpoint file:  "JID_3364.chk"
 Charge =  1 Multiplicity = 2

 SCF Done:  E(UB3LYP) =  -543.049855419     A.U. after   20 cycles
 Normal termination of Gaussian 16 at Wed Dec  9 23:27:46 2020.
 Gaussian 16:  ES64L-G16RevA.03 25-Dec-2016

 ----------------------------------------------------------------------
 # B3LYP/6-311++G(d,p) empiricaldispersion=gd3bj scf=xqc pop=npa geom=c
 heck
 ----------------------------------------------------------------------

 -----------------------------------
 CID_60973349_JID_3364_Energie_anion
 -----------------------------------
 Structure from the checkpoint file:  "JID_3364.chk"
 Charge = -1 Multiplicity = 2

                         Standard orientation:
 ---------------------------------------------------------------------
 Center     Atomic      Atomic             Coordinates (Angstroms)
 Number     Number       Type             X           Y           Z
 ---------------------------------------------------------------------
      1          6           0        4.614238    0.611711   -0.927481
      2          6           0        3.166622    0.149337   -1.109408
      3          6           0        2.471645   -0.320770    0.178115
      4          6           0        2.367917    0.808050    1.220000
      5          7           0        1.195666   -0.928671   -0.207598
      6          6           0        0.396207   -1.550499    0.843179
      7          6           0       -0.706317   -0.632313    1.415828
      8          7           0       -1.412463    0.104932    0.369442
      9          6           0       -1.840579    1.445020    0.773675
     10          6           0       -2.716670    1.923081   -0.395724
     11          6           0       -3.222574    0.608636   -1.045185
     12          6           0       -2.622004   -0.520711   -0.184311
     13          6           0       -2.363876   -1.801990   -0.969329
     14          1           0        4.685739    1.513358   -0.309634
     15          1           0        5.074162    0.840815   -1.895153
     16          1           0        5.219503   -0.168329   -0.449074
     17          1           0        2.573357    0.964019   -1.552073
     18          1           0        3.126966   -0.683087   -1.821077
     19          1           0        3.084211   -1.125397    0.612214
     20          1           0        1.745004    1.626729    0.836270
     21          1           0        1.919722    0.448968    2.151977
     22          1           0        3.351663    1.219763    1.471902
     23          1           0        0.600680   -0.235325   -0.663392
     24          1           0       -0.064240   -2.462151    0.443346
     25          1           0        1.050971   -1.873809    1.662143
     26          1           0       -1.405596   -1.219900    2.039560
     27          1           0       -0.241997    0.107193    2.074561
     28          1           0       -2.433292    1.414981    1.708921
     29          1           0       -0.969309    2.083020    0.956440
     30          1           0       -2.123053    2.501398   -1.109730
     31          1           0       -3.531444    2.565731   -0.049916
     32          1           0       -2.857049    0.520964   -2.073938
     33          1           0       -4.314125    0.540174   -1.079227
     34          1           0       -3.326669   -0.750781    0.642097
     35          1           0       -2.066518   -2.631003   -0.320718
     36          1           0       -3.276406   -2.105940   -1.494858
     37          1           0       -1.572363   -1.642535   -1.709699
 ---------------------------------------------------------------------

 SCF Done:  E(UB3LYP) =  -543.312323803     A.U. after   29 cycles

 The electronic state is 2-A.
 Alpha  occ. eigenvalues --  -14.20511 -14.18331 -10.10000 -10.09547 -10.09226
 Alpha  occ. eigenvalues --  -10.09052 -10.08900 -10.06706 -10.06676 -10.06389
 Alpha  occ. eigenvalues --  -10.06335 -10.06185 -10.05516  -0.84014  -0.79900
 Alpha  occ. eigenvalues --   -0.69711  -0.67661  -0.66051  -0.62255  -0.60307
 Alpha  occ. eigenvalues --   -0.57107  -0.54333  -0.51015  -0.48566  -0.47542
 Alpha  occ. eigenvalues --   -0.45865  -0.39516  -0.38563  -0.37955  -0.36154
 Alpha  occ. eigenvalues --   -0.35874  -0.34768  -0.33632  -0.32412  -0.31281
 Alpha  occ. eigenvalues --   -0.30611  -0.29919  -0.29563  -0.28841  -0.28212
 Alpha  occ. eigenvalues --   -0.27137  -0.26275  -0.25628  -0.25120  -0.24084
 Alpha  occ. eigenvalues --   -0.24007  -0.23121  -0.22844  -0.22244  -0.21381
 Alpha  occ. eigenvalues --   -0.12691  -0.11646   0.04611
 Alpha virt. eigenvalues --    0.06157   0.07020   0.07188   0.08080   0.08448
 Alpha virt. eigenvalues --    0.08655   0.09706   0.09781   0.10410   0.10655
 Alpha virt. eigenvalues --    0.10954   0.11575   0.11761   0.12640   0.13001

  Beta  occ. eigenvalues --  -14.20493 -14.18330 -10.09988 -10.09540 -10.09211
  Beta  occ. eigenvalues --  -10.09034 -10.08892 -10.06687 -10.06658 -10.06374
  Beta  occ. eigenvalues --  -10.06324 -10.06155 -10.05487  -0.83988  -0.79889
  Beta  occ. eigenvalues --   -0.69683  -0.67633  -0.66019  -0.62216  -0.60268
  Beta  occ. eigenvalues --   -0.57061  -0.54276  -0.50976  -0.48512  -0.47493
  Beta  occ. eigenvalues --   -0.45809  -0.39470  -0.38532  -0.37920  -0.36119
  Beta  occ. eigenvalues --   -0.35841  -0.34737  -0.33602  -0.32381  -0.31257
  Beta  occ. eigenvalues --   -0.30579  -0.29890  -0.29528  -0.28809  -0.28182
  Beta  occ. eigenvalues --   -0.27099  -0.26234  -0.25585  -0.25083  -0.24052
  Beta  occ. eigenvalues --   -0.23977  -0.23095  -0.22810  -0.22214  -0.21357
  Beta  occ. eigenvalues --   -0.12590  -0.11623
  Beta virt. eigenvalues --    0.06593   0.07039   0.07511   0.07746   0.08577
  Beta virt. eigenvalues --    0.08921   0.09037   0.10011   0.10083   0.10809
  Beta virt. eigenvalues --    0.10937   0.11337   0.11867   0.12092   0.12911

 Mulliken charges and spin densities:
               1          2
     1  C    0.364608  -1.079303
     2  C   -0.393964   0.438174
     3  C   -1.320523   0.812689
     4  C    1.143817  -1.625447
     5  N    0.148903  -0.026698
     6  C    0.471221  -0.654898
     7  C   -0.747097   0.338479
     8  N    0.227381   0.018481
     9  C    0.339955  -0.655274
    10  C    0.291313  -0.558595
    11  C    0.574302  -1.031513
    12  C   -0.659441   0.661949
    13  C    0.062859  -0.662839
    14  H   -0.173475   0.317343
    15  H   -0.204562   0.338608
    16  H   -0.188689   0.319910
    17  H   -0.062640   0.169610
    18  H    0.023667   0.146930
    19  H    0.058930   0.081731
    20  H   -0.102662   0.277127
    21  H   -0.062482   0.174121
    22  H   -0.011107   0.148628
    23  H    0.633126  -0.383622
    24  H    0.179096   0.000751
    25  H   -0.133067   0.266713
    26  H   -0.256211   0.388602
    27  H    0.003530   0.172677
    28  H   -0.150945   0.277675
    29  H   -0.251291   0.373840
    30  H   -0.039867   0.174645
    31  H   -0.228801   0.381021
    32  H    0.025979   0.124497
    33  H   -0.184195   0.313058
    34  H   -0.240958   0.399792
    35  H    0.034747   0.088462
    36  H   -0.103802   0.253468
    37  H   -0.067656   0.219210
 Sum of Mulliken charges =  -1.00000   1.00000

 Dipole moment (field-independent basis, Debye):
    X=             -0.1044    Y=             -2.3249    Z=             -0.5589  Tot=              2.3935
 Quadrupole moment (field-independent basis, Debye-Ang):
   XX=           -178.8376   YY=           -126.4103   ZZ=           -123.4124
   XY=             -1.8452   XZ=              4.8004   YZ=             -2.3728

 Summary of Natural Population Analysis:

                                       Natural Population
                Natural  -----------------------------------------------
    Atom  No    Charge         Core      Valence    Rydberg      Total
 -----------------------------------------------------------------------
      C    1   -0.28441      0.99967     2.28051    0.00423     3.28441
      C    2   -0.19107      0.99962     2.18193    0.00953     3.19107
      C    3   -0.00593      0.99960     1.99391    0.01242     3.00593
      C    4   -0.29775      0.99965     2.29174    0.00636     3.29775
      N    5   -0.34992      0.99974     2.83877    0.01141     3.84992
      C    6   -0.08991      0.99962     2.07908    0.01120     3.08991
      C    7   -0.09039      0.99961     2.08046    0.01032     3.09039
      N    8   -0.29283      0.99969     2.77998    0.01316     3.79283
      C    9   -0.07861      0.99962     2.06824    0.01075     3.07861
      C   10   -0.19435      0.99963     2.18675    0.00797     3.19435
      C   11   -0.18923      0.99961     2.18075    0.00887     3.18923
      C   12   -0.00259      0.99960     1.99049    0.01250     3.00259
      C   13   -0.28902      0.99964     2.28327    0.00611     3.28902
      H   14    0.09707      0.00000     0.40154    0.00139     0.40293
      H   15    0.09846      0.00000     0.40046    0.00108     0.40154
      H   16    0.09471      0.00000     0.40404    0.00126     0.40529
      H   17    0.09246      0.00000     0.40616    0.00138     0.40754
      H   18    0.10077      0.00000     0.39782    0.00141     0.39923
      H   19    0.08415      0.00000     0.41395    0.00190     0.41585
      H   20    0.09764      0.00000     0.40098    0.00139     0.40236
      H   21    0.09767      0.00000     0.40115    0.00119     0.40233
      H   22    0.09992      0.00000     0.39896    0.00112     0.40008
      H   23    0.17952      0.00000     0.31632    0.00416     0.32048
      H   24    0.08800      0.00000     0.41045    0.00155     0.41200
      H   25    0.09203      0.00000     0.40693    0.00104     0.40797
      H   26    0.08618      0.00000     0.41250    0.00133     0.41382
      H   27    0.09603      0.00000     0.40225    0.00172     0.40397
      H   28    0.07969      0.00000     0.41865    0.00166     0.42031
      H   29    0.09740      0.00000     0.40106    0.00154     0.40260
      H   30    0.09796      0.00000     0.40083    0.00121     0.40204
      H   31    0.10000      0.00000     0.39871    0.00129     0.40000
      H   32    0.09615      0.00000     0.40256    0.00128     0.40385
      H   33    0.10099      0.00000     0.39777    0.00124     0.39901
      H   34    0.07796      0.00000     0.41957    0.00247     0.42204
      H   35    0.09849      0.00000     0.40040    0.00111     0.40151
      H   36    0.10023      0.00000     0.39902    0.00075     0.39977
      H   37    0.10254      0.00000     0.39631    0.00115     0.39746
 =======================================================================
   * Total *    0.00000     12.99530    38.84426    0.16043    52.00000

 Normal termination of Gaussian 16 at Wed Dec  9 23:40:15 2020.
