 Gaussian 16, Revision A.03,

 -----------------------------------------------------------
 # opt freq B3LYP/6-31G(d) empiricaldispersion=gd3bj scf=xqc
 -----------------------------------------------------------

 -------------------------------
 CID_106725274_JID_6318_neutraal
 -------------------------------
 Symbolic Z-matrix:
 Charge =  0 Multiplicity = 1

 SCF Done:  E(RB3LYP) =  -1506.43163023     A.U. after   14 cycles
 SCF Done:  E(RB3LYP) =  -1506.43301635     A.U. after   14 cycles
 SCF Done:  E(RB3LYP) =  -1506.43359732     A.U. after   13 cycles
 SCF Done:  E(RB3LYP) =  -1506.43794427     A.U. after   12 cycles
 SCF Done:  E(RB3LYP) =  -1506.43985490     A.U. after   13 cycles
 SCF Done:  E(RB3LYP) =  -1506.44088598     A.U. after   13 cycles
 SCF Done:  E(RB3LYP) =  -1506.44251286     A.U. after   13 cycles
 SCF Done:  E(RB3LYP) =  -1506.44380843     A.U. after   13 cycles
 SCF Done:  E(RB3LYP) =  -1506.44410718     A.U. after   12 cycles
 SCF Done:  E(RB3LYP) =  -1506.44509912     A.U. after   12 cycles
 SCF Done:  E(RB3LYP) =  -1506.44594389     A.U. after   11 cycles
 SCF Done:  E(RB3LYP) =  -1506.44595006     A.U. after   10 cycles
 SCF Done:  E(RB3LYP) =  -1506.44595068     A.U. after    8 cycles
 SCF Done:  E(RB3LYP) =  -1506.44595080     A.U. after    8 cycles
 SCF Done:  E(RB3LYP) =  -1506.44595084     A.U. after    7 cycles
 Optimization completed.
    -- Stationary point found.
 Normal termination of Gaussian 16 at Thu Dec 10 22:21:11 2020.

 --------------------------------------------------------------------
 #N Geom=AllCheck Guess=TCheck SCRF=Check GenChk RB3LYP/6-31G(d) Freq
 --------------------------------------------------------------------

 Structure from the checkpoint file:  "JID_6318.chk"
 -------------------------------
 CID_106725274_JID_6318_neutraal
 -------------------------------
 Charge =  0 Multiplicity = 1

 SCF Done:  E(RB3LYP) =  -1506.44595084     A.U. after    1 cycles

  Exact polarizability: 170.995  -2.782 147.757  -5.270  -1.843 122.065
 Approx polarizability: 229.247   3.392 214.537  -7.900  -9.361 197.939

                      1                      2                      3
                      A                      A                      A
 Frequencies --     25.8001                27.7904                43.9510
 Red. masses --      7.1460                 4.7280                 6.0577
 Frc consts  --      0.0028                 0.0022                 0.0069
 IR Inten    --      2.7924                 0.3426                 0.4992

                      4                      5                      6
                      A                      A                      A
 Frequencies --     53.4244                68.2323                98.8306
 Red. masses --      6.6981                 5.2301                 4.5131
 Frc consts  --      0.0113                 0.0143                 0.0260
 IR Inten    --      1.0355                 0.5716                 0.5044

                      7                      8                      9
                      A                      A                      A
 Frequencies --    104.6045               122.8623               142.5577
 Red. masses --      2.9055                 3.3733                 7.1598
 Frc consts  --      0.0187                 0.0300                 0.0857
 IR Inten    --      1.2884                 0.6796                 4.0509

                     10                     11                     12
                      A                      A                      A
 Frequencies --    148.7836               165.0052               208.3421
 Red. masses --      2.5937                 3.0503                 3.8403
 Frc consts  --      0.0338                 0.0489                 0.0982
 IR Inten    --      3.6161                 2.2494                 2.3122

                     13                     14                     15
                      A                      A                      A
 Frequencies --    211.8823               240.4742               243.8461
 Red. masses --      2.8117                 2.6551                 1.2711
 Frc consts  --      0.0744                 0.0905                 0.0445
 IR Inten    --      0.8401                 1.4243                38.5502

                     16                     17                     18
                      A                      A                      A
 Frequencies --    277.7040               281.3524               293.0426
 Red. masses --      3.6533                 3.9581                 1.1876
 Frc consts  --      0.1660                 0.1846                 0.0601
 IR Inten    --      2.2346                 1.9936                 1.2727

                     19                     20                     21
                      A                      A                      A
 Frequencies --    298.8981               327.0777               336.1396
 Red. masses --      2.7509                 2.7003                 2.4641
 Frc consts  --      0.1448                 0.1702                 0.1640
 IR Inten    --      0.6488                 1.9820                14.0577

                     22                     23                     24
                      A                      A                      A
 Frequencies --    358.2649               411.4078               419.1940
 Red. masses --      4.0909                 3.4425                 4.0714
 Frc consts  --      0.3094                 0.3433                 0.4215
 IR Inten    --      8.3313                16.8410                17.4149

                     25                     26                     27
                      A                      A                      A
 Frequencies --    488.9976               504.7400               527.0850
 Red. masses --      7.2588                 3.4227                 4.0092
 Frc consts  --      1.0226                 0.5138                 0.6562
 IR Inten    --     45.7476                20.1174                11.2894

                     28                     29                     30
                      A                      A                      A
 Frequencies --    620.3588               636.1072               639.9029
 Red. masses --      1.3623                 3.3325                 3.3939
 Frc consts  --      0.3089                 0.7945                 0.8188
 IR Inten    --     74.0669                 6.4760                13.9988

                     31                     32                     33
                      A                      A                      A
 Frequencies --    660.8792               711.8676               744.1340
 Red. masses --      3.3185                 2.9748                 2.0886
 Frc consts  --      0.8540                 0.8882                 0.6814
 IR Inten    --     10.3442                 5.4454                15.0121

                     34                     35                     36
                      A                      A                      A
 Frequencies --    763.5394               766.9244               779.5329
 Red. masses --      2.7596                 1.5021                 2.8759
 Frc consts  --      0.9479                 0.5205                 1.0296
 IR Inten    --      4.4305                42.1577                16.6909

                     37                     38                     39
                      A                      A                      A
 Frequencies --    811.9839               853.4165               865.7099
 Red. masses --      1.8484                 1.9888                 1.9586
 Frc consts  --      0.7180                 0.8534                 0.8649
 IR Inten    --     33.2847                20.0603                12.8107

                     40                     41                     42
                      A                      A                      A
 Frequencies --    907.1039               934.8696               960.6674
 Red. masses --      1.6963                 1.6524                 2.1470
 Frc consts  --      0.8224                 0.8509                 1.1674
 IR Inten    --      4.8728               173.2160                10.5525

                     43                     44                     45
                      A                      A                      A
 Frequencies --    981.1617              1028.7337              1053.9972
 Red. masses --      1.7213                 2.1050                 3.5056
 Frc consts  --      0.9763                 1.3125                 2.2945
 IR Inten    --     10.3479                15.7609                 6.0164

                     46                     47                     48
                      A                      A                      A
 Frequencies --   1061.3543              1070.7665              1078.8165
 Red. masses --      1.9339                 2.2810                 1.5666
 Frc consts  --      1.2835                 1.5409                 1.0742
 IR Inten    --     18.6413                13.9687                24.9902

                     49                     50                     51
                      A                      A                      A
 Frequencies --   1108.6170              1123.7836              1135.4077
 Red. masses --      3.0832                 2.0144                 2.5001
 Frc consts  --      2.2326                 1.4989                 1.8989
 IR Inten    --     97.9509                41.9271               156.7236

                     52                     53                     54
                      A                      A                      A
 Frequencies --   1155.2210              1167.1701              1188.7918
 Red. masses --      1.8374                 1.1961                 1.5405
 Frc consts  --      1.4447                 0.9600                 1.2827
 IR Inten    --    125.9986                43.3753                 6.4789

                     55                     56                     57
                      A                      A                      A
 Frequencies --   1201.5758              1246.5390              1258.2362
 Red. masses --      1.1599                 1.3538                 1.3306
 Frc consts  --      0.9866                 1.2395                 1.2412
 IR Inten    --      7.9576                 3.7735                 9.2190

                     58                     59                     60
                      A                      A                      A
 Frequencies --   1286.8151              1292.2386              1304.0787
 Red. masses --      1.9282                 1.4475                 1.7163
 Frc consts  --      1.8812                 1.4241                 1.7197
 IR Inten    --     59.1766                 8.2639                72.6255

                     61                     62                     63
                      A                      A                      A
 Frequencies --   1309.7111              1330.5759              1344.2208
 Red. masses --      1.3684                 1.2687                 1.3273
 Frc consts  --      1.3830                 1.3233                 1.4130
 IR Inten    --      7.7302                24.2191                35.3171

                     64                     65                     66
                      A                      A                      A
 Frequencies --   1354.4888              1363.9544              1377.8010
 Red. masses --      1.3183                 1.2922                 1.5637
 Frc consts  --      1.4250                 1.4164                 1.7490
 IR Inten    --     10.6547                 2.8007                 7.4497

                     67                     68                     69
                      A                      A                      A
 Frequencies --   1389.7054              1403.3416              1442.6897
 Red. masses --      1.4157                 1.3929                 1.2737
 Frc consts  --      1.6109                 1.6162                 1.5620
 IR Inten    --     10.2080                 5.9821                 1.6025

                     70                     71                     72
                      A                      A                      A
 Frequencies --   1442.9783              1481.5640              1486.6200
 Red. masses --      1.3756                 1.0916                 1.0883
 Frc consts  --      1.6876                 1.4117                 1.4171
 IR Inten    --      3.7273                 4.0459                 0.4506

                     73                     74                     75
                      A                      A                      A
 Frequencies --   1493.3962              1505.7838              1512.8006
 Red. masses --      1.0865                 1.0880                 1.0782
 Frc consts  --      1.4276                 1.4535                 1.4538
 IR Inten    --      8.3211                 3.4670                 5.2783

                     76                     77                     78
                      A                      A                      A
 Frequencies --   1513.5870              1528.8346              1552.1798
 Red. masses --      1.0842                 1.0471                 1.0484
 Frc consts  --      1.4634                 1.4419                 1.4882
 IR Inten    --      7.6996                 3.0301                 9.5680

                     79                     80                     81
                      A                      A                      A
 Frequencies --   1709.6056              1846.3743              3036.7828
 Red. masses --      1.0881                 9.5931                 1.0684
 Frc consts  --      1.8738                19.2685                 5.8052
 IR Inten    --     24.3147               299.3502                22.2691

                     82                     83                     84
                      A                      A                      A
 Frequencies --   3046.3005              3053.8035              3087.0922
 Red. masses --      1.0695                 1.0390                 1.0598
 Frc consts  --      5.8477                 5.7088                 5.9509
 IR Inten    --     28.3497                20.3253                 8.0768

                     85                     86                     87
                      A                      A                      A
 Frequencies --   3087.2333              3097.8115              3101.9115
 Red. masses --      1.0597                 1.0838                 1.0601
 Frc consts  --      5.9505                 6.1281                 6.0100
 IR Inten    --      9.7928                 9.1322                 1.1541

                     88                     89                     90
                      A                      A                      A
 Frequencies --   3106.8537              3112.1294              3114.1256
 Red. masses --      1.0936                 1.0585                 1.0962
 Frc consts  --      6.2196                 6.0404                 6.2636
 IR Inten    --      1.9250                 3.0075                 7.5769

                     91                     92                     93
                      A                      A                      A
 Frequencies --   3123.1657              3137.1409              3138.5845
 Red. masses --      1.0990                 1.1046                 1.1025
 Frc consts  --      6.3157                 6.4051                 6.3988
 IR Inten    --     36.8824                 8.5917                20.0661

                     94                     95                     96
                      A                      A                      A
 Frequencies --   3143.7786              3156.7261              3173.4416
 Red. masses --      1.1049                 1.1051                 1.1070
 Frc consts  --      6.4338                 6.4883                 6.5682
 IR Inten    --      6.5088                 2.7923                 0.5266

                     97                     98                     99
                      A                      A                      A
 Frequencies --   3464.5345              3545.8511              3662.9074
 Red. masses --      1.0501                 1.0915                 1.0641
 Frc consts  --      7.4264                 8.0860                 8.4117
 IR Inten    --      0.6641                 1.6498                33.9970

 - Thermochemistry -
 -------------------
 Temperature   298.150 Kelvin.  Pressure   1.00000 Atm.
 Atom     1 has atomic number  6 and mass  12.00000

 Molecular mass:   269.07555 amu.
 Principal axes and moments of inertia in atomic units:
                           1         2         3
     Eigenvalues --  2986.802697328.311058919.95770
           X            0.99973  -0.02275   0.00471
           Y            0.02279   0.99971  -0.00782
           Z           -0.00453   0.00793   0.99996
 This molecule is an asymmetric top.
 Rotational symmetry number  1.
 Warning -- assumption of classical behavior for rotation
           may cause significant error
 Rotational temperatures (Kelvin)      0.02900     0.01182     0.00971
 Rotational constants (GHZ):           0.60424     0.24627     0.20233
 Zero-point vibrational energy     769264.5 (Joules/Mol)
                                  183.85863 (Kcal/Mol)
 Warning -- explicit consideration of  28 degrees of freedom as
           vibrations may cause significant error
 Vibrational temperatures:     37.12    39.98    63.24    76.87    98.17
          (Kelvin)            142.20   150.50   176.77   205.11   214.07
                              237.41   299.76   304.85   345.99   350.84
                              399.55   404.80   421.62   430.05   470.59
                              483.63   515.46   591.92   603.13   703.56
                              726.21   758.36   892.56   915.22   920.68
                              950.86  1024.22  1070.64  1098.56  1103.43
                             1121.57  1168.26  1227.88  1245.56  1305.12
                             1345.07  1382.19  1411.67  1480.12  1516.47
                             1527.05  1540.59  1552.18  1595.05  1616.87
                             1633.60  1662.11  1679.30  1710.41  1728.80
                             1793.49  1810.32  1851.44  1859.24  1876.28
                             1884.38  1914.40  1934.03  1948.81  1962.43
                             1982.35  1999.48  2019.10  2075.71  2076.12
                             2131.64  2138.91  2148.66  2166.49  2176.58
                             2177.71  2199.65  2233.24  2459.74  2656.52
                             4369.25  4382.95  4393.74  4441.64  4441.84
                             4457.06  4462.96  4470.07  4477.66  4480.53
                             4493.54  4513.65  4515.72  4523.20  4541.82
                             4565.87  4984.69  5101.69  5270.11

 Zero-point correction=                           0.292997 (Hartree/Particle)
 Thermal correction to Energy=                    0.312221
 Thermal correction to Enthalpy=                  0.313165
 Thermal correction to Gibbs Free Energy=         0.243712
 Sum of electronic and zero-point Energies=          -1506.152953
 Sum of electronic and thermal Energies=             -1506.133730
 Sum of electronic and thermal Enthalpies=           -1506.132785
 Sum of electronic and thermal Free Energies=        -1506.202239

                     E (Thermal)             CV                S
                      KCal/Mol        Cal/Mol-Kelvin    Cal/Mol-Kelvin
 Total                  195.922             69.549            146.177
 Electronic               0.000              0.000              0.000
 Translational            0.889              2.981             42.668
 Rotational               0.889              2.981             33.634
 Vibrational            194.144             63.587             69.875
 Vibration     1          0.593              1.985              6.129
 Vibration     2          0.593              1.984              5.981
 Vibration     3          0.595              1.980              5.073
 Vibration     4          0.596              1.976              4.686
 Vibration     5          0.598              1.969              4.204
 Vibration     6          0.604              1.950              3.477
 Vibration     7          0.605              1.946              3.367
 Vibration     8          0.610              1.930              3.055
 Vibration     9          0.616              1.911              2.769
 Vibration    10          0.618              1.904              2.688
 Vibration    11          0.623              1.885              2.492
 Vibration    12          0.642              1.828              2.058
 Vibration    13          0.643              1.823              2.027
 Vibration    14          0.658              1.778              1.799
 Vibration    15          0.659              1.773              1.775
 Vibration    16          0.679              1.715              1.548
 Vibration    17          0.681              1.708              1.525
 Vibration    18          0.688              1.687              1.456
 Vibration    19          0.692              1.676              1.423
 Vibration    20          0.711              1.621              1.274
 Vibration    21          0.717              1.603              1.230
 Vibration    22          0.733              1.558              1.130
 Vibration    23          0.775              1.445              0.922
 Vibration    24          0.782              1.429              0.895
 Vibration    25          0.845              1.274              0.686
 Vibration    26          0.860              1.239              0.646
 Vibration    27          0.882              1.190              0.594
 Vibration    28          0.980              0.989              0.416

 Optimization completed.
    -- Stationary point found.
 Normal termination of Gaussian 16 at Thu Dec 10 22:35:02 2020.

 ----------------------------------------------------------------------
 # B3LYP/6-311++G(d,p) empiricaldispersion=gd3bj scf=xqc pop=npa geom=c
 heck
 ----------------------------------------------------------------------

 ---------------------------------------
 CID_106725274_JID_6318_Energie_neutraal
 ---------------------------------------
 Structure from the checkpoint file:  "JID_6318.chk"
 Charge =  0 Multiplicity = 1

 SCF Done:  E(RB3LYP) =  -1506.72548137     A.U. after   15 cycles
 Normal termination of Gaussian 16 at Thu Dec 10 22:42:31 2020.

 ----------------------------------------------------------------------
 # B3LYP/6-311++G(d,p) empiricaldispersion=gd3bj scf=xqc pop=npa geom=c
 heck
 ----------------------------------------------------------------------

 -------------------------------------
 CID_106725274_JID_6318_Energie_kation
 -------------------------------------
 Structure from the checkpoint file:  "JID_6318.chk"
 Charge =  1 Multiplicity = 2

 SCF Done:  E(UB3LYP) =  -1506.40784122     A.U. after   23 cycles
 Normal termination of Gaussian 16 at Thu Dec 10 22:58:43 2020.
 Gaussian 16:  ES64L-G16RevA.03 25-Dec-2016

 ----------------------------------------------------------------------
 # B3LYP/6-311++G(d,p) empiricaldispersion=gd3bj scf=xqc pop=npa geom=c
 heck
 ----------------------------------------------------------------------

 ------------------------------------
 CID_106725274_JID_6318_Energie_anion
 ------------------------------------
 Structure from the checkpoint file:  "JID_6318.chk"
 Charge = -1 Multiplicity = 2

                         Standard orientation:
 ---------------------------------------------------------------------
 Center     Atomic      Atomic             Coordinates (Angstroms)
 Number     Number       Type             X           Y           Z
 ---------------------------------------------------------------------
      1          6           0        1.779647   -2.127620    1.596266
      2          6           0        2.525118   -2.343243    0.276072
      3          6           0        2.272782   -1.288404   -0.802029
      4         16           0        2.863802    0.389061   -0.382481
      5          8           0        3.962241    0.263692    0.591937
      6          8           0        3.063579    1.102125   -1.656900
      7          6           0        1.469734    1.202101    0.468270
      8          6           0        0.325448    1.554282   -0.472181
      9         16           0       -1.013729    2.472305    0.379829
     10          6           0       -1.816964    1.145197    1.378514
     11          6           0       -3.172716    0.701504    0.823180
     12          6           0       -3.139203   -0.047402   -0.525717
     13          6           0       -2.561772   -1.445937   -0.320404
     14          8           0       -3.215954   -2.438295   -0.095085
     15          8           0       -1.198574   -1.488126   -0.387292
     16          7           0       -4.487920   -0.092551   -1.079492
     17          1           0        2.182338   -1.264692    2.134343
     18          1           0        1.893094   -3.000377    2.247042
     19          1           0        0.706345   -1.964939    1.438208
     20          1           0        3.600923   -2.389964    0.470841
     21          1           0        2.240371   -3.311038   -0.157641
     22          1           0        2.827761   -1.515168   -1.717530
     23          1           0        1.214791   -1.192378   -1.065019
     24          1           0        1.161903    0.543006    1.282291
     25          1           0        1.918285    2.099140    0.904775
     26          1           0        0.687099    2.218557   -1.260116
     27          1           0       -0.090695    0.663921   -0.946623
     28          1           0       -1.121360    0.306659    1.470133
     29          1           0       -1.956202    1.557893    2.381498
     30          1           0       -3.672216    0.065787    1.568213
     31          1           0       -3.812353    1.575181    0.666510
     32          1           0       -2.497620    0.510595   -1.214805
     33          1           0       -0.949678   -2.417096   -0.215317
     34          1           0       -4.459025   -0.492059   -2.016521
     35          1           0       -5.042259   -0.745067   -0.524500
 ---------------------------------------------------------------------

 SCF Done:  E(UB3LYP) =  -1506.72297526     A.U. after   33 cycles
 SCF Done:  E(UB3LYP) =  -1506.72297526     a.u. after    1 cycles

 The electronic state is 2-A.
 Alpha  occ. eigenvalues --  -88.95224 -88.76259 -19.08296 -19.03100 -19.02435
 Alpha  occ. eigenvalues --  -19.02408 -14.21814 -10.21820 -10.13452 -10.12903
 Alpha  occ. eigenvalues --  -10.12843 -10.12103 -10.11728 -10.09882 -10.08779
 Alpha  occ. eigenvalues --  -10.06993  -8.01760  -7.84862  -5.98021  -5.97911
 Alpha  occ. eigenvalues --   -5.97847  -5.81261  -5.80892  -5.80225  -1.02268
 Alpha  occ. eigenvalues --   -1.01519  -0.93548  -0.91304  -0.81856  -0.75112
 Alpha  occ. eigenvalues --   -0.72405  -0.70789  -0.65889  -0.63215  -0.61261
 Alpha  occ. eigenvalues --   -0.56819  -0.53749  -0.51840  -0.49274  -0.48270
 Alpha  occ. eigenvalues --   -0.44173  -0.42635  -0.41743  -0.40686  -0.40074
 Alpha  occ. eigenvalues --   -0.39157  -0.38583  -0.37784  -0.36667  -0.35898
 Alpha  occ. eigenvalues --   -0.35076  -0.34689  -0.33582  -0.33155  -0.32460
 Alpha  occ. eigenvalues --   -0.30805  -0.30406  -0.29432  -0.28900  -0.27435
 Alpha  occ. eigenvalues --   -0.26894  -0.26592  -0.25854  -0.24253  -0.24020
 Alpha  occ. eigenvalues --   -0.23206  -0.22726  -0.21561  -0.20250  -0.19782
 Alpha  occ. eigenvalues --   -0.17575  -0.15084   0.03821
 Alpha virt. eigenvalues --    0.06036   0.06511   0.07360   0.07855   0.08414
 Alpha virt. eigenvalues --    0.08686   0.09104   0.09286   0.09798   0.10204
 Alpha virt. eigenvalues --    0.11331   0.11541   0.11975   0.12112   0.12375

  Beta  occ. eigenvalues --  -88.95222 -88.76256 -19.08213 -19.03075 -19.02424
  Beta  occ. eigenvalues --  -19.02405 -14.21795 -10.21814 -10.13433 -10.12895
  Beta  occ. eigenvalues --  -10.12835 -10.12078 -10.11709 -10.09863 -10.08743
  Beta  occ. eigenvalues --  -10.06947  -8.01758  -7.84860  -5.98019  -5.97910
  Beta  occ. eigenvalues --   -5.97845  -5.81256  -5.80889  -5.80224  -1.02162
  Beta  occ. eigenvalues --   -1.01502  -0.93456  -0.91285  -0.81823  -0.75090
  Beta  occ. eigenvalues --   -0.72363  -0.70752  -0.65847  -0.63152  -0.61196
  Beta  occ. eigenvalues --   -0.56747  -0.53668  -0.51769  -0.49192  -0.48203
  Beta  occ. eigenvalues --   -0.44131  -0.42612  -0.41710  -0.40645  -0.40018
  Beta  occ. eigenvalues --   -0.39120  -0.38543  -0.37752  -0.36631  -0.35860
  Beta  occ. eigenvalues --   -0.35025  -0.34639  -0.33519  -0.33134  -0.32407
  Beta  occ. eigenvalues --   -0.30776  -0.30369  -0.29393  -0.28867  -0.27389
  Beta  occ. eigenvalues --   -0.26829  -0.26551  -0.25809  -0.24207  -0.23980
  Beta  occ. eigenvalues --   -0.23182  -0.22705  -0.21543  -0.20192  -0.19764
  Beta  occ. eigenvalues --   -0.17538  -0.15072
  Beta virt. eigenvalues --    0.06263   0.06687   0.07271   0.07563   0.07914
  Beta virt. eigenvalues --    0.08692   0.09161   0.09320   0.09554   0.10154
  Beta virt. eigenvalues --    0.10529   0.11516   0.11598   0.12101   0.12297

 Mulliken charges and spin densities:
               1          2
     1  C    0.526758  -0.969511
     2  C   -0.181903  -0.319890
     3  C   -0.210063  -0.138238
     4  S    0.689319  -0.298742
     5  O   -0.177763  -0.002370
     6  O   -0.194708   0.016356
     7  C   -0.959079   0.056113
     8  C   -0.132912  -0.151021
     9  S    0.078374   0.038146
    10  C   -0.244646  -0.030624
    11  C    0.120993  -0.253127
    12  C    0.488831  -0.906462
    13  C    0.100853  -0.369964
    14  O   -0.245913   0.031574
    15  O   -0.122987  -0.040624
    16  N   -0.322811   0.069754
    17  H   -0.096592   0.249540
    18  H   -0.353750   0.518683
    19  H    0.058368   0.080617
    20  H    0.281000  -0.099194
    21  H   -0.590462   0.766087
    22  H   -0.108594   0.369194
    23  H   -0.019547   0.274454
    24  H    0.347204  -0.102646
    25  H    0.226015  -0.003547
    26  H    0.298505  -0.008184
    27  H    0.317990  -0.158952
    28  H   -0.127781   0.206569
    29  H   -0.244624   0.523598
    30  H   -0.109507   0.281899
    31  H    0.111212   0.090026
    32  H    0.051202   0.186884
    33  H   -0.456260   0.811725
    34  H    0.039667   0.197384
    35  H    0.163611   0.084495
 Sum of Mulliken charges =  -1.00000   1.00000

 Dipole moment (field-independent basis, Debye):
    X=             -0.6877    Y=              5.9328    Z=             -0.0725  Tot=              5.9730
 Quadrupole moment (field-independent basis, Debye-Ang):
   XX=           -185.5534   YY=           -175.1918   ZZ=           -148.0475
   XY=             -3.7567   XZ=              2.6351   YZ=              2.1959

 Summary of Natural Population Analysis:

                                       Natural Population
                Natural  -----------------------------------------------
    Atom  No    Charge         Core      Valence    Rydberg      Total
 -----------------------------------------------------------------------
      C    1   -0.29049      0.99966     2.28461    0.00622     3.29049
      C    2   -0.20178      0.99962     2.19220    0.00995     3.20178
      C    3   -0.28875      0.99957     2.27712    0.01206     3.28875
      S    4    1.01510      4.99927     1.89136    0.09427     6.98490
      O    5   -0.47005      0.99991     3.46459    0.00555     4.47005
      O    6   -0.47419      0.99991     3.46852    0.00576     4.47419
      C    7   -0.29564      0.99955     2.28421    0.01187     3.29564
      C    8   -0.26477      0.99956     2.25531    0.00990     3.26477
      S    9    0.08690      4.99963     2.89606    0.01741     7.91310
      C   10   -0.25332      0.99958     2.24293    0.01081     3.25332
      C   11   -0.19449      0.99959     2.18405    0.01085     3.19449
      C   12   -0.06127      0.99955     2.04807    0.01364     3.06127
      C   13    0.40149      0.99969     1.57191    0.02691     2.59851
      O   14   -0.30092      0.99987     3.29460    0.00645     4.30092
      O   15   -0.36402      0.99988     3.35626    0.00788     4.36402
      N   16   -0.41303      0.99977     2.90443    0.00882     3.91303
      H   17    0.09770      0.00000     0.40112    0.00119     0.40230
      H   18    0.10576      0.00000     0.39316    0.00108     0.39424
      H   19    0.09787      0.00000     0.40004    0.00209     0.40213
      H   20    0.10405      0.00000     0.39465    0.00130     0.39595
      H   21    0.10963      0.00000     0.38741    0.00296     0.39037
      H   22    0.11946      0.00000     0.37929    0.00125     0.38054
      H   23    0.11820      0.00000     0.37960    0.00220     0.38180
      H   24    0.11645      0.00000     0.38170    0.00185     0.38355
      H   25    0.11837      0.00000     0.38031    0.00133     0.38163
      H   26    0.11673      0.00000     0.38225    0.00102     0.38327
      H   27    0.11314      0.00000     0.38471    0.00216     0.38686
      H   28    0.11001      0.00000     0.38800    0.00199     0.38999
      H   29    0.10802      0.00000     0.39078    0.00121     0.39198
      H   30    0.10420      0.00000     0.39455    0.00126     0.39580
      H   31    0.10891      0.00000     0.38957    0.00152     0.39109
      H   32    0.10663      0.00000     0.39129    0.00208     0.39337
      H   33    0.25715      0.00000     0.22057    0.02228     0.24285
      H   34    0.17724      0.00000     0.32122    0.00155     0.32276
      H   35    0.17970      0.00000     0.31843    0.00187     0.32030
 =======================================================================
   * Total *   -0.00000     23.99461    47.69488    0.31051    72.00000

 Normal termination of Gaussian 16 at Thu Dec 10 23:21:45 2020.
