 Gaussian 16, Revision A.03,

 -----------------------------------------------------------
 # opt freq B3LYP/6-31G(d) empiricaldispersion=gd3bj scf=xqc
 -----------------------------------------------------------

 ------------------------------
 CID_64532632_JID_2673_neutraal
 ------------------------------
 Symbolic Z-matrix:
 Charge =  0 Multiplicity = 1

 SCF Done:  E(RB3LYP) =  -539.757526070     A.U. after   14 cycles
 SCF Done:  E(RB3LYP) =  -539.761787665     A.U. after   12 cycles
 SCF Done:  E(RB3LYP) =  -539.762341966     A.U. after   11 cycles
 SCF Done:  E(RB3LYP) =  -539.761841099     A.U. after   12 cycles
 SCF Done:  E(RB3LYP) =  -539.762638660     A.U. after   11 cycles
 SCF Done:  E(RB3LYP) =  -539.762751792     A.U. after   10 cycles
 SCF Done:  E(RB3LYP) =  -539.762779101     A.U. after   10 cycles
 SCF Done:  E(RB3LYP) =  -539.762797025     A.U. after   10 cycles
 SCF Done:  E(RB3LYP) =  -539.762810802     A.U. after    9 cycles
 SCF Done:  E(RB3LYP) =  -539.762835223     A.U. after   10 cycles
 SCF Done:  E(RB3LYP) =  -539.765228374     A.U. after    8 cycles
 SCF Done:  E(RB3LYP) =  -539.765239798     A.U. after    9 cycles
 SCF Done:  E(RB3LYP) =  -539.765240184     A.U. after    8 cycles
 SCF Done:  E(RB3LYP) =  -539.765240165     A.U. after    6 cycles
 SCF Done:  E(RB3LYP) =  -539.765240292     A.U. after    7 cycles
 SCF Done:  E(RB3LYP) =  -539.765240298     A.U. after    6 cycles
 Optimization completed.
    -- Stationary point found.
 Normal termination of Gaussian 16 at Wed Dec  9 18:00:37 2020.

 --------------------------------------------------------------------
 #N Geom=AllCheck Guess=TCheck SCRF=Check GenChk RB3LYP/6-31G(d) Freq
 --------------------------------------------------------------------

 Structure from the checkpoint file:  "JID_2673.chk"
 ------------------------------
 CID_64532632_JID_2673_neutraal
 ------------------------------
 Charge =  0 Multiplicity = 1

 SCF Done:  E(RB3LYP) =  -539.765240298     A.U. after    1 cycles

  Exact polarizability: 137.240  -2.268 106.616   4.105  -0.413  99.014
 Approx polarizability: 179.021  -0.299 143.365   7.314  -5.324 145.911

                      1                      2                      3
                      A                      A                      A
 Frequencies --     29.2498                55.3338                70.7599
 Red. masses --      2.8505                 3.3637                 2.7337
 Frc consts  --      0.0014                 0.0061                 0.0081
 IR Inten    --      0.1630                 0.3580                 0.4709

                      4                      5                      6
                      A                      A                      A
 Frequencies --     81.3290                98.6334               118.8218
 Red. masses --      2.0156                 2.7808                 3.1352
 Frc consts  --      0.0079                 0.0159                 0.0261
 IR Inten    --      0.2591                 0.6844                 2.8487

                      7                      8                      9
                      A                      A                      A
 Frequencies --    197.6750               219.7155               229.1638
 Red. masses --      2.8960                 2.1653                 1.0531
 Frc consts  --      0.0667                 0.0616                 0.0326
 IR Inten    --      3.2040                 3.0126                 0.0630

                     10                     11                     12
                      A                      A                      A
 Frequencies --    253.7435               262.2382               271.5920
 Red. masses --      1.1383                 1.2608                 1.7220
 Frc consts  --      0.0432                 0.0511                 0.0748
 IR Inten    --      0.9505                 0.5774                 1.2455

                     13                     14                     15
                      A                      A                      A
 Frequencies --    282.6115               285.7872               336.6225
 Red. masses --      1.5865                 3.0043                 2.5532
 Frc consts  --      0.0747                 0.1446                 0.1705
 IR Inten    --      3.6077                 9.7283                 1.6334

                     16                     17                     18
                      A                      A                      A
 Frequencies --    340.5034               376.2622               400.6810
 Red. masses --      2.7514                 2.5999                 1.5029
 Frc consts  --      0.1880                 0.2169                 0.1422
 IR Inten    --      7.8599                 5.1672                64.0140

                     19                     20                     21
                      A                      A                      A
 Frequencies --    424.4410               436.2069               504.4278
 Red. masses --      2.1044                 1.9017                 2.5986
 Frc consts  --      0.2234                 0.2132                 0.3896
 IR Inten    --     12.7814                26.8686                48.2466

                     22                     23                     24
                      A                      A                      A
 Frequencies --    536.8281               573.4236               650.7729
 Red. masses --      2.9922                 3.8576                 1.6688
 Frc consts  --      0.5081                 0.7473                 0.4164
 IR Inten    --     13.2786                26.8271               146.8025

                     25                     26                     27
                      A                      A                      A
 Frequencies --    733.0727               788.5636               836.7064
 Red. masses --      2.7607                 3.1519                 1.4794
 Frc consts  --      0.8741                 1.1548                 0.6102
 IR Inten    --     76.4226                 9.5782                 0.2506

                     28                     29                     30
                      A                      A                      A
 Frequencies --    837.1891               867.1165               930.5468
 Red. masses --      1.6076                 2.2453                 1.3630
 Frc consts  --      0.6638                 0.9947                 0.6954
 IR Inten    --      3.0137                 8.7995                 1.4801

                     31                     32                     33
                      A                      A                      A
 Frequencies --    941.3026               954.8788               966.0789
 Red. masses --      1.2284                 1.9680                 1.9550
 Frc consts  --      0.6413                 1.0572                 1.0751
 IR Inten    --      5.1344                 9.9833                 6.9008

                     34                     35                     36
                      A                      A                      A
 Frequencies --    980.7669              1022.4350              1054.3660
 Red. masses --      1.5986                 2.0012                 2.3029
 Frc consts  --      0.9060                 1.2326                 1.5084
 IR Inten    --      1.5645                15.5253                 7.5229

                     37                     38                     39
                      A                      A                      A
 Frequencies --   1075.3323              1125.7552              1145.1001
 Red. masses --      1.8356                 2.5995                 2.5989
 Frc consts  --      1.2506                 1.9410                 2.0078
 IR Inten    --     13.0339                35.4427                51.2501

                     40                     41                     42
                      A                      A                      A
 Frequencies --   1154.0459              1172.1462              1187.6739
 Red. masses --      2.1070                 2.9585                 1.9910
 Frc consts  --      1.6533                 2.3949                 1.6547
 IR Inten    --      6.1428               108.7394                 0.2942

                     43                     44                     45
                      A                      A                      A
 Frequencies --   1200.3006              1210.2725              1214.1082
 Red. masses --      1.5397                 1.7526                 2.0018
 Frc consts  --      1.3070                 1.5125                 1.7385
 IR Inten    --      8.5848                 6.1667                 2.7767

                     46                     47                     48
                      A                      A                      A
 Frequencies --   1300.5458              1318.0411              1338.0739
 Red. masses --      1.2109                 1.1163                 1.4354
 Frc consts  --      1.2067                 1.1426                 1.5142
 IR Inten    --      4.6804                 0.9889                38.1314

                     49                     50                     51
                      A                      A                      A
 Frequencies --   1364.3852              1369.5550              1389.6329
 Red. masses --      2.0814                 1.7292                 1.3429
 Frc consts  --      2.2829                 1.9110                 1.5279
 IR Inten    --     39.9607                24.0815                 1.2835

                     52                     53                     54
                      A                      A                      A
 Frequencies --   1398.4488              1421.5899              1423.4187
 Red. masses --      1.2234                 1.2531                 1.2939
 Frc consts  --      1.4096                 1.4920                 1.5446
 IR Inten    --      2.5453                 0.2999                 5.1322

                     55                     56                     57
                      A                      A                      A
 Frequencies --   1431.3583              1434.8658              1446.0497
 Red. masses --      1.3067                 1.3196                 1.2558
 Frc consts  --      1.5774                 1.6007                 1.5472
 IR Inten    --      0.6525                 9.1557                10.9066

                     58                     59                     60
                      A                      A                      A
 Frequencies --   1453.8702              1510.6287              1512.8314
 Red. masses --      1.3625                 1.0731                 1.0451
 Frc consts  --      1.6968                 1.4428                 1.4092
 IR Inten    --     20.8162                 2.4019                 5.5985

                     61                     62                     63
                      A                      A                      A
 Frequencies --   1518.9518              1520.0969              1523.9417
 Red. masses --      1.0508                 1.0446                 1.0638
 Frc consts  --      1.4284                 1.4222                 1.4556
 IR Inten    --      5.5229                 1.7193                 0.4173

                     64                     65                     66
                      A                      A                      A
 Frequencies --   1530.9123              1533.3786              1536.8466
 Red. masses --      1.0507                 1.0497                 1.0566
 Frc consts  --      1.4508                 1.4541                 1.4703
 IR Inten    --      3.8810                 7.4605                 2.1787

                     67                     68                     69
                      A                      A                      A
 Frequencies --   1542.0352              1558.0613              1655.2728
 Red. masses --      1.0527                 1.0868                 1.2159
 Frc consts  --      1.4748                 1.5544                 1.9629
 IR Inten    --     10.4775                 3.6025                56.8415

                     70                     71                     72
                      A                      A                      A
 Frequencies --   1749.4798              2998.8781              2999.9416
 Red. masses --      6.9631                 1.0618                 1.0614
 Frc consts  --     12.5566                 5.6260                 5.6282
 IR Inten    --    267.9449                38.6967                52.8599

                     73                     74                     75
                      A                      A                      A
 Frequencies --   3031.2847              3035.1556              3040.9328
 Red. masses --      1.0829                 1.0364                 1.0425
 Frc consts  --      5.8625                 5.6254                 5.6801
 IR Inten    --      4.8606                36.5771                18.6786

                     76                     77                     78
                      A                      A                      A
 Frequencies --   3043.9787              3055.9168              3060.0295
 Red. masses --      1.0940                 1.0963                 1.0404
 Frc consts  --      5.9723                 6.0317                 5.7400
 IR Inten    --     34.4079                36.0856                22.5805

                     79                     80                     81
                      A                      A                      A
 Frequencies --   3061.4421              3077.1654              3097.1389
 Red. masses --      1.0353                 1.0843                 1.1011
 Frc consts  --      5.7169                 6.0490                 6.2230
 IR Inten    --     19.6780                12.6075                11.8772

                     82                     83                     84
                      A                      A                      A
 Frequencies --   3103.3676              3109.2214              3124.6906
 Red. masses --      1.1010                 1.1016                 1.1005
 Frc consts  --      6.2473                 6.2745                 6.3307
 IR Inten    --     73.8494                57.5710                29.3908

                     85                     86                     87
                      A                      A                      A
 Frequencies --   3125.3113              3132.2390              3139.7105
 Red. masses --      1.0988                 1.1024                 1.1034
 Frc consts  --      6.3237                 6.3721                 6.4083
 IR Inten    --     33.4543                29.1618                30.5001

                     88                     89                     90
                      A                      A                      A
 Frequencies --   3146.2913              3551.0948              3665.3346
 Red. masses --      1.1038                 1.0472                 1.0985
 Frc consts  --      6.4378                 7.7803                 8.6955
 IR Inten    --     16.5476                10.8226                10.7893

 - Thermochemistry -
 -------------------
 Temperature   298.150 Kelvin.  Pressure   1.00000 Atm.
 Atom     1 has atomic number  6 and mass  12.00000

 Molecular mass:   172.15756 amu.
 Principal axes and moments of inertia in atomic units:
                           1         2         3
     Eigenvalues --  1615.731132961.387103749.77500
           X            0.99997  -0.00606   0.00547
           Y            0.00590   0.99958   0.02854
           Z           -0.00564  -0.02851   0.99958
 This molecule is an asymmetric top.
 Rotational symmetry number  1.
 Warning -- assumption of classical behavior for rotation
           may cause significant error
 Rotational temperatures (Kelvin)      0.05361     0.02925     0.02310
 Rotational constants (GHZ):           1.11698     0.60942     0.48129
 Zero-point vibrational energy     764509.3 (Joules/Mol)
                                  182.72212 (Kcal/Mol)
 Warning -- explicit consideration of  23 degrees of freedom as
           vibrations may cause significant error
 Vibrational temperatures:     42.08    79.61   101.81   117.01   141.91
          (Kelvin)            170.96   284.41   316.12   329.72   365.08
                              377.30   390.76   406.61   411.18   484.32
                              489.91   541.36   576.49   610.68   627.60
                              725.76   772.38   825.03   936.32  1054.73
                             1134.57  1203.83  1204.53  1247.59  1338.85
                             1354.32  1373.86  1389.97  1411.10  1471.06
                             1517.00  1547.16  1619.71  1647.54  1660.41
                             1686.46  1708.80  1726.96  1741.31  1746.83
                             1871.20  1896.37  1925.19  1963.05  1970.48
                             1999.37  2012.06  2045.35  2047.98  2059.41
                             2064.45  2080.54  2091.79  2173.46  2176.63
                             2185.43  2187.08  2192.61  2202.64  2206.19
                             2211.18  2218.64  2241.70  2381.57  2517.11
                             4314.72  4316.25  4361.34  4366.91  4375.22
                             4379.61  4396.78  4402.70  4404.73  4427.35
                             4456.09  4465.05  4473.48  4495.73  4496.63
                             4506.59  4517.34  4526.81  5109.23  5273.60

 Zero-point correction=                           0.291186 (Hartree/Particle)
 Thermal correction to Energy=                    0.306290
 Thermal correction to Enthalpy=                  0.307235
 Thermal correction to Gibbs Free Energy=         0.249068
 Sum of electronic and zero-point Energies=           -539.474054
 Sum of electronic and thermal Energies=              -539.458950
 Sum of electronic and thermal Enthalpies=            -539.458006
 Sum of electronic and thermal Free Energies=         -539.516173

                     E (Thermal)             CV                S
                      KCal/Mol        Cal/Mol-Kelvin    Cal/Mol-Kelvin
 Total                  192.200             55.489            122.423
 Electronic               0.000              0.000              0.000
 Translational            0.889              2.981             41.337
 Rotational               0.889              2.981             31.262
 Vibrational            190.423             49.528             49.823
 Vibration     1          0.593              1.984              5.880
 Vibration     2          0.596              1.975              4.617
 Vibration     3          0.598              1.968              4.132
 Vibration     4          0.600              1.962              3.859
 Vibration     5          0.604              1.950              3.481
 Vibration     6          0.609              1.934              3.119
 Vibration     7          0.637              1.843              2.155
 Vibration     8          0.647              1.811              1.961
 Vibration     9          0.652              1.796              1.885
 Vibration    10          0.665              1.756              1.704
 Vibration    11          0.670              1.742              1.647
 Vibration    12          0.675              1.726              1.586
 Vibration    13          0.682              1.706              1.518
 Vibration    14          0.684              1.700              1.499
 Vibration    15          0.717              1.602              1.228
 Vibration    16          0.720              1.595              1.210
 Vibration    17          0.747              1.521              1.054
 Vibration    18          0.767              1.469              0.960
 Vibration    19          0.786              1.417              0.877
 Vibration    20          0.797              1.391              0.839
 Vibration    21          0.860              1.240              0.647
 Vibration    22          0.892              1.169              0.572
 Vibration    23          0.930              1.089              0.498

 Optimization completed.
    -- Stationary point found.
 Normal termination of Gaussian 16 at Wed Dec  9 18:09:47 2020.

 ----------------------------------------------------------------------
 # B3LYP/6-311++G(d,p) empiricaldispersion=gd3bj scf=xqc pop=npa geom=c
 heck
 ----------------------------------------------------------------------

 --------------------------------------
 CID_64532632_JID_2673_Energie_neutraal
 --------------------------------------
 Structure from the checkpoint file:  "JID_2673.chk"
 Charge =  0 Multiplicity = 1

 SCF Done:  E(RB3LYP) =  -539.927889562     A.U. after   14 cycles
 Normal termination of Gaussian 16 at Wed Dec  9 18:14:19 2020.

 ----------------------------------------------------------------------
 # B3LYP/6-311++G(d,p) empiricaldispersion=gd3bj scf=xqc pop=npa geom=c
 heck
 ----------------------------------------------------------------------

 ------------------------------------
 CID_64532632_JID_2673_Energie_kation
 ------------------------------------
 Structure from the checkpoint file:  "JID_2673.chk"
 Charge =  1 Multiplicity = 2

 SCF Done:  E(UB3LYP) =  -539.622334890     A.U. after   27 cycles
 Normal termination of Gaussian 16 at Wed Dec  9 18:25:55 2020.
 Gaussian 16:  ES64L-G16RevA.03 25-Dec-2016

 ----------------------------------------------------------------------
 # B3LYP/6-311++G(d,p) empiricaldispersion=gd3bj scf=xqc pop=npa geom=c
 heck
 ----------------------------------------------------------------------

 -----------------------------------
 CID_64532632_JID_2673_Energie_anion
 -----------------------------------
 Structure from the checkpoint file:  "JID_2673.chk"
 Charge = -1 Multiplicity = 2

                         Standard orientation:
 ---------------------------------------------------------------------
 Center     Atomic      Atomic             Coordinates (Angstroms)
 Number     Number       Type             X           Y           Z
 ---------------------------------------------------------------------
      1          6           0        0.966298    3.019181    0.253409
      2          6           0        1.389252    1.573743    0.445463
      3          8           0        1.164896    0.895630   -0.784975
      4          6           0        1.515580   -0.489133   -0.808557
      5          6           0        3.030543   -0.684944   -0.901048
      6          6           0        0.812672   -1.265453    0.322904
      7          7           0       -0.447962   -1.429390    0.444247
      8          6           0       -1.378868   -0.919638   -0.549514
      9          6           0       -2.656533   -0.401820    0.130712
     10          6           0       -2.341732    0.770567    1.064086
     11          6           0       -3.701073   -0.013164   -0.920091
     12          7           0        1.650605   -1.884183    1.243970
     13          1           0        1.116992    3.587705    1.177449
     14          1           0       -0.092148    3.072035   -0.019097
     15          1           0        1.550541    3.486964   -0.545305
     16          1           0        2.451789    1.524461    0.730505
     17          1           0        0.804031    1.104936    1.249146
     18          1           0        1.079908   -0.849559   -1.746118
     19          1           0        3.563216   -0.287595   -0.029780
     20          1           0        3.278971   -1.746038   -0.995062
     21          1           0        3.402407   -0.152922   -1.781395
     22          1           0       -0.964569   -0.113219   -1.169842
     23          1           0       -1.656347   -1.746773   -1.221482
     24          1           0       -3.054324   -1.226106    0.738727
     25          1           0       -1.935048    1.617838    0.496383
     26          1           0       -3.241138    1.117950    1.585979
     27          1           0       -1.600555    0.476200    1.813700
     28          1           0       -3.950007   -0.859840   -1.571217
     29          1           0       -4.628014    0.332000   -0.447917
     30          1           0       -3.330714    0.800506   -1.557332
     31          1           0        2.506463   -1.402904    1.484635
     32          1           0        1.144037   -2.241702    2.046125
 ---------------------------------------------------------------------

 SCF Done:  E(UB3LYP) =  -539.913464346     A.U. after   32 cycles

 The electronic state is 2-A.
 Alpha  occ. eigenvalues --  -19.02345 -14.21075 -14.17670 -10.13504 -10.13040
 Alpha  occ. eigenvalues --  -10.10901 -10.08351 -10.07218 -10.06653 -10.06018
 Alpha  occ. eigenvalues --  -10.05904 -10.05413  -0.93678  -0.84196  -0.76437
 Alpha  occ. eigenvalues --   -0.69690  -0.67855  -0.63188  -0.58809  -0.58345
 Alpha  occ. eigenvalues --   -0.54402  -0.51046  -0.47068  -0.44534  -0.42223
 Alpha  occ. eigenvalues --   -0.39542  -0.38778  -0.36793  -0.35622  -0.35220
 Alpha  occ. eigenvalues --   -0.33737  -0.32837  -0.31046  -0.29470  -0.29195
 Alpha  occ. eigenvalues --   -0.29067  -0.28255  -0.27867  -0.26920  -0.25628
 Alpha  occ. eigenvalues --   -0.24985  -0.23853  -0.22813  -0.22678  -0.21503
 Alpha  occ. eigenvalues --   -0.17179  -0.13598  -0.13009   0.04702
 Alpha virt. eigenvalues --    0.06438   0.07504   0.07767   0.08813   0.09056
 Alpha virt. eigenvalues --    0.09536   0.10181   0.10502   0.10887   0.11394
 Alpha virt. eigenvalues --    0.11560   0.12212   0.12829   0.13079   0.13679

  Beta  occ. eigenvalues --  -19.02335 -14.21024 -14.17657 -10.13499 -10.13033
  Beta  occ. eigenvalues --  -10.10867 -10.08348 -10.07215 -10.06641 -10.05997
  Beta  occ. eigenvalues --  -10.05852 -10.05397  -0.93655  -0.84160  -0.76388
  Beta  occ. eigenvalues --   -0.69670  -0.67819  -0.63136  -0.58781  -0.58311
  Beta  occ. eigenvalues --   -0.54328  -0.50976  -0.47023  -0.44476  -0.42173
  Beta  occ. eigenvalues --   -0.39503  -0.38738  -0.36762  -0.35594  -0.35178
  Beta  occ. eigenvalues --   -0.33716  -0.32800  -0.31012  -0.29412  -0.29157
  Beta  occ. eigenvalues --   -0.29047  -0.28219  -0.27843  -0.26878  -0.25592
  Beta  occ. eigenvalues --   -0.24949  -0.23836  -0.22792  -0.22649  -0.21455
  Beta  occ. eigenvalues --   -0.17146  -0.13541  -0.12975
  Beta virt. eigenvalues --    0.06486   0.07622   0.07912   0.08310   0.09189
  Beta virt. eigenvalues --    0.09556   0.09814   0.10362   0.10741   0.11278
  Beta virt. eigenvalues --    0.11685   0.12217   0.12406   0.13152   0.13253

 Mulliken charges and spin densities:
               1          2
     1  C    0.729249  -1.240140
     2  C   -0.088736  -0.022330
     3  O   -0.027352   0.025362
     4  C   -1.621957   1.601559
     5  C    1.943312  -2.535012
     6  C    0.661642  -0.888649
     7  N   -0.004683   0.026582
     8  C   -0.327661  -0.632911
     9  C   -0.146472   0.763491
    10  C   -0.186342  -0.437926
    11  C   -0.062983  -0.578016
    12  N   -0.367167   0.173540
    13  H   -0.214073   0.354601
    14  H    0.023918   0.112238
    15  H   -0.012154   0.160202
    16  H   -0.468175   0.620224
    17  H    0.003856   0.154103
    18  H    0.027352   0.153070
    19  H   -0.519490   0.691680
    20  H   -0.332502   0.496969
    21  H   -0.090836   0.247798
    22  H    0.136024   0.069550
    23  H    0.078448   0.065923
    24  H    0.112982   0.054521
    25  H    0.065698   0.042760
    26  H   -0.014356   0.160181
    27  H    0.002161   0.140699
    28  H    0.000344   0.120432
    29  H   -0.005229   0.139020
    30  H    0.068787   0.062917
    31  H   -0.340879   0.604775
    32  H   -0.022726   0.292789
 Sum of Mulliken charges =  -1.00000   1.00000

 Dipole moment (field-independent basis, Debye):
    X=             -6.6199    Y=              0.1968    Z=             -3.3582  Tot=              7.4256
 Quadrupole moment (field-independent basis, Debye-Ang):
   XX=           -148.8324   YY=           -118.2505   ZZ=           -113.0195
   XY=              2.2171   XZ=             -7.5286   YZ=             -0.1100

 Summary of Natural Population Analysis:

                                       Natural Population
                Natural  -----------------------------------------------
    Atom  No    Charge         Core      Valence    Rydberg      Total
 -----------------------------------------------------------------------
      C    1   -0.28890      0.99966     2.28332    0.00592     3.28890
      C    2   -0.01689      0.99958     2.00413    0.01317     3.01689
      O    3   -0.30416      0.99988     3.29422    0.01006     4.30416
      C    4    0.04052      0.99951     1.94593    0.01404     2.95948
      C    5   -0.30176      0.99965     2.29560    0.00651     3.30176
      C    6    0.21948      0.99955     1.76346    0.01751     2.78052
      N    7   -0.28059      0.99962     2.76920    0.01177     3.78059
      C    8   -0.09850      0.99957     2.08826    0.01067     3.09850
      C    9   -0.11438      0.99962     2.10588    0.00889     3.11438
      C   10   -0.28820      0.99965     2.28182    0.00673     3.28820
      C   11   -0.28362      0.99965     2.27938    0.00459     3.28362
      N   12   -0.39876      0.99971     2.88895    0.01011     3.89876
      H   13    0.10075      0.00000     0.39838    0.00087     0.39925
      H   14    0.09727      0.00000     0.40147    0.00127     0.40273
      H   15    0.09866      0.00000     0.40024    0.00110     0.40134
      H   16    0.08344      0.00000     0.41346    0.00310     0.41656
      H   17    0.08206      0.00000     0.41557    0.00237     0.41794
      H   18    0.09674      0.00000     0.40147    0.00179     0.40326
      H   19    0.10327      0.00000     0.39350    0.00323     0.39673
      H   20    0.10679      0.00000     0.39179    0.00142     0.39321
      H   21    0.10456      0.00000     0.39429    0.00116     0.39544
      H   22    0.09098      0.00000     0.40677    0.00225     0.40902
      H   23    0.08896      0.00000     0.40968    0.00135     0.41104
      H   24    0.09229      0.00000     0.40573    0.00197     0.40771
      H   25    0.09501      0.00000     0.40382    0.00117     0.40499
      H   26    0.09447      0.00000     0.40477    0.00076     0.40553
      H   27    0.10699      0.00000     0.39147    0.00154     0.39301
      H   28    0.09620      0.00000     0.40279    0.00102     0.40380
      H   29    0.09666      0.00000     0.40239    0.00094     0.40334
      H   30    0.09582      0.00000     0.40308    0.00110     0.40418
      H   31    0.19429      0.00000     0.29888    0.00683     0.30571
      H   32    0.19055      0.00000     0.30667    0.00278     0.30945
 =======================================================================
   * Total *   -0.00000     11.99565    35.84637    0.15798    48.00000

 Normal termination of Gaussian 16 at Wed Dec  9 18:39:14 2020.
