 Gaussian 16, Revision A.03,

 -----------------------------------------------------------
 # opt freq B3LYP/6-31G(d) empiricaldispersion=gd3bj scf=xqc
 -----------------------------------------------------------

 --------------------------------
 CID_102608664_JID_10906_neutraal
 --------------------------------
 Symbolic Z-matrix:
 Charge =  0 Multiplicity = 1

 SCF Done:  E(RB3LYP) =  -1350.62869106     A.U. after   15 cycles
 SCF Done:  E(RB3LYP) =  -1350.64716815     A.U. after   12 cycles
 SCF Done:  E(RB3LYP) =  -1350.64940816     A.U. after   12 cycles
 SCF Done:  E(RB3LYP) =  -1350.64959454     A.U. after   13 cycles
 SCF Done:  E(RB3LYP) =  -1350.65034047     A.U. after   12 cycles
 SCF Done:  E(RB3LYP) =  -1350.65070630     A.U. after   12 cycles
 SCF Done:  E(RB3LYP) =  -1350.65099731     A.U. after   12 cycles
 SCF Done:  E(RB3LYP) =  -1350.65125163     A.U. after   12 cycles
 SCF Done:  E(RB3LYP) =  -1350.65120859     A.U. after   13 cycles
 SCF Done:  E(RB3LYP) =  -1350.65203571     A.U. after   12 cycles
 SCF Done:  E(RB3LYP) =  -1350.65466815     A.U. after   14 cycles
 SCF Done:  E(RB3LYP) =  -1350.65562694     A.U. after   11 cycles
 SCF Done:  E(RB3LYP) =  -1350.65562852     A.U. after    8 cycles
 SCF Done:  E(RB3LYP) =  -1350.65562888     A.U. after    8 cycles
 SCF Done:  E(RB3LYP) =  -1350.65562895     A.U. after    7 cycles
 Optimization completed.
    -- Stationary point found.
 Normal termination of Gaussian 16 at Sun Dec 13 21:56:48 2020.

 --------------------------------------------------------------------
 #N Geom=AllCheck Guess=TCheck SCRF=Check GenChk RB3LYP/6-31G(d) Freq
 --------------------------------------------------------------------

 Structure from the checkpoint file:  "JID_10906.chk"
 --------------------------------
 CID_102608664_JID_10906_neutraal
 --------------------------------
 Charge =  0 Multiplicity = 1

 SCF Done:  E(RB3LYP) =  -1350.65562895     A.U. after    1 cycles

  Exact polarizability: 219.327   1.046 168.200  -3.231  -6.860 115.004
 Approx polarizability: 278.336  -6.499 268.103 -10.317 -21.167 185.014

                      1                      2                      3
                      A                      A                      A
 Frequencies --     20.0798                26.4767                50.2675
 Red. masses --      7.0464                 6.8550                 5.8665
 Frc consts  --      0.0017                 0.0028                 0.0087
 IR Inten    --      2.3192                 0.0964                 1.5457

                      4                      5                      6
                      A                      A                      A
 Frequencies --     69.2758                76.1322                82.1222
 Red. masses --      5.2776                 5.2288                 4.0224
 Frc consts  --      0.0149                 0.0179                 0.0160
 IR Inten    --      3.5407                 2.4310                 1.1454

                      7                      8                      9
                      A                      A                      A
 Frequencies --    100.4206               112.8690               128.4636
 Red. masses --      2.8057                 3.7352                 3.8708
 Frc consts  --      0.0167                 0.0280                 0.0376
 IR Inten    --      1.4835                 1.4691                 4.3629

                     10                     11                     12
                      A                      A                      A
 Frequencies --    131.1091               160.8693               175.2605
 Red. masses --      4.2132                 1.9286                 3.9371
 Frc consts  --      0.0427                 0.0294                 0.0713
 IR Inten    --      2.4121                34.1219                 5.2270

                     13                     14                     15
                      A                      A                      A
 Frequencies --    197.2319               224.2302               248.6411
 Red. masses --      2.3766                 2.7445                 5.2234
 Frc consts  --      0.0545                 0.0813                 0.1903
 IR Inten    --      4.0485                 5.8147                11.5033

                     16                     17                     18
                      A                      A                      A
 Frequencies --    251.4431               301.6616               344.0913
 Red. masses --      6.9852                 5.7918                 4.0564
 Frc consts  --      0.2602                 0.3105                 0.2830
 IR Inten    --      0.7812                 2.0073                 6.4435

                     19                     20                     21
                      A                      A                      A
 Frequencies --    362.7576               376.6898               388.4721
 Red. masses --      3.5318                 4.5708                 3.5185
 Frc consts  --      0.2738                 0.3821                 0.3128
 IR Inten    --      9.0540                 2.7536                 5.3337

                     22                     23                     24
                      A                      A                      A
 Frequencies --    421.4287               456.9142               475.2683
 Red. masses --      3.6859                 5.5975                 3.8822
 Frc consts  --      0.3857                 0.6885                 0.5167
 IR Inten    --     14.3828                 6.2004                 1.8206

                     25                     26                     27
                      A                      A                      A
 Frequencies --    499.7834               551.0125               585.7644
 Red. masses --      7.9504                 3.0112                 4.5983
 Frc consts  --      1.1700                 0.5387                 0.9296
 IR Inten    --     18.0567                62.4300                31.4387

                     28                     29                     30
                      A                      A                      A
 Frequencies --    605.3905               629.6877               645.2669
 Red. masses --      3.8045                 3.5707                 5.1084
 Frc consts  --      0.8215                 0.8342                 1.2532
 IR Inten    --     71.1075                 6.2854                 6.2965

                     31                     32                     33
                      A                      A                      A
 Frequencies --    699.2276               740.2251               746.2659
 Red. masses --      3.1980                 1.6875                 5.2234
 Frc consts  --      0.9212                 0.5448                 1.7139
 IR Inten    --    248.1728                 3.1202                18.4374

                     34                     35                     36
                      A                      A                      A
 Frequencies --    812.0649               815.7152               826.1468
 Red. masses --      1.8942                 1.8138                 1.4505
 Frc consts  --      0.7360                 0.7111                 0.5833
 IR Inten    --      2.3564                 0.2742                 8.1755

                     37                     38                     39
                      A                      A                      A
 Frequencies --    851.8116               862.0329               867.2202
 Red. masses --      3.7580                 1.5626                 1.7003
 Frc consts  --      1.6065                 0.6842                 0.7534
 IR Inten    --     19.2211                13.6737                 2.3152

                     40                     41                     42
                      A                      A                      A
 Frequencies --    875.1824               880.2778               890.8670
 Red. masses --      2.6023                 1.9725                 2.7136
 Frc consts  --      1.1743                 0.9006                 1.2689
 IR Inten    --      8.6290               154.3075                 8.4327

                     43                     44                     45
                      A                      A                      A
 Frequencies --    932.8863               940.4883               961.1540
 Red. masses --      2.0471                 2.5809                 3.6318
 Frc consts  --      1.0497                 1.3450                 1.9768
 IR Inten    --      4.0071                 1.8029                15.4556

                     46                     47                     48
                      A                      A                      A
 Frequencies --    980.2077               989.5066              1024.1985
 Red. masses --      1.3328                 6.4389                 3.5078
 Frc consts  --      0.7545                 3.7145                 2.1680
 IR Inten    --      6.5547                17.0232                31.3542

                     49                     50                     51
                      A                      A                      A
 Frequencies --   1028.0583              1067.8659              1072.8154
 Red. masses --      6.4788                 1.9044                 2.1076
 Frc consts  --      4.0344                 1.2795                 1.4292
 IR Inten    --     60.5150                11.4236                11.7608

                     52                     53                     54
                      A                      A                      A
 Frequencies --   1083.3497              1104.7217              1115.1912
 Red. masses --      2.7833                 2.2571                 1.7577
 Frc consts  --      1.9246                 1.6230                 1.2879
 IR Inten    --     11.5814                50.0433                23.7799

                     55                     56                     57
                      A                      A                      A
 Frequencies --   1134.7447              1148.2568              1149.9183
 Red. masses --      3.1634                 2.0523                 2.6324
 Frc consts  --      2.3999                 1.5943                 2.0509
 IR Inten    --     48.8732                30.4782               370.8072

                     58                     59                     60
                      A                      A                      A
 Frequencies --   1157.2377              1160.7987              1198.9963
 Red. masses --      2.1490                 1.0725                 1.3272
 Frc consts  --      1.6956                 0.8514                 1.1241
 IR Inten    --     60.1638                 0.4627                10.8357

                     61                     62                     63
                      A                      A                      A
 Frequencies --   1211.9122              1218.7809              1249.9940
 Red. masses --      1.3531                 1.4017                 2.9113
 Frc consts  --      1.1709                 1.2268                 2.6801
 IR Inten    --     75.0490                20.1159               282.0958

                     64                     65                     66
                      A                      A                      A
 Frequencies --   1261.8508              1268.2206              1274.9454
 Red. masses --      1.4154                 1.7775                 1.2878
 Frc consts  --      1.3279                 1.6844                 1.2334
 IR Inten    --     26.8474                44.7735                18.2971

                     67                     68                     69
                      A                      A                      A
 Frequencies --   1281.8575              1298.1844              1309.8396
 Red. masses --      1.3142                 1.4551                 1.4939
 Frc consts  --      1.2723                 1.4448                 1.5101
 IR Inten    --      2.1878                 1.0526                 7.7304

                     70                     71                     72
                      A                      A                      A
 Frequencies --   1315.6622              1339.2369              1362.8204
 Red. masses --      1.3252                10.3469                 1.7545
 Frc consts  --      1.3515                10.9339                 1.9199
 IR Inten    --      2.8072               163.0855                22.6028

                     73                     74                     75
                      A                      A                      A
 Frequencies --   1373.6561              1396.7225              1415.3647
 Red. masses --      2.0874                 2.7763                 1.9505
 Frc consts  --      2.3207                 3.1911                 2.3021
 IR Inten    --     28.2827               111.4993                25.7826

                     76                     77                     78
                      A                      A                      A
 Frequencies --   1426.3131              1443.0314              1511.3121
 Red. masses --      2.3750                 4.9940                 1.0956
 Frc consts  --      2.8467                 6.1270                 1.4744
 IR Inten    --      7.1018                38.2286                 1.1981

                     79                     80                     81
                      A                      A                      A
 Frequencies --   1520.6473              1524.8030              1526.1540
 Red. masses --      1.0868                 1.0854                 4.2636
 Frc consts  --      1.4807                 1.4869                 5.8509
 IR Inten    --      2.4524                 0.0947                56.7788

                     82                     83                     84
                      A                      A                      A
 Frequencies --   1546.7206              1549.7151              1583.1170
 Red. masses --      1.1431                 1.1213                 5.8219
 Frc consts  --      1.6112                 1.5866                 8.5970
 IR Inten    --      0.6174                 3.2998               142.3465

                     85                     86                     87
                      A                      A                      A
 Frequencies --   1622.4457              1793.5649              3046.8837
 Red. masses --      1.1049                12.8630                 1.0579
 Frc consts  --      1.7137                24.3796                 5.7863
 IR Inten    --     44.7645               305.6813                69.4451

                     88                     89                     90
                      A                      A                      A
 Frequencies --   3062.6790              3083.3164              3087.2097
 Red. masses --      1.0619                 1.0619                 1.0589
 Frc consts  --      5.8684                 5.9480                 5.9463
 IR Inten    --     30.2705                20.9225                23.3770

                     91                     92                     93
                      A                      A                      A
 Frequencies --   3088.0177              3107.1522              3123.7492
 Red. masses --      1.0633                 1.1082                 1.0910
 Frc consts  --      5.9740                 6.3039                 6.2722
 IR Inten    --     18.5774                34.7048                 2.4102

                     94                     95                     96
                      A                      A                      A
 Frequencies --   3124.8874              3137.5462              3146.8834
 Red. masses --      1.1074                 1.1036                 1.0897
 Frc consts  --      6.3715                 6.4006                 6.3577
 IR Inten    --     28.4066                16.2649                31.1988

                     97                     98                     99
                      A                      A                      A
 Frequencies --   3148.4192              3163.3863              3297.6440
 Red. masses --      1.1060                 1.1048                 1.0970
 Frc consts  --      6.4591                 6.5141                 7.0285
 IR Inten    --     35.2246                16.1877                 3.6223

                    100                    101                    102
                      A                      A                      A
 Frequencies --   3319.5375              3486.4320              3597.3896
 Red. masses --      1.0967                 1.0469                 1.0975
 Frc consts  --      7.1199                 7.4973                 8.3678
 IR Inten    --      5.9445                31.9983                28.9251

 - Thermochemistry -
 -------------------
 Temperature   298.150 Kelvin.  Pressure   1.00000 Atm.
 Atom     1 has atomic number  6 and mass  12.00000

 Molecular mass:   300.07799 amu.
 Principal axes and moments of inertia in atomic units:
                           1         2         3
     Eigenvalues --  3015.40383********************
           X            0.99997   0.00627   0.00387
           Y           -0.00628   0.99998   0.00294
           Z           -0.00385  -0.00296   0.99999
 This molecule is an asymmetric top.
 Rotational symmetry number  1.
 Warning -- assumption of classical behavior for rotation
           may cause significant error
 Rotational temperatures (Kelvin)      0.02872     0.00806     0.00672
 Rotational constants (GHZ):           0.59851     0.16803     0.13996
 Zero-point vibrational energy     750444.5 (Joules/Mol)
                                  179.36054 (Kcal/Mol)
 Warning -- explicit consideration of  28 degrees of freedom as
           vibrations may cause significant error
 Vibrational temperatures:     28.89    38.09    72.32    99.67   109.54
          (Kelvin)            118.16   144.48   162.39   184.83   188.64
                              231.45   252.16   283.77   322.62   357.74
                              361.77   434.02   495.07   521.93   541.97
                              558.92   606.34   657.40   683.81   719.08
                              792.78   842.78   871.02   905.98   928.40
                             1006.03  1065.02  1073.71  1168.38  1173.63
                             1188.64  1225.57  1240.27  1247.74  1259.19
                             1266.52  1281.76  1342.22  1353.15  1382.89
                             1410.30  1423.68  1473.59  1479.15  1536.42
                             1543.54  1558.70  1589.45  1604.51  1632.64
                             1652.09  1654.48  1665.01  1670.13  1725.09
                             1743.67  1753.55  1798.46  1815.52  1824.69
                             1834.36  1844.31  1867.80  1884.57  1892.94
                             1926.86  1960.79  1976.38  2009.57  2036.39
                             2052.15  2076.20  2174.44  2187.87  2193.85
                             2195.80  2225.39  2229.69  2277.75  2334.34
                             2580.54  4383.79  4406.51  4436.20  4441.81
                             4442.97  4470.50  4494.38  4496.02  4514.23
                             4527.66  4529.87  4551.41  4744.57  4776.07
                             5016.20  5175.84

 Zero-point correction=                           0.285829 (Hartree/Particle)
 Thermal correction to Energy=                    0.304946
 Thermal correction to Enthalpy=                  0.305890
 Thermal correction to Gibbs Free Energy=         0.235960
 Sum of electronic and zero-point Energies=          -1350.369800
 Sum of electronic and thermal Energies=             -1350.350683
 Sum of electronic and thermal Enthalpies=           -1350.349738
 Sum of electronic and thermal Free Energies=        -1350.419669

                     E (Thermal)             CV                S
                      KCal/Mol        Cal/Mol-Kelvin    Cal/Mol-Kelvin
 Total                  191.357             70.799            147.181
 Electronic               0.000              0.000              0.000
 Translational            0.889              2.981             42.994
 Rotational               0.889              2.981             34.390
 Vibrational            189.579             64.838             69.798
 Vibration     1          0.593              1.986              6.626
 Vibration     2          0.593              1.985              6.077
 Vibration     3          0.595              1.977              4.807
 Vibration     4          0.598              1.969              4.174
 Vibration     5          0.599              1.965              3.988
 Vibration     6          0.600              1.961              3.840
 Vibration     7          0.604              1.949              3.446
 Vibration     8          0.607              1.939              3.219
 Vibration     9          0.611              1.925              2.969
 Vibration    10          0.612              1.922              2.930
 Vibration    11          0.622              1.890              2.540
 Vibration    12          0.627              1.873              2.378
 Vibration    13          0.637              1.844              2.159
 Vibration    14          0.649              1.804              1.925
 Vibration    15          0.662              1.765              1.740
 Vibration    16          0.663              1.760              1.720
 Vibration    17          0.694              1.671              1.408
 Vibration    18          0.723              1.587              1.193
 Vibration    19          0.737              1.549              1.110
 Vibration    20          0.747              1.520              1.052
 Vibration    21          0.757              1.495              1.006
 Vibration    22          0.784              1.424              0.887
 Vibration    23          0.815              1.346              0.775
 Vibration    24          0.832              1.305              0.723
 Vibration    25          0.855              1.250              0.659
 Vibration    26          0.906              1.137              0.542
 Vibration    27          0.943              1.062              0.475
 Vibration    28          0.964              1.020              0.440

                           ! Non-Optimized Parameters !
 Normal termination of Gaussian 16 at Sun Dec 13 22:14:12 2020.

 ----------------------------------------------------------------------
 # B3LYP/6-311++G(d,p) empiricaldispersion=gd3bj scf=xqc pop=npa geom=c
 heck
 ----------------------------------------------------------------------

 ----------------------------------------
 CID_102608664_JID_10906_Energie_neutraal
 ----------------------------------------
 Structure from the checkpoint file:  "JID_10906.chk"
 Charge =  0 Multiplicity = 1

 SCF Done:  E(RB3LYP) =  -1350.95538447     A.U. after   15 cycles
 Normal termination of Gaussian 16 at Sun Dec 13 22:22:04 2020.

 ----------------------------------------------------------------------
 # B3LYP/6-311++G(d,p) empiricaldispersion=gd3bj scf=xqc pop=npa geom=c
 heck
 ----------------------------------------------------------------------

 --------------------------------------
 CID_102608664_JID_10906_Energie_kation
 --------------------------------------
 Structure from the checkpoint file:  "JID_10906.chk"
 Charge =  1 Multiplicity = 2

 SCF Done:  E(UB3LYP) =  -1350.63642242     A.U. after   28 cycles
 Normal termination of Gaussian 16 at Sun Dec 13 22:42:45 2020.
 Gaussian 16:  ES64L-G16RevA.03 25-Dec-2016

 ----------------------------------------------------------------------
 # B3LYP/6-311++G(d,p) empiricaldispersion=gd3bj scf=xqc pop=npa geom=c
 heck
 ----------------------------------------------------------------------

 -------------------------------------
 CID_102608664_JID_10906_Energie_anion
 -------------------------------------
 Structure from the checkpoint file:  "JID_10906.chk"
 Charge = -1 Multiplicity = 2

                         Standard orientation:
 ---------------------------------------------------------------------
 Center     Atomic      Atomic             Coordinates (Angstroms)
 Number     Number       Type             X           Y           Z
 ---------------------------------------------------------------------
      1          6           0        1.849699    3.397287    0.381839
      2          6           0        1.836212    1.899061    0.782981
      3          6           0        0.889086    1.658482   -0.419312
      4          6           0        0.523620    3.159624   -0.389170
      5          7           0       -0.188484    0.673531   -0.292603
      6          6           0       -1.509480    0.984371   -0.228029
      7          6           0       -2.228293   -0.185541   -0.021937
      8          6           0       -1.312147   -1.254241    0.059787
      9          6           0       -0.051126   -0.709948   -0.122812
     10          6           0        1.188952   -1.481704   -0.146810
     11          8           0        1.280642   -2.638454    0.214847
     12          8           0        2.245740   -0.774892   -0.633621
     13          6           0        3.516060   -1.425581   -0.517698
     14          6           0        4.628125   -0.414691   -0.810921
     15          8           0        4.930495   -0.280381    0.597358
     16          6           0        4.072775   -1.407784    0.912837
     17         16           0       -3.968445   -0.224270    0.183998
     18          8           0       -4.315892   -0.927825    1.419934
     19          8           0       -4.448020    1.139440   -0.076176
     20          7           0       -4.453141   -1.269041   -1.063053
     21          1           0        2.679797    3.629704   -0.291916
     22          1           0        1.830299    4.136173    1.185874
     23          1           0        2.782130    1.355403    0.801482
     24          1           0        1.302449    1.742000    1.725919
     25          1           0        1.465372    1.418935   -1.313901
     26          1           0       -0.330410    3.357465    0.264306
     27          1           0        0.366842    3.661396   -1.347816
     28          1           0       -1.877264    1.991833   -0.328445
     29          1           0       -1.525205   -2.300977    0.214321
     30          1           0        3.501724   -2.376483   -1.050722
     31          1           0        5.474143   -0.828537   -1.374521
     32          1           0        4.303238    0.528126   -1.263088
     33          1           0        3.353043   -1.177788    1.703417
     34          1           0        4.650170   -2.300932    1.180536
     35          1           0       -5.252984   -1.804993   -0.729752
     36          1           0       -4.701450   -0.733548   -1.893342
 ---------------------------------------------------------------------

 SCF Done:  E(UB3LYP) =  -1350.95873211     A.U. after   33 cycles
 SCF Done:  E(UB3LYP) =  -1350.95873211     a.u. after    1 cycles

 The electronic state is 2-A.
 Alpha  occ. eigenvalues --  -88.96718 -19.04144 -19.02910 -19.01712 -19.01709
 Alpha  occ. eigenvalues --  -18.96211 -14.25329 -14.25157 -10.15101 -10.13485
 Alpha  occ. eigenvalues --  -10.12739 -10.12423 -10.11645 -10.09418 -10.08328
 Alpha  occ. eigenvalues --  -10.08149 -10.08030 -10.07888 -10.07181 -10.04782
 Alpha  occ. eigenvalues --   -8.02835  -5.99157  -5.99080  -5.98901  -1.02064
 Alpha  occ. eigenvalues --   -0.98549  -0.94993  -0.91050  -0.88395  -0.88216
 Alpha  occ. eigenvalues --   -0.81880  -0.76341  -0.69300  -0.66512  -0.63275
 Alpha  occ. eigenvalues --   -0.60474  -0.59532  -0.57215  -0.55131  -0.52633
 Alpha  occ. eigenvalues --   -0.48248  -0.46852  -0.46199  -0.44786  -0.44607
 Alpha  occ. eigenvalues --   -0.43671  -0.41559  -0.40699  -0.39653  -0.38520
 Alpha  occ. eigenvalues --   -0.38258  -0.36376  -0.35249  -0.34705  -0.34222
 Alpha  occ. eigenvalues --   -0.33432  -0.32047  -0.31430  -0.30870  -0.30226
 Alpha  occ. eigenvalues --   -0.29443  -0.28645  -0.26657  -0.26340  -0.25870
 Alpha  occ. eigenvalues --   -0.24657  -0.23905  -0.23573  -0.23128  -0.22629
 Alpha  occ. eigenvalues --   -0.22493  -0.22055  -0.20937  -0.20161  -0.18505
 Alpha  occ. eigenvalues --   -0.17051  -0.15074  -0.14420  -0.12094   0.04137
 Alpha virt. eigenvalues --    0.06230   0.06269   0.06869   0.08026   0.08693
 Alpha virt. eigenvalues --    0.09239   0.09899   0.10182   0.10409   0.10825
 Alpha virt. eigenvalues --    0.11886   0.11985   0.12500   0.12921   0.13229

  Beta  occ. eigenvalues --  -88.96717 -19.04056 -19.02907 -19.01713 -19.01707
  Beta  occ. eigenvalues --  -18.95893 -14.25154 -14.25108 -10.14796 -10.13486
  Beta  occ. eigenvalues --  -10.12717 -10.12407 -10.11653 -10.09285 -10.08319
  Beta  occ. eigenvalues --  -10.08139 -10.07994 -10.07965 -10.07166 -10.04556
  Beta  occ. eigenvalues --   -8.02834  -5.99156  -5.99079  -5.98898  -1.02066
  Beta  occ. eigenvalues --   -0.98290  -0.94917  -0.91051  -0.87990  -0.87817
  Beta  occ. eigenvalues --   -0.81872  -0.76298  -0.69129  -0.66269  -0.63080
  Beta  occ. eigenvalues --   -0.60434  -0.59453  -0.57165  -0.54931  -0.52261
  Beta  occ. eigenvalues --   -0.48189  -0.46684  -0.45987  -0.44680  -0.44524
  Beta  occ. eigenvalues --   -0.43652  -0.41484  -0.40666  -0.39577  -0.38434
  Beta  occ. eigenvalues --   -0.38141  -0.36159  -0.35232  -0.34516  -0.33754
  Beta  occ. eigenvalues --   -0.33262  -0.31750  -0.31152  -0.30552  -0.30109
  Beta  occ. eigenvalues --   -0.29102  -0.28494  -0.26558  -0.26254  -0.25550
  Beta  occ. eigenvalues --   -0.24596  -0.23519  -0.23481  -0.23083  -0.22507
  Beta  occ. eigenvalues --   -0.22460  -0.21996  -0.20921  -0.20113  -0.17634
  Beta  occ. eigenvalues --   -0.17011  -0.14778  -0.13705  -0.10940
  Beta virt. eigenvalues --    0.06173   0.06552   0.07201   0.08145   0.08820
  Beta virt. eigenvalues --    0.09078   0.09807   0.10005   0.10221   0.10394
  Beta virt. eigenvalues --    0.11166   0.11959   0.12038   0.12457   0.12900

 Mulliken charges and spin densities:
               1          2
     1  C   -0.050064  -0.445397
     2  C   -0.133087   0.017511
     3  C   -0.570780   0.207869
     4  C   -0.002856  -0.249287
     5  N    0.403334   0.049093
     6  C    0.307971   0.163374
     7  C   -1.479211  -0.137335
     8  C    0.530297   0.282341
     9  C   -0.153473   0.190406
    10  C   -0.997166   0.044229
    11  O   -0.311013   0.108669
    12  O    0.025452  -0.002727
    13  C   -0.353860   0.551771
    14  C    0.617168  -1.014952
    15  O   -0.185623   0.006399
    16  C   -0.081847  -0.192278
    17  S    0.744845  -0.114940
    18  O   -0.199435   0.006960
    19  O   -0.213298  -0.005120
    20  N   -0.318260  -0.011444
    21  H   -0.053898   0.198672
    22  H    0.109241   0.035467
    23  H    0.401427  -0.227919
    24  H    0.132732   0.031885
    25  H    0.047635   0.237742
    26  H    0.158375  -0.059561
    27  H   -0.068161   0.226635
    28  H    0.112611   0.072772
    29  H    0.210687  -0.012531
    30  H    0.130566   0.118389
    31  H   -0.350325   0.490322
    32  H   -0.034893   0.194807
    33  H    0.185918   0.024670
    34  H   -0.030629   0.158694
    35  H    0.263071   0.011799
    36  H    0.206551   0.043012
 Sum of Mulliken charges =  -1.00000   1.00000

 Dipole moment (field-independent basis, Debye):
    X=             -2.1123    Y=              1.8112    Z=             -1.3619  Tot=              3.0979
 Quadrupole moment (field-independent basis, Debye-Ang):
   XX=           -200.8918   YY=           -157.9210   ZZ=           -143.0915
   XY=              7.8243   XZ=             15.1722   YZ=              7.2551

 Summary of Natural Population Analysis:

                                       Natural Population
                Natural  -----------------------------------------------
    Atom  No    Charge         Core      Valence    Rydberg      Total
 -----------------------------------------------------------------------
      C    1   -0.19108      0.99965     2.18361    0.00782     3.19108
      C    2   -0.18832      0.99962     2.18025    0.00845     3.18832
      C    3   -0.00434      0.99957     1.99167    0.01310     3.00434
      C    4   -0.19163      0.99963     2.18376    0.00824     3.19163
      N    5   -0.16118      0.99961     2.65219    0.00938     3.66118
      C    6    0.03424      0.99951     1.95355    0.01271     2.96576
      C    7   -0.21815      0.99935     2.20387    0.01492     3.21815
      C    8   -0.05773      0.99948     2.04915    0.00910     3.05773
      C    9    0.02699      0.99947     1.96204    0.01151     2.97301
      C   10    0.42132      0.99961     1.55587    0.02321     2.57868
      O   11   -0.28884      0.99988     3.28426    0.00470     4.28884
      O   12   -0.28857      0.99986     3.27914    0.00957     4.28857
      C   13    0.03751      0.99953     1.94822    0.01474     2.96249
      C   14   -0.01075      0.99962     1.99882    0.01230     3.01075
      O   15   -0.30706      0.99991     3.29879    0.00835     4.30706
      C   16   -0.01363      0.99962     2.00159    0.01242     3.01363
      S   17    1.09914      4.99922     1.79803    0.10360     6.90086
      O   18   -0.46564      0.99991     3.46045    0.00529     4.46564
      O   19   -0.47142      0.99991     3.46517    0.00634     4.47142
      N   20   -0.51365      0.99979     3.00311    0.01075     4.01365
      H   21    0.09749      0.00000     0.40124    0.00128     0.40251
      H   22    0.09436      0.00000     0.40491    0.00073     0.40564
      H   23    0.10774      0.00000     0.39032    0.00193     0.39226
      H   24    0.09739      0.00000     0.40162    0.00099     0.40261
      H   25    0.10889      0.00000     0.38924    0.00187     0.39111
      H   26    0.09834      0.00000     0.40045    0.00121     0.40166
      H   27    0.09876      0.00000     0.40029    0.00095     0.40124
      H   28    0.10691      0.00000     0.39188    0.00121     0.39309
      H   29    0.11294      0.00000     0.38615    0.00091     0.38706
      H   30    0.09809      0.00000     0.40066    0.00125     0.40191
      H   31    0.08306      0.00000     0.41525    0.00169     0.41694
      H   32    0.09131      0.00000     0.40706    0.00163     0.40869
      H   33    0.09356      0.00000     0.40535    0.00109     0.40644
      H   34    0.08440      0.00000     0.41441    0.00119     0.41560
      H   35    0.18993      0.00000     0.30789    0.00218     0.31007
      H   36    0.18963      0.00000     0.30806    0.00231     0.31037
 =======================================================================
   * Total *    0.00000     23.99274    54.67832    0.32894    79.00000

 Normal termination of Gaussian 16 at Sun Dec 13 23:08:08 2020.
