 Gaussian 16, Revision A.03,

 -----------------------------------------------------------
 # opt freq B3LYP/6-31G(d) empiricaldispersion=gd3bj scf=xqc
 -----------------------------------------------------------

 ------------------------------
 CID_68138362_JID_8307_neutraal
 ------------------------------
 Symbolic Z-matrix:
 Charge =  0 Multiplicity = 1

 SCF Done:  E(RB3LYP) =  -897.219792514     A.U. after   15 cycles
 SCF Done:  E(RB3LYP) =  -897.225185516     A.U. after   12 cycles
 SCF Done:  E(RB3LYP) =  -897.225925085     A.U. after   13 cycles
 SCF Done:  E(RB3LYP) =  -897.227039319     A.U. after   12 cycles
 SCF Done:  E(RB3LYP) =  -897.227593364     A.U. after   12 cycles
 SCF Done:  E(RB3LYP) =  -897.228138002     A.U. after   12 cycles
 SCF Done:  E(RB3LYP) =  -897.228694661     A.U. after   12 cycles
 SCF Done:  E(RB3LYP) =  -897.229329172     A.U. after   12 cycles
 SCF Done:  E(RB3LYP) =  -897.229253777     A.U. after   12 cycles
 SCF Done:  E(RB3LYP) =  -897.229629533     A.U. after   12 cycles
 SCF Done:  E(RB3LYP) =  -897.230652442     A.U. after   11 cycles
 SCF Done:  E(RB3LYP) =  -897.230652789     A.U. after    8 cycles
 SCF Done:  E(RB3LYP) =  -897.230653485     A.U. after    9 cycles
 SCF Done:  E(RB3LYP) =  -897.230653641     A.U. after    7 cycles
 SCF Done:  E(RB3LYP) =  -897.230653689     A.U. after    7 cycles
 Optimization completed.
    -- Stationary point found.
 Normal termination of Gaussian 16 at Fri Dec 11 20:14:30 2020.

 --------------------------------------------------------------------
 #N Geom=AllCheck Guess=TCheck SCRF=Check GenChk RB3LYP/6-31G(d) Freq
 --------------------------------------------------------------------

 Structure from the checkpoint file:  "JID_8307.chk"
 ------------------------------
 CID_68138362_JID_8307_neutraal
 ------------------------------
 Charge =  0 Multiplicity = 1

 SCF Done:  E(RB3LYP) =  -897.230653689     A.U. after    1 cycles

  Exact polarizability: 178.639  -9.600 141.273   1.440   9.271 102.684
 Approx polarizability: 249.752 -15.017 226.017   1.714  18.765 153.476

                      1                      2                      3
                      A                      A                      A
 Frequencies --     40.5202                52.8669                72.4314
 Red. masses --      4.8015                 7.3734                 4.2449
 Frc consts  --      0.0046                 0.0121                 0.0131
 IR Inten    --      0.4064                 0.6237                 0.0698

                      4                      5                      6
                      A                      A                      A
 Frequencies --     83.9088                96.2206               106.5623
 Red. masses --      3.5158                 5.3005                 1.3163
 Frc consts  --      0.0146                 0.0289                 0.0088
 IR Inten    --      1.2976                 0.2115                 0.0131

                      7                      8                      9
                      A                      A                      A
 Frequencies --    137.9041               183.3027               197.4176
 Red. masses --      3.9862                 3.8918                 4.0997
 Frc consts  --      0.0447                 0.0770                 0.0941
 IR Inten    --      0.6878                 0.1291                 7.7412

                     10                     11                     12
                      A                      A                      A
 Frequencies --    211.4449               242.7358               251.0463
 Red. masses --      4.2918                 3.7280                 3.6128
 Frc consts  --      0.1131                 0.1294                 0.1342
 IR Inten    --      3.7162                 0.4283                 0.1452

                     13                     14                     15
                      A                      A                      A
 Frequencies --    294.8287               307.7024               324.2914
 Red. masses --      3.4437                 2.2078                 2.4163
 Frc consts  --      0.1764                 0.1232                 0.1497
 IR Inten    --      4.2178                11.8527                24.3223

                     16                     17                     18
                      A                      A                      A
 Frequencies --    347.1681               362.9891               414.9574
 Red. masses --      2.3586                 3.7805                 6.8130
 Frc consts  --      0.1675                 0.2935                 0.6912
 IR Inten    --     63.3142                14.9835                 9.9522

                     19                     20                     21
                      A                      A                      A
 Frequencies --    447.8618               457.7274               468.3442
 Red. masses --      3.1343                 1.9088                 5.3387
 Frc consts  --      0.3704                 0.2356                 0.6899
 IR Inten    --     50.2232                 4.0464                 1.3093

                     22                     23                     24
                      A                      A                      A
 Frequencies --    490.6059               519.7566               530.8203
 Red. masses --      2.2351                 2.0940                 5.4393
 Frc consts  --      0.3170                 0.3333                 0.9030
 IR Inten    --     29.5034                39.0105                 1.5605

                     25                     26                     27
                      A                      A                      A
 Frequencies --    563.7430               595.6214               651.9776
 Red. masses --      4.0470                 3.6656                 6.0067
 Frc consts  --      0.7578                 0.7662                 1.5044
 IR Inten    --     10.7773                35.9074                 9.1624

                     28                     29                     30
                      A                      A                      A
 Frequencies --    656.2969               680.1690               749.5819
 Red. masses --      7.8494                 5.4599                 4.4640
 Frc consts  --      1.9920                 1.4882                 1.4778
 IR Inten    --      3.6345                 7.2572                 3.3193

                     31                     32                     33
                      A                      A                      A
 Frequencies --    755.8131               773.1306               787.4083
 Red. masses --      9.5969                 1.7764                 2.2500
 Frc consts  --      3.2301                 0.6256                 0.8219
 IR Inten    --     47.5870                43.3331                 4.5169

                     34                     35                     36
                      A                      A                      A
 Frequencies --    877.6864               892.0651               920.6483
 Red. masses --      3.4777                 1.4483                 1.3545
 Frc consts  --      1.5784                 0.6791                 0.6764
 IR Inten    --      6.0692                 4.6269                 5.3555

                     37                     38                     39
                      A                      A                      A
 Frequencies --    935.2989               951.8087               979.9562
 Red. masses --      3.0126                 1.3855                 3.3520
 Frc consts  --      1.5527                 0.7395                 1.8966
 IR Inten    --     11.5788                 2.3289                 9.7559

                     40                     41                     42
                      A                      A                      A
 Frequencies --    988.2098               992.2469              1007.5007
 Red. masses --      1.2851                 4.8420                 3.9868
 Frc consts  --      0.7394                 2.8088                 2.3843
 IR Inten    --      0.8523                22.9368                40.6527

                     43                     44                     45
                      A                      A                      A
 Frequencies --   1075.2649              1076.2903              1083.5517
 Red. masses --      9.7195                 2.2895                 2.3988
 Frc consts  --      6.6210                 1.5626                 1.6594
 IR Inten    --     58.0866                 6.5082               110.0939

                     46                     47                     48
                      A                      A                      A
 Frequencies --   1110.4627              1134.3840              1148.0310
 Red. masses --      3.0434                 4.3968                 2.7564
 Frc consts  --      2.2111                 3.3335                 2.1404
 IR Inten    --     19.3158               227.1167                 3.5149

                     49                     50                     51
                      A                      A                      A
 Frequencies --   1151.1168              1167.4242              1171.4855
 Red. masses --      2.0512                 1.6850                 1.5194
 Frc consts  --      1.6014                 1.3530                 1.2285
 IR Inten    --     76.3498                99.5241                47.6758

                     52                     53                     54
                      A                      A                      A
 Frequencies --   1183.9681              1195.9610              1237.3705
 Red. masses --      2.6730                 1.1078                 2.1859
 Frc consts  --      2.2077                 0.9336                 1.9718
 IR Inten    --    112.0049                 0.8125                17.9048

                     55                     56                     57
                      A                      A                      A
 Frequencies --   1253.3784              1259.7368              1285.3393
 Red. masses --      1.2433                 1.1906                 1.9544
 Frc consts  --      1.1508                 1.1132                 1.9024
 IR Inten    --      3.6317                 7.4875               112.8009

                     58                     59                     60
                      A                      A                      A
 Frequencies --   1296.0139              1323.8848              1342.4982
 Red. masses --      1.5158                 1.3037                 3.2730
 Frc consts  --      1.5000                 1.3462                 3.4755
 IR Inten    --     11.8982                26.5764                17.5843

                     61                     62                     63
                      A                      A                      A
 Frequencies --   1347.1999              1366.2300              1394.2572
 Red. masses --      5.5632                 1.2354                 1.2719
 Frc consts  --      5.9490                 1.3587                 1.4568
 IR Inten    --      9.3686                 3.5944                 6.0929

                     64                     65                     66
                      A                      A                      A
 Frequencies --   1410.7746              1419.9334              1436.9282
 Red. masses --      1.2691                 1.3115                 1.5638
 Frc consts  --      1.4881                 1.5579                 1.9023
 IR Inten    --    105.0689                 5.1883                23.6146

                     67                     68                     69
                      A                      A                      A
 Frequencies --   1452.6920              1455.1970              1482.2924
 Red. masses --      1.4096                 1.4040                 2.1866
 Frc consts  --      1.7526                 1.7517                 2.8306
 IR Inten    --     27.8608                23.0217               135.9185

                     70                     71                     72
                      A                      A                      A
 Frequencies --   1507.9275              1515.7814              1521.9748
 Red. masses --      2.2101                 1.0927                 1.1192
 Frc consts  --      2.9610                 1.4792                 1.5274
 IR Inten    --     21.6172                 5.2570                18.5033

                     73                     74                     75
                      A                      A                      A
 Frequencies --   1530.5306              1545.1957              1553.5318
 Red. masses --      1.1186                 2.2688                 1.2498
 Frc consts  --      1.5438                 3.1917                 1.7771
 IR Inten    --      4.5358                25.0938                36.2656

                     76                     77                     78
                      A                      A                      A
 Frequencies --   1639.2991              1669.7059              1814.6287
 Red. masses --      6.0867                 6.1352                 8.3591
 Frc consts  --      9.6372                10.0777                16.2176
 IR Inten    --      3.4024                26.5627               480.9593

                     79                     80                     81
                      A                      A                      A
 Frequencies --   2942.0612              2947.4300              2960.7484
 Red. masses --      1.0815                 1.0721                 1.0732
 Frc consts  --      5.5156                 5.4877                 5.5430
 IR Inten    --     28.6101                14.7295               177.0625

                     82                     83                     84
                      A                      A                      A
 Frequencies --   3059.6623              3117.5355              3133.9107
 Red. masses --      1.0421                 1.0865                 1.0914
 Frc consts  --      5.7477                 6.2214                 6.3155
 IR Inten    --     49.2591                 5.1802                27.2542

                     85                     86                     87
                      A                      A                      A
 Frequencies --   3136.4640              3138.8018              3184.5894
 Red. masses --      1.0952                 1.0937                 1.0868
 Frc consts  --      6.3477                 6.3487                 6.4938
 IR Inten    --     13.5090                16.2482                 4.5606

                     88                     89                     90
                      A                      A                      A
 Frequencies --   3187.9393              3194.7772              3207.3655
 Red. masses --      1.1024                 1.0887                 1.0928
 Frc consts  --      6.6010                 6.5469                 6.6234
 IR Inten    --      1.2876                 7.9301                23.1269

                     91                     92                     93
                      A                      A                      A
 Frequencies --   3216.7957              3713.3626              3747.7629
 Red. masses --      1.0974                 1.0657                 1.0645
 Frc consts  --      6.6908                 8.6583                 8.8093
 IR Inten    --     17.7842                 7.7324                72.0370

 - Thermochemistry -
 -------------------
 Temperature   298.150 Kelvin.  Pressure   1.00000 Atm.
 Atom     1 has atomic number  6 and mass  12.00000

 Molecular mass:   253.09502 amu.
 Principal axes and moments of inertia in atomic units:
                           1         2         3
     Eigenvalues --  2588.995565204.977616283.52982
           X            0.99995   0.00927   0.00330
           Y           -0.00936   0.99947   0.03112
           Z           -0.00301  -0.03115   0.99951
 This molecule is an asymmetric top.
 Rotational symmetry number  1.
 Warning -- assumption of classical behavior for rotation
           may cause significant error
 Rotational temperatures (Kelvin)      0.03345     0.01664     0.01378
 Rotational constants (GHZ):           0.69708     0.34673     0.28722
 Zero-point vibrational energy     704911.7 (Joules/Mol)
                                  168.47793 (Kcal/Mol)
 Warning -- explicit consideration of  26 degrees of freedom as
           vibrations may cause significant error
 Vibrational temperatures:     58.30    76.06   104.21   120.73   138.44
          (Kelvin)            153.32   198.41   263.73   284.04   304.22
                              349.24   361.20   424.19   442.72   466.58
                              499.50   522.26   597.03   644.37   658.57
                              673.84   705.87   747.81   763.73   811.10
                              856.97   938.05   944.26   978.61  1078.48
                             1087.45  1112.36  1132.90  1262.79  1283.48
                             1324.61  1345.69  1369.44  1409.94  1421.81
                             1427.62  1449.57  1547.07  1548.54  1558.99
                             1597.71  1632.13  1651.76  1656.20  1679.66
                             1685.51  1703.47  1720.72  1780.30  1803.33
                             1812.48  1849.32  1864.67  1904.77  1931.56
                             1938.32  1965.70  2006.03  2029.79  2042.97
                             2067.42  2090.10  2093.70  2132.69  2169.57
                             2180.87  2189.78  2202.09  2223.19  2235.19
                             2358.59  2402.33  2610.85  4232.97  4240.69
                             4259.86  4402.17  4485.44  4509.00  4512.67
                             4516.04  4581.91  4586.73  4596.57  4614.68
                             4628.25  5342.70  5392.19

 Zero-point correction=                           0.268487 (Hartree/Particle)
 Thermal correction to Energy=                    0.284925
 Thermal correction to Enthalpy=                  0.285870
 Thermal correction to Gibbs Free Energy=         0.224406
 Sum of electronic and zero-point Energies=           -896.962167
 Sum of electronic and thermal Energies=              -896.945728
 Sum of electronic and thermal Enthalpies=            -896.944784
 Sum of electronic and thermal Free Energies=         -897.006248

                     E (Thermal)             CV                S
                      KCal/Mol        Cal/Mol-Kelvin    Cal/Mol-Kelvin
 Total                  178.793             62.873            129.361
 Electronic               0.000              0.000              0.000
 Translational            0.889              2.981             42.486
 Rotational               0.889              2.981             32.804
 Vibrational            177.016             56.912             54.071
 Vibration     1          0.594              1.981              5.233
 Vibration     2          0.596              1.976              4.707
 Vibration     3          0.599              1.967              4.086
 Vibration     4          0.601              1.960              3.797
 Vibration     5          0.603              1.952              3.529
 Vibration     6          0.605              1.944              3.331
 Vibration     7          0.614              1.915              2.833
 Vibration     8          0.631              1.863              2.295
 Vibration     9          0.637              1.843              2.157
 Vibration    10          0.643              1.823              2.031
 Vibration    11          0.659              1.775              1.783
 Vibration    12          0.663              1.761              1.723
 Vibration    13          0.689              1.683              1.446
 Vibration    14          0.698              1.659              1.375
 Vibration    15          0.709              1.627              1.288
 Vibration    16          0.725              1.581              1.179
 Vibration    17          0.737              1.548              1.109
 Vibration    18          0.778              1.438              0.909
 Vibration    19          0.807              1.366              0.802
 Vibration    20          0.816              1.344              0.773
 Vibration    21          0.826              1.320              0.742
 Vibration    22          0.846              1.271              0.682
 Vibration    23          0.875              1.206              0.611
 Vibration    24          0.886              1.182              0.585
 Vibration    25          0.920              1.110              0.516
 Vibration    26          0.953              1.041              0.457

 Optimization completed.
    -- Stationary point found.
 Normal termination of Gaussian 16 at Fri Dec 11 20:28:38 2020.

 ----------------------------------------------------------------------
 # B3LYP/6-311++G(d,p) empiricaldispersion=gd3bj scf=xqc pop=npa geom=c
 heck
 ----------------------------------------------------------------------

 --------------------------------------
 CID_68138362_JID_8307_Energie_neutraal
 --------------------------------------
 Structure from the checkpoint file:  "JID_8307.chk"
 Charge =  0 Multiplicity = 1

 SCF Done:  E(RB3LYP) =  -897.501090192     A.U. after   15 cycles
 Normal termination of Gaussian 16 at Fri Dec 11 20:34:08 2020.

 ----------------------------------------------------------------------
 # B3LYP/6-311++G(d,p) empiricaldispersion=gd3bj scf=xqc pop=npa geom=c
 heck
 ----------------------------------------------------------------------

 ------------------------------------
 CID_68138362_JID_8307_Energie_kation
 ------------------------------------
 Structure from the checkpoint file:  "JID_8307.chk"
 Charge =  1 Multiplicity = 2

 SCF Done:  E(UB3LYP) =  -897.186946078     A.U. after   31 cycles
 Normal termination of Gaussian 16 at Fri Dec 11 20:49:18 2020.
 Gaussian 16:  ES64L-G16RevA.03 25-Dec-2016

 ----------------------------------------------------------------------
 # B3LYP/6-311++G(d,p) empiricaldispersion=gd3bj scf=xqc pop=npa geom=c
 heck
 ----------------------------------------------------------------------

 -----------------------------------
 CID_68138362_JID_8307_Energie_anion
 -----------------------------------
 Structure from the checkpoint file:  "JID_8307.chk"
 Charge = -1 Multiplicity = 2

                         Standard orientation:
 ---------------------------------------------------------------------
 Center     Atomic      Atomic             Coordinates (Angstroms)
 Number     Number       Type             X           Y           Z
 ---------------------------------------------------------------------
      1          6           0        0.454308    1.591696    1.958603
      2          7           0        0.784142    1.361536    0.555184
      3          6           0        1.661321    0.276918    0.236862
      4          6           0        3.038646    0.481007    0.303691
      5          6           0        3.926970   -0.562068    0.041461
      6          6           0        3.434660   -1.821844   -0.292281
      7          6           0        2.056594   -2.029889   -0.357091
      8          6           0        1.157864   -0.997033   -0.090517
      9          6           0       -0.323595   -1.276959   -0.156572
     10          8           0       -0.892838   -0.463933   -1.160342
     11          6           0       -2.306527   -0.599163   -1.251754
     12          6           0       -2.958239   -0.296269    0.097071
     13          6           0       -2.296369   -1.189681    1.147425
     14          8           0       -0.881469   -1.032355    1.121137
     15          8           0       -4.365780   -0.474771    0.063211
     16          6           0        0.115869    2.056788   -0.412595
     17          8           0       -0.850846    2.780645   -0.227832
     18          8           0        0.689447    1.892922   -1.633380
     19          1           0        1.360997    1.851976    2.516507
     20          1           0        0.003043    0.696833    2.392579
     21          1           0       -0.253140    2.419438    2.002806
     22          1           0        3.402299    1.473000    0.553111
     23          1           0        4.997624   -0.387000    0.092524
     24          1           0        4.116911   -2.640379   -0.501470
     25          1           0        1.670168   -3.012404   -0.615120
     26          1           0       -0.507219   -2.336143   -0.417748
     27          1           0       -2.570013   -1.626955   -1.565990
     28          1           0       -2.642077    0.096801   -2.023360
     29          1           0       -2.781122    0.753797    0.344861
     30          1           0       -2.625934   -0.934840    2.157018
     31          1           0       -2.563384   -2.244966    0.948912
     32          1           0       -4.541479   -1.401713   -0.168538
     33          1           0        0.087202    2.340708   -2.250550
 ---------------------------------------------------------------------

 SCF Done:  E(UB3LYP) =  -897.491062540     A.U. after   33 cycles
 SCF Done:  E(UB3LYP) =  -897.491062540     a.u. after    1 cycles

 The electronic state is 2-A.
 Alpha  occ. eigenvalues --  -19.06954 -19.04250 -19.04110 -19.03379 -19.00346
 Alpha  occ. eigenvalues --  -14.25335 -10.22754 -10.18459 -10.12707 -10.12596
 Alpha  occ. eigenvalues --  -10.12433 -10.12172 -10.10488 -10.09191 -10.08667
 Alpha  occ. eigenvalues --  -10.08598 -10.08440 -10.08177  -1.01671  -0.99302
 Alpha  occ. eigenvalues --   -0.93569  -0.92389  -0.91930  -0.85909  -0.76551
 Alpha  occ. eigenvalues --   -0.70384  -0.66076  -0.65640  -0.62448  -0.59381
 Alpha  occ. eigenvalues --   -0.58234  -0.54238  -0.51680  -0.50756  -0.48973
 Alpha  occ. eigenvalues --   -0.46044  -0.43223  -0.42325  -0.42027  -0.39887
 Alpha  occ. eigenvalues --   -0.39381  -0.38240  -0.37908  -0.36439  -0.35885
 Alpha  occ. eigenvalues --   -0.35198  -0.34510  -0.33275  -0.32852  -0.32216
 Alpha  occ. eigenvalues --   -0.31479  -0.30946  -0.30365  -0.28770  -0.27848
 Alpha  occ. eigenvalues --   -0.26774  -0.26500  -0.24288  -0.23452  -0.22429
 Alpha  occ. eigenvalues --   -0.21753  -0.19836  -0.18522  -0.17073  -0.16594
 Alpha  occ. eigenvalues --   -0.16134  -0.15669   0.04224
 Alpha virt. eigenvalues --    0.05707   0.06383   0.07086   0.07276   0.07696
 Alpha virt. eigenvalues --    0.07927   0.08690   0.09442   0.09958   0.11028
 Alpha virt. eigenvalues --    0.11240   0.11729   0.12104   0.13054   0.13647

  Beta  occ. eigenvalues --  -19.06951 -19.04233 -19.04101 -19.03333 -19.00344
  Beta  occ. eigenvalues --  -14.25339 -10.22749 -10.18449 -10.12706 -10.12567
  Beta  occ. eigenvalues --  -10.12404 -10.12101 -10.10477 -10.09148 -10.08678
  Beta  occ. eigenvalues --  -10.08601 -10.08392 -10.08115  -1.01663  -0.99274
  Beta  occ. eigenvalues --   -0.93476  -0.92359  -0.91924  -0.85870  -0.76472
  Beta  occ. eigenvalues --   -0.70317  -0.66008  -0.65537  -0.62423  -0.59323
  Beta  occ. eigenvalues --   -0.58167  -0.54165  -0.51628  -0.50683  -0.48930
  Beta  occ. eigenvalues --   -0.45998  -0.43157  -0.42262  -0.41988  -0.39840
  Beta  occ. eigenvalues --   -0.39332  -0.38202  -0.37863  -0.36388  -0.35842
  Beta  occ. eigenvalues --   -0.35163  -0.34474  -0.33240  -0.32822  -0.32207
  Beta  occ. eigenvalues --   -0.31450  -0.30891  -0.30339  -0.28719  -0.27655
  Beta  occ. eigenvalues --   -0.26722  -0.26445  -0.24250  -0.23410  -0.22409
  Beta  occ. eigenvalues --   -0.21702  -0.19785  -0.18464  -0.16943  -0.16464
  Beta  occ. eigenvalues --   -0.16049  -0.15503
  Beta virt. eigenvalues --    0.06344   0.06919   0.07261   0.07399   0.07494
  Beta virt. eigenvalues --    0.07783   0.08484   0.09206   0.09827   0.10285
  Beta virt. eigenvalues --    0.11242   0.11438   0.12061   0.12387   0.13084

 Mulliken charges and spin densities:
               1          2
     1  C    0.006459  -0.223970
     2  N    0.348511  -0.048593
     3  C   -0.923508   0.190523
     4  C   -0.557663   0.745352
     5  C    0.800646  -0.819381
     6  C    0.451519  -0.865823
     7  C   -0.377454   0.007558
     8  C   -0.063997  -0.018918
     9  C   -0.155657  -0.136882
    10  O    0.064981  -0.004849
    11  C    0.968329  -1.021442
    12  C   -0.830816   0.367795
    13  C    1.031678  -1.134504
    14  O    0.015719   0.017095
    15  O   -0.206063   0.009926
    16  C    0.179727  -0.191165
    17  O   -0.325155   0.010598
    18  O   -0.113293   0.009961
    19  H    0.074749   0.057336
    20  H    0.183082   0.003914
    21  H    0.162766   0.009210
    22  H   -0.015406   0.165025
    23  H   -0.389530   0.556674
    24  H   -0.398750   0.553814
    25  H   -0.350523   0.527969
    26  H   -0.076494   0.197994
    27  H   -0.528282   0.727747
    28  H    0.080253   0.096755
    29  H    0.186681   0.038359
    30  H    0.037753   0.141873
    31  H   -0.425750   0.613728
    32  H   -0.093909   0.357770
    33  H    0.239397   0.058548
 Sum of Mulliken charges =  -1.00000   1.00000

 Dipole moment (field-independent basis, Debye):
    X=              2.4923    Y=              5.7087    Z=              1.3578  Tot=              6.3753
 Quadrupole moment (field-independent basis, Debye-Ang):
   XX=           -193.9958   YY=           -157.4289   ZZ=           -126.5978
   XY=             -2.7602   XZ=              0.9953   YZ=             -3.6754

 Summary of Natural Population Analysis:

                                       Natural Population
                Natural  -----------------------------------------------
    Atom  No    Charge         Core      Valence    Rydberg      Total
 -----------------------------------------------------------------------
      C    1   -0.17400      0.99963     2.16843    0.00594     3.17400
      N    2   -0.26801      0.99960     2.75676    0.01165     3.76801
      C    3    0.09917      0.99941     1.88879    0.01263     2.90083
      C    4   -0.10013      0.99951     2.09110    0.00952     3.10013
      C    5   -0.09186      0.99957     2.08233    0.00997     3.09186
      C    6   -0.09010      0.99956     2.08065    0.00989     3.09010
      C    7   -0.09025      0.99952     2.08115    0.00958     3.09025
      C    8   -0.02315      0.99942     2.01187    0.01186     3.02315
      C    9    0.21525      0.99953     1.76452    0.02070     2.78475
      O   10   -0.29795      0.99988     3.28829    0.00979     4.29795
      C   11   -0.02102      0.99956     2.00680    0.01466     3.02102
      C   12    0.03189      0.99956     1.95499    0.01356     2.96811
      C   13   -0.02140      0.99956     2.00760    0.01424     3.02140
      O   14   -0.30145      0.99988     3.29262    0.00896     4.30145
      O   15   -0.36559      0.99990     3.35913    0.00657     4.36559
      C   16    0.46809      0.99968     1.50606    0.02617     2.53191
      O   17   -0.34340      0.99987     3.33839    0.00515     4.34340
      O   18   -0.34136      0.99987     3.33565    0.00584     4.34136
      H   19    0.08935      0.00000     0.40973    0.00092     0.41065
      H   20    0.10574      0.00000     0.39320    0.00107     0.39426
      H   21    0.10987      0.00000     0.38915    0.00098     0.39013
      H   22    0.10280      0.00000     0.39623    0.00096     0.39720
      H   23    0.10129      0.00000     0.39754    0.00117     0.39871
      H   24    0.10223      0.00000     0.39644    0.00133     0.39777
      H   25    0.10408      0.00000     0.39469    0.00124     0.39592
      H   26    0.07574      0.00000     0.42193    0.00233     0.42426
      H   27    0.08261      0.00000     0.41445    0.00294     0.41739
      H   28    0.09494      0.00000     0.40386    0.00120     0.40506
      H   29    0.09686      0.00000     0.40072    0.00242     0.40314
      H   30    0.09477      0.00000     0.40415    0.00107     0.40523
      H   31    0.08259      0.00000     0.41493    0.00248     0.41741
      H   32    0.23248      0.00000     0.26028    0.00723     0.26752
      H   33    0.23991      0.00000     0.25719    0.00290     0.26009
 =======================================================================
   * Total *   -0.00000     17.99350    48.76960    0.23690    67.00000

 Normal termination of Gaussian 16 at Fri Dec 11 21:05:50 2020.
