 Gaussian 16, Revision A.03,

 -----------------------------------------------------------
 # opt freq B3LYP/6-31G(d) empiricaldispersion=gd3bj scf=xqc
 -----------------------------------------------------------

 ------------------------------
 CID_88187488_JID_8216_neutraal
 ------------------------------
 Symbolic Z-matrix:
 Charge =  0 Multiplicity = 1

 SCF Done:  E(RB3LYP) =  -742.404033582     A.U. after   17 cycles
 SCF Done:  E(RB3LYP) =  -742.410564921     A.U. after   14 cycles
 SCF Done:  E(RB3LYP) =  -742.411611540     A.U. after   13 cycles
 SCF Done:  E(RB3LYP) =  -742.412113190     A.U. after   13 cycles
 SCF Done:  E(RB3LYP) =  -742.412531759     A.U. after   14 cycles
 SCF Done:  E(RB3LYP) =  -742.412775576     A.U. after   12 cycles
 SCF Done:  E(RB3LYP) =  -742.412830065     A.U. after   12 cycles
 SCF Done:  E(RB3LYP) =  -742.412844927     A.U. after   11 cycles
 SCF Done:  E(RB3LYP) =  -742.412862193     A.U. after   12 cycles
 SCF Done:  E(RB3LYP) =  -742.412881475     A.U. after   11 cycles
 SCF Done:  E(RB3LYP) =  -742.412884447     A.U. after   10 cycles
 SCF Done:  E(RB3LYP) =  -742.412885801     A.U. after   10 cycles
 SCF Done:  E(RB3LYP) =  -742.412885883     A.U. after    8 cycles
 SCF Done:  E(RB3LYP) =  -742.412885898     A.U. after    7 cycles
 Optimization completed.
    -- Stationary point found.
 Normal termination of Gaussian 16 at Fri Dec 11 19:36:03 2020.

 --------------------------------------------------------------------
 #N Geom=AllCheck Guess=TCheck SCRF=Check GenChk RB3LYP/6-31G(d) Freq
 --------------------------------------------------------------------

 Structure from the checkpoint file:  "JID_8216.chk"
 ------------------------------
 CID_88187488_JID_8216_neutraal
 ------------------------------
 Charge =  0 Multiplicity = 1

 SCF Done:  E(RB3LYP) =  -742.412885898     A.U. after    1 cycles

  Exact polarizability: 225.285  13.463 192.488   0.002   0.000  90.153
 Approx polarizability: 325.934  43.626 407.054   0.004   0.001 134.868

                      1                      2                      3
                      A                      A                      A
 Frequencies --     34.3226                56.4840                63.6918
 Red. masses --      4.6091                 3.9097                 4.3185
 Frc consts  --      0.0032                 0.0073                 0.0103
 IR Inten    --      0.0090                 0.1962                 0.4605

                      4                      5                      6
                      A                      A                      A
 Frequencies --    122.6758               123.5374               145.3722
 Red. masses --      3.6227                 6.0462                 4.9997
 Frc consts  --      0.0321                 0.0544                 0.0623
 IR Inten    --      1.6106                 1.7131                 4.3049

                      7                      8                      9
                      A                      A                      A
 Frequencies --    217.7545               283.5197               291.5886
 Red. masses --      3.5233                 7.9505                 5.4886
 Frc consts  --      0.0984                 0.3765                 0.2749
 IR Inten    --      1.1459                10.4398                 0.1371

                     10                     11                     12
                      A                      A                      A
 Frequencies --    321.5620               364.8373               399.7629
 Red. masses --      4.2322                 6.4562                 3.9343
 Frc consts  --      0.2578                 0.5063                 0.3704
 IR Inten    --      0.0400                 0.0315                 1.9081

                     13                     14                     15
                      A                      A                      A
 Frequencies --    424.6548               437.6557               471.9933
 Red. masses --      4.0813                 3.4802                 5.2846
 Frc consts  --      0.4336                 0.3927                 0.6936
 IR Inten    --      0.9852                 2.3433                 0.1616

                     16                     17                     18
                      A                      A                      A
 Frequencies --    559.6139               567.1717               568.0405
 Red. masses --      4.1679                 4.0981                 5.8612
 Frc consts  --      0.7690                 0.7767                 1.1143
 IR Inten    --      2.6018                 0.3447                 0.0177

                     19                     20                     21
                      A                      A                      A
 Frequencies --    582.1805               609.3057               624.1189
 Red. masses --      6.4195                 4.6247                 5.0854
 Frc consts  --      1.2819                 1.0116                 1.1671
 IR Inten    --      0.0025                 2.6504                 1.4149

                     22                     23                     24
                      A                      A                      A
 Frequencies --    646.1126               691.2448               735.0285
 Red. masses --      2.3708                 4.5505                 1.5057
 Frc consts  --      0.5831                 1.2811                 0.4793
 IR Inten    --     48.1517                20.2271                 5.2254

                     25                     26                     27
                      A                      A                      A
 Frequencies --    737.4403               748.7281               775.6811
 Red. masses --      8.6222                 2.4379                 1.7805
 Frc consts  --      2.7626                 0.8052                 0.6312
 IR Inten    --     13.6497                 3.3370                32.5908

                     28                     29                     30
                      A                      A                      A
 Frequencies --    805.9886               807.8790               828.3644
 Red. masses --      4.6447                 6.6525                 6.8992
 Frc consts  --      1.7777                 2.5581                 2.7893
 IR Inten    --      7.5415                24.0953                 0.6822

                     31                     32                     33
                      A                      A                      A
 Frequencies --    839.6066               881.5128               899.6480
 Red. masses --      4.5363                 4.3079                 1.3490
 Frc consts  --      1.8841                 1.9723                 0.6433
 IR Inten    --     32.3381                 0.9389                 0.1876

                     34                     35                     36
                      A                      A                      A
 Frequencies --    908.2571               951.9611               960.1881
 Red. masses --      2.5471                 1.3985                 2.6224
 Frc consts  --      1.2380                 0.7467                 1.4245
 IR Inten    --      3.5058                 2.4747                11.1490

                     37                     38                     39
                      A                      A                      A
 Frequencies --    967.0289               972.2082               987.4358
 Red. masses --      4.1659                 2.1581                 1.2847
 Frc consts  --      2.2953                 1.2018                 0.7380
 IR Inten    --      2.6860                 0.0468                 0.0053

                     40                     41                     42
                      A                      A                      A
 Frequencies --    995.6571              1004.0891              1017.8343
 Red. masses --      1.2928                 1.8414                 2.0998
 Frc consts  --      0.7551                 1.0938                 1.2817
 IR Inten    --      0.0279                 0.9621                10.3308

                     43                     44                     45
                      A                      A                      A
 Frequencies --   1041.7133              1082.2471              1096.2650
 Red. masses --      2.2347                 1.6587                 2.8361
 Frc consts  --      1.4288                 1.1446                 2.0082
 IR Inten    --      0.7779                 0.0002                 0.5031

                     46                     47                     48
                      A                      A                      A
 Frequencies --   1135.2187              1163.7839              1193.8633
 Red. masses --      3.9160                 2.4288                 1.0220
 Frc consts  --      2.9734                 1.9382                 0.8582
 IR Inten    --      0.5263                 0.3555                 0.0330

                     49                     50                     51
                      A                      A                      A
 Frequencies --   1195.6944              1231.5943              1236.5389
 Red. masses --      1.1766                 1.0838                 1.1004
 Frc consts  --      0.9911                 0.9686                 0.9913
 IR Inten    --      1.6002                 0.5252                 0.0201

                     52                     53                     54
                      A                      A                      A
 Frequencies --   1236.6533              1293.6724              1319.6784
 Red. masses --      4.2574                 1.4615                 1.7219
 Frc consts  --      3.8361                 1.4411                 1.7668
 IR Inten    --      4.0797                 2.7830                 4.1580

                     55                     56                     57
                      A                      A                      A
 Frequencies --   1359.5531              1381.6622              1381.8935
 Red. masses --      1.4710                 1.4522                 4.3987
 Frc consts  --      1.6020                 1.6334                 4.9491
 IR Inten    --      0.1110                 0.1266                17.3219

                     58                     59                     60
                      A                      A                      A
 Frequencies --   1408.7877              1409.4646              1441.7180
 Red. masses --      2.0833                 5.0284                 1.4937
 Frc consts  --      2.4360                 5.8856                 1.8292
 IR Inten    --      0.0328                 7.4160                 1.6045

                     61                     62                     63
                      A                      A                      A
 Frequencies --   1476.1447              1489.9401              1509.8879
 Red. masses --      2.6392                 1.0921                 2.4214
 Frc consts  --      3.3883                 1.4284                 3.2524
 IR Inten    --     32.7095                 7.4710                 6.4040

                     64                     65                     66
                      A                      A                      A
 Frequencies --   1590.5269              1642.1604              1651.6818
 Red. masses --     10.2652                 9.1683                 5.9424
 Frc consts  --     15.3003                14.5671                 9.5514
 IR Inten    --     25.4390                12.7281                 1.5702

                     67                     68                     69
                      A                      A                      A
 Frequencies --   1690.6629              1704.4569              1717.3981
 Red. masses --     10.1591                10.7679                 6.5109
 Frc consts  --     17.1089                18.4312                11.3145
 IR Inten    --     31.5133                 2.4616                 2.0571

                     70                     71                     72
                      A                      A                      A
 Frequencies --   1762.0468              3008.5347              3036.5817
 Red. masses --      6.5711                 1.0649                 1.0947
 Frc consts  --     12.0205                 5.6790                 5.9475
 IR Inten    --      2.5558                18.2918                33.6520

                     73                     74                     75
                      A                      A                      A
 Frequencies --   3055.9780              3167.3245              3167.6808
 Red. masses --      1.0835                 1.0844                 1.0855
 Frc consts  --      5.9617                 6.4096                 6.4173
 IR Inten    --     15.0864                 4.6059                11.1979

                     76                     77                     78
                      A                      A                      A
 Frequencies --   3190.1882              3192.3290              3197.0366
 Red. masses --      1.0963                 1.0980                 1.0864
 Frc consts  --      6.5739                 6.5926                 6.5423
 IR Inten    --     53.7964                 9.8223                 1.1907

                     79                     80                     81
                      A                      A                      A
 Frequencies --   3209.5930              3219.7689              3225.4227
 Red. masses --      1.0908                 1.0940                 1.0958
 Frc consts  --      6.6205                 6.6824                 6.7166
 IR Inten    --     10.7569                14.5737                12.3679

 - Thermochemistry -
 -------------------
 Temperature   298.150 Kelvin.  Pressure   1.00000 Atm.
 Atom     1 has atomic number  6 and mass  12.00000

 Molecular mass:   233.09530 amu.
 Principal axes and moments of inertia in atomic units:
                           1         2         3
     Eigenvalues --  2042.344166013.687857380.28151
           X            0.99999  -0.00478   0.00000
           Y            0.00478   0.99999   0.00000
           Z           -0.00000  -0.00000   1.00000
 This molecule is an asymmetric top.
 Rotational symmetry number  1.
 Warning -- assumption of classical behavior for rotation
           may cause significant error
 Rotational temperatures (Kelvin)      0.04241     0.01440     0.01174
 Rotational constants (GHZ):           0.88366     0.30011     0.24454
 Zero-point vibrational energy     591835.0 (Joules/Mol)
                                  141.45196 (Kcal/Mol)
 Warning -- explicit consideration of  20 degrees of freedom as
           vibrations may cause significant error
 Vibrational temperatures:     49.38    81.27    91.64   176.50   177.74
          (Kelvin)            209.16   313.30   407.92   419.53   462.66
                              524.92   575.17   610.98   629.69   679.09
                              805.16   816.03   817.28   837.63   876.66
                              897.97   929.61   994.55  1057.54  1061.01
                             1077.25  1116.03  1159.64  1162.36  1191.83
                             1208.01  1268.30  1294.39  1306.78  1369.66
                             1381.50  1391.34  1398.79  1420.70  1432.53
                             1444.66  1464.44  1498.79  1557.11  1577.28
                             1633.33  1674.43  1717.70  1720.34  1771.99
                             1779.10  1779.27  1861.31  1898.72  1956.09
                             1987.90  1988.24  2026.93  2027.91  2074.31
                             2123.84  2143.69  2172.39  2288.41  2362.70
                             2376.40  2432.49  2452.33  2470.95  2535.19
                             4328.61  4368.96  4396.87  4557.07  4557.59
                             4589.97  4593.05  4599.82  4617.89  4632.53
                             4640.66

 Zero-point correction=                           0.225418 (Hartree/Particle)
 Thermal correction to Energy=                    0.238758
 Thermal correction to Enthalpy=                  0.239703
 Thermal correction to Gibbs Free Energy=         0.184348
 Sum of electronic and zero-point Energies=           -742.187468
 Sum of electronic and thermal Energies=              -742.174127
 Sum of electronic and thermal Enthalpies=            -742.173183
 Sum of electronic and thermal Free Energies=         -742.228538

                     E (Thermal)             CV                S
                      KCal/Mol        Cal/Mol-Kelvin    Cal/Mol-Kelvin
 Total                  149.823             53.726            116.504
 Electronic               0.000              0.000              0.000
 Translational            0.889              2.981             42.241
 Rotational               0.889              2.981             32.872
 Vibrational            148.046             47.764             41.391
 Vibration     1          0.594              1.983              5.562
 Vibration     2          0.596              1.975              4.576
 Vibration     3          0.597              1.972              4.339
 Vibration     4          0.610              1.930              3.058
 Vibration     5          0.610              1.929              3.044
 Vibration     6          0.617              1.908              2.732
 Vibration     7          0.646              1.814              1.978
 Vibration     8          0.682              1.704              1.512
 Vibration     9          0.687              1.689              1.465
 Vibration    10          0.707              1.632              1.302
 Vibration    11          0.738              1.545              1.101
 Vibration    12          0.766              1.471              0.964
 Vibration    13          0.787              1.417              0.876
 Vibration    14          0.798              1.388              0.834
 Vibration    15          0.829              1.312              0.732
 Vibration    16          0.915              1.119              0.525
 Vibration    17          0.923              1.102              0.510
 Vibration    18          0.924              1.100              0.508
 Vibration    19          0.939              1.070              0.481
 Vibration    20          0.968              1.012              0.434

 Optimization completed.
    -- Stationary point found.
 Normal termination of Gaussian 16 at Fri Dec 11 19:46:58 2020.

 ----------------------------------------------------------------------
 # B3LYP/6-311++G(d,p) empiricaldispersion=gd3bj scf=xqc pop=npa geom=c
 heck
 ----------------------------------------------------------------------

 --------------------------------------
 CID_88187488_JID_8216_Energie_neutraal
 --------------------------------------
 Structure from the checkpoint file:  "JID_8216.chk"
 Charge =  0 Multiplicity = 1

 SCF Done:  E(RB3LYP) =  -742.595403255     A.U. after   17 cycles
 Normal termination of Gaussian 16 at Fri Dec 11 19:52:27 2020.

 ----------------------------------------------------------------------
 # B3LYP/6-311++G(d,p) empiricaldispersion=gd3bj scf=xqc pop=npa geom=c
 heck
 ----------------------------------------------------------------------

 ------------------------------------
 CID_88187488_JID_8216_Energie_kation
 ------------------------------------
 Structure from the checkpoint file:  "JID_8216.chk"
 Charge =  1 Multiplicity = 2

 SCF Done:  E(UB3LYP) =  -742.285956274     A.U. after   32 cycles
 Normal termination of Gaussian 16 at Fri Dec 11 20:06:40 2020.
 Gaussian 16:  ES64L-G16RevA.03 25-Dec-2016

 ----------------------------------------------------------------------
 # B3LYP/6-311++G(d,p) empiricaldispersion=gd3bj scf=xqc pop=npa geom=c
 heck
 ----------------------------------------------------------------------

 -----------------------------------
 CID_88187488_JID_8216_Energie_anion
 -----------------------------------
 Structure from the checkpoint file:  "JID_8216.chk"
 Charge = -1 Multiplicity = 2

                         Standard orientation:
 ---------------------------------------------------------------------
 Center     Atomic      Atomic             Coordinates (Angstroms)
 Number     Number       Type             X           Y           Z
 ---------------------------------------------------------------------
      1          6           0        2.997304   -2.040108   -0.000191
      2          6           0        3.085480   -1.208407    1.250291
      3          6           0        2.954931    0.118236    1.255830
      4          6           0        2.673749    0.917924    0.000121
      5          6           0        2.954874    0.118493   -1.255773
      6          6           0        3.085413   -1.208153   -1.250511
      7          6           0        1.227399    1.336139    0.000124
      8          7           0        0.829428    2.566573   -0.000003
      9          7           0       -0.683099    2.617171   -0.000053
     10          6           0       -1.073165    1.394726    0.000039
     11          6           0        0.048817    0.439283    0.000135
     12          7           0       -0.289943   -0.803523    0.000135
     13          6           0       -1.740934   -0.778344    0.000069
     14          6           0       -2.567537   -1.881493    0.000053
     15          6           0       -3.960709   -1.660418   -0.000023
     16          6           0       -4.483889   -0.371617   -0.000083
     17          6           0       -3.636355    0.755311   -0.000070
     18          6           0       -2.270935    0.546684    0.000007
     19          1           0        3.783887   -2.808626   -0.000294
     20          1           0        2.043375   -2.591727   -0.000218
     21          1           0        3.262746   -1.736639    2.185049
     22          1           0        3.007895    0.681560    2.184352
     23          1           0        3.263152    1.843102    0.000199
     24          1           0        3.007785    0.682018   -2.184174
     25          1           0        3.262632   -1.736197   -2.185383
     26          1           0       -2.152013   -2.883719    0.000099
     27          1           0       -4.633360   -2.512788   -0.000034
     28          1           0       -5.560002   -0.227907   -0.000144
     29          1           0       -4.047461    1.759835   -0.000119
 ---------------------------------------------------------------------

 SCF Done:  E(UB3LYP) =  -742.676638092     A.U. after   23 cycles

 The electronic state is 2-A.
 Alpha  occ. eigenvalues --  -14.17367 -14.17140 -14.15958 -10.07272 -10.07044
 Alpha  occ. eigenvalues --  -10.06699 -10.06342 -10.06341 -10.06292 -10.06164
 Alpha  occ. eigenvalues --  -10.06164 -10.05521 -10.05450 -10.05289 -10.05016
 Alpha  occ. eigenvalues --  -10.04826 -10.04715 -10.04146  -0.84470  -0.79567
 Alpha  occ. eigenvalues --   -0.73767  -0.71939  -0.68409  -0.63991  -0.63921
 Alpha  occ. eigenvalues --   -0.62335  -0.60644  -0.55164  -0.52722  -0.49611
 Alpha  occ. eigenvalues --   -0.47569  -0.46292  -0.42491  -0.40863  -0.39701
 Alpha  occ. eigenvalues --   -0.36948  -0.35436  -0.35065  -0.33638  -0.33153
 Alpha  occ. eigenvalues --   -0.31567  -0.31293  -0.31249  -0.30282  -0.29368
 Alpha  occ. eigenvalues --   -0.27539  -0.25636  -0.24469  -0.24214  -0.23696
 Alpha  occ. eigenvalues --   -0.23047  -0.21461  -0.19851  -0.16528  -0.16436
 Alpha  occ. eigenvalues --   -0.15090  -0.13393  -0.12904  -0.12253  -0.10436
 Alpha  occ. eigenvalues --   -0.09401  -0.02127
 Alpha virt. eigenvalues --    0.07522   0.08128   0.09162   0.09612   0.09734
 Alpha virt. eigenvalues --    0.10048   0.10942   0.11062   0.11711   0.11812
 Alpha virt. eigenvalues --    0.12477   0.12607   0.13160   0.13987   0.14348

  Beta  occ. eigenvalues --  -14.17199 -14.16715 -14.15430 -10.07283 -10.07046
  Beta  occ. eigenvalues --  -10.06664 -10.06326 -10.06325 -10.06158 -10.06158
  Beta  occ. eigenvalues --  -10.06129 -10.05475 -10.05445 -10.05239 -10.05011
  Beta  occ. eigenvalues --  -10.04741 -10.04587 -10.04060  -0.83809  -0.78833
  Beta  occ. eigenvalues --   -0.73679  -0.71711  -0.68055  -0.63963  -0.63754
  Beta  occ. eigenvalues --   -0.62171  -0.60425  -0.54488  -0.52473  -0.49353
  Beta  occ. eigenvalues --   -0.47519  -0.46031  -0.42314  -0.40681  -0.39578
  Beta  occ. eigenvalues --   -0.36825  -0.35208  -0.34841  -0.33546  -0.33069
  Beta  occ. eigenvalues --   -0.31512  -0.31221  -0.31108  -0.30144  -0.28078
  Beta  occ. eigenvalues --   -0.27469  -0.25421  -0.24137  -0.23630  -0.23517
  Beta  occ. eigenvalues --   -0.22926  -0.21244  -0.17793  -0.16117  -0.15937
  Beta  occ. eigenvalues --   -0.14563  -0.13186  -0.12679  -0.11002  -0.09856
  Beta  occ. eigenvalues --   -0.08509
  Beta virt. eigenvalues --    0.04164   0.07522   0.08123   0.09165   0.09729
  Beta virt. eigenvalues --    0.10048   0.10293   0.11062   0.11180   0.11706
  Beta virt. eigenvalues --    0.11834   0.12526   0.12621   0.13986   0.14239

 Mulliken charges and spin densities:
               1          2
     1  C   -0.350766  -0.006822
     2  C   -0.358550   0.020809
     3  C   -0.029068   0.005349
     4  C    0.089060  -0.030769
     5  C   -0.029015   0.005342
     6  C   -0.358502   0.020816
     7  C   -0.436877   0.078866
     8  N   -0.107598   0.077309
     9  N   -0.238304   0.233682
    10  C   -0.087529   0.014796
    11  C   -0.536044   0.143873
    12  N    0.012707   0.282355
    13  C   -0.991465   0.036308
    14  C   -0.317451  -0.005332
    15  C   -0.343116   0.037647
    16  C   -0.130674   0.034274
    17  C    0.026465   0.015959
    18  C    1.559424   0.045157
    19  H    0.141949   0.000005
    20  H    0.162765  -0.000823
    21  H    0.136123  -0.000468
    22  H    0.158899  -0.000299
    23  H    0.218676  -0.001618
    24  H    0.158898  -0.000299
    25  H    0.136131  -0.000468
    26  H    0.129963   0.000439
    27  H    0.120235  -0.003206
    28  H    0.118250  -0.003471
    29  H    0.145415   0.000589
 Sum of Mulliken charges =  -1.00000   1.00000

 Dipole moment (field-independent basis, Debye):
    X=              1.9472    Y=             -5.2446    Z=             -0.0000  Tot=              5.5944
 Quadrupole moment (field-independent basis, Debye-Ang):
   XX=           -131.3680   YY=           -133.7484   ZZ=           -111.0573
   XY=             -1.8952   XZ=              0.0003   YZ=              0.0008

 Summary of Natural Population Analysis:

                                       Natural Population
                Natural  -----------------------------------------------
    Atom  No    Charge         Core      Valence    Rydberg      Total
 -----------------------------------------------------------------------
      C    1   -0.22684      0.99961     2.21976    0.00747     3.22684
      C    2   -0.08440      0.99953     2.07606    0.00880     3.08440
      C    3   -0.08038      0.99952     2.07167    0.00919     3.08038
      C    4   -0.16054      0.99953     2.14543    0.01558     3.16054
      C    5   -0.08038      0.99952     2.07166    0.00919     3.08038
      C    6   -0.08440      0.99953     2.07606    0.00880     3.08440
      C    7    0.12903      0.99950     1.85233    0.01915     2.87097
      N    8   -0.13003      0.99965     2.61897    0.01141     3.63003
      N    9   -0.06641      0.99965     2.55160    0.01516     3.56641
      C   10    0.08302      0.99950     1.90161    0.01588     2.91698
      C   11    0.10524      0.99949     1.87866    0.01661     2.89476
      N   12   -0.13188      0.99966     2.61947    0.01275     3.63188
      C   13    0.08709      0.99944     1.90030    0.01316     2.91291
      C   14   -0.11127      0.99950     2.10285    0.00893     3.11127
      C   15   -0.10135      0.99959     2.09267    0.00909     3.10135
      C   16   -0.10669      0.99958     2.09788    0.00922     3.10669
      C   17   -0.09250      0.99953     2.08468    0.00829     3.09250
      C   18   -0.02760      0.99944     2.01951    0.00866     3.02760
      H   19    0.09409      0.00000     0.40437    0.00154     0.40591
      H   20    0.11922      0.00000     0.37939    0.00139     0.38078
      H   21    0.09105      0.00000     0.40786    0.00109     0.40895
      H   22    0.09711      0.00000     0.40192    0.00097     0.40289
      H   23    0.11077      0.00000     0.38734    0.00189     0.38923
      H   24    0.09711      0.00000     0.40192    0.00097     0.40289
      H   25    0.09105      0.00000     0.40786    0.00109     0.40895
      H   26    0.09923      0.00000     0.39932    0.00145     0.40077
      H   27    0.09086      0.00000     0.40813    0.00101     0.40914
      H   28    0.09114      0.00000     0.40785    0.00101     0.40886
      H   29    0.09867      0.00000     0.39988    0.00145     0.40133
 =======================================================================
   * Total *   -0.00000     17.99177    42.78704    0.22119    61.00000

 Normal termination of Gaussian 16 at Fri Dec 11 20:17:11 2020.
