 Gaussian 16, Revision A.03,

 -----------------------------------------------------------
 # opt freq B3LYP/6-31G(d) empiricaldispersion=gd3bj scf=xqc
 -----------------------------------------------------------

 ------------------------------
 CID_67668697_JID_5334_neutraal
 ------------------------------
 Symbolic Z-matrix:
 Charge =  0 Multiplicity = 1

 SCF Done:  E(RB3LYP) =  -614.543954306     A.U. after   15 cycles
 SCF Done:  E(RB3LYP) =  -614.548254336     A.U. after   12 cycles
 SCF Done:  E(RB3LYP) =  -614.548791458     A.U. after   12 cycles
 SCF Done:  E(RB3LYP) =  -614.549198699     A.U. after   12 cycles
 SCF Done:  E(RB3LYP) =  -614.549528398     A.U. after   12 cycles
 SCF Done:  E(RB3LYP) =  -614.549941296     A.U. after   12 cycles
 SCF Done:  E(RB3LYP) =  -614.549710757     A.U. after   12 cycles
 SCF Done:  E(RB3LYP) =  -614.549482597     A.U. after   13 cycles
 SCF Done:  E(RB3LYP) =  -614.549938132     A.U. after   12 cycles
 SCF Done:  E(RB3LYP) =  -614.550206127     A.U. after    9 cycles
 SCF Done:  E(RB3LYP) =  -614.550401568     A.U. after   10 cycles
 SCF Done:  E(RB3LYP) =  -614.550409626     A.U. after   10 cycles
 SCF Done:  E(RB3LYP) =  -614.550413128     A.U. after    9 cycles
 SCF Done:  E(RB3LYP) =  -614.550414132     A.U. after    9 cycles
 SCF Done:  E(RB3LYP) =  -614.550414152     A.U. after    8 cycles
 SCF Done:  E(RB3LYP) =  -614.550414245     A.U. after    8 cycles
 Optimization completed.
    -- Stationary point found.
 Normal termination of Gaussian 16 at Thu Dec 10 15:37:28 2020.

 --------------------------------------------------------------------
 #N Geom=AllCheck Guess=TCheck SCRF=Check GenChk RB3LYP/6-31G(d) Freq
 --------------------------------------------------------------------

 Structure from the checkpoint file:  "JID_5334.chk"
 ------------------------------
 CID_67668697_JID_5334_neutraal
 ------------------------------
 Charge =  0 Multiplicity = 1

 SCF Done:  E(RB3LYP) =  -614.550414245     A.U. after    1 cycles

  Exact polarizability: 202.100  20.378 158.557  26.464  -4.188  94.019
 Approx polarizability: 311.665  38.819 262.927  67.549  -8.559 152.632

                      1                      2                      3
                      A                      A                      A
 Frequencies --     24.5994                37.1900                60.1022
 Red. masses --      3.1170                 3.1793                 4.3358
 Frc consts  --      0.0011                 0.0026                 0.0092
 IR Inten    --      0.6593                 0.1331                 0.5520

                      4                      5                      6
                      A                      A                      A
 Frequencies --    107.4014               141.3825               177.4160
 Red. masses --      4.1461                 3.5711                 3.3387
 Frc consts  --      0.0282                 0.0421                 0.0619
 IR Inten    --      0.1724                 1.5041                 2.7964

                      7                      8                      9
                      A                      A                      A
 Frequencies --    217.9493               233.2010               262.7002
 Red. masses --      3.8396                 1.0846                 1.4015
 Frc consts  --      0.1075                 0.0348                 0.0570
 IR Inten    --      1.8095                 0.1576                 0.6467

                     10                     11                     12
                      A                      A                      A
 Frequencies --    274.5943               285.3681               367.5433
 Red. masses --      2.1247                 3.0121                 3.5559
 Frc consts  --      0.0944                 0.1445                 0.2830
 IR Inten    --      1.4645                 0.9119                 1.3222

                     13                     14                     15
                      A                      A                      A
 Frequencies --    373.3259               417.1024               429.4815
 Red. masses --      2.2443                 3.0305                 2.7969
 Frc consts  --      0.1843                 0.3106                 0.3040
 IR Inten    --      0.9625                 0.6939                 6.1836

                     16                     17                     18
                      A                      A                      A
 Frequencies --    460.9472               499.0599               533.7555
 Red. masses --      2.3011                 3.1615                 4.9485
 Frc consts  --      0.2881                 0.4639                 0.8306
 IR Inten    --      2.3755                 4.3110                 1.7945

                     19                     20                     21
                      A                      A                      A
 Frequencies --    547.7764               594.2269               622.6704
 Red. masses --      3.1921                 4.0813                 3.9632
 Frc consts  --      0.5643                 0.8491                 0.9053
 IR Inten    --      5.2794                 0.8799                 2.8974

                     22                     23                     24
                      A                      A                      A
 Frequencies --    664.4321               718.4866               739.4518
 Red. masses --      2.7622                 3.3144                 2.7763
 Frc consts  --      0.7185                 1.0081                 0.8944
 IR Inten    --      0.8547                14.5859                31.1238

                     25                     26                     27
                      A                      A                      A
 Frequencies --    768.6166               782.5870               785.5691
 Red. masses --      2.9478                 1.6055                 5.0134
 Frc consts  --      1.0260                 0.5793                 1.8228
 IR Inten    --      5.9025                46.1033                 3.1588

                     28                     29                     30
                      A                      A                      A
 Frequencies --    838.3892               864.7814               872.3396
 Red. masses --      1.6334                 1.5673                 5.5673
 Frc consts  --      0.6764                 0.6906                 2.4961
 IR Inten    --     16.4130                 3.3308                 8.8646

                     31                     32                     33
                      A                      A                      A
 Frequencies --    901.5604               924.4157               936.4876
 Red. masses --      1.4322                 1.7388                 1.2544
 Frc consts  --      0.6859                 0.8754                 0.6482
 IR Inten    --      1.6902                 9.6983                 1.1006

                     34                     35                     36
                      A                      A                      A
 Frequencies --    946.8504               952.3565               958.4173
 Red. masses --      1.8258                 1.4029                 1.4338
 Frc consts  --      0.9644                 0.7497                 0.7760
 IR Inten    --     10.6034                 7.2211                 0.0345

                     37                     38                     39
                      A                      A                      A
 Frequencies --    982.5899               991.4043              1051.0274
 Red. masses --      1.3161                 1.6786                 2.4521
 Frc consts  --      0.7486                 0.9721                 1.5960
 IR Inten    --      1.1306                 5.4259                 6.7564

                     40                     41                     42
                      A                      A                      A
 Frequencies --   1054.4602              1106.4895              1118.7940
 Red. masses --      2.4286                 3.0576                 3.6785
 Frc consts  --      1.5910                 2.2056                 2.7128
 IR Inten    --      4.5533                 6.5294                22.6323

                     43                     44                     45
                      A                      A                      A
 Frequencies --   1129.6395              1152.7132              1172.6239
 Red. masses --      2.0264                 2.0671                 1.5716
 Frc consts  --      1.5235                 1.6183                 1.2733
 IR Inten    --      4.7238                13.3499                 5.1715

                     46                     47                     48
                      A                      A                      A
 Frequencies --   1194.1356              1203.3056              1211.8383
 Red. masses --      1.3802                 1.9271                 2.4148
 Frc consts  --      1.1596                 1.6440                 2.0894
 IR Inten    --      6.2143                34.0972                 4.7000

                     49                     50                     51
                      A                      A                      A
 Frequencies --   1218.0113              1311.7896              1316.2507
 Red. masses --      2.0380                 1.4155                 1.4620
 Frc consts  --      1.7814                 1.4351                 1.4924
 IR Inten    --     60.9731                 2.1552                 5.1710

                     52                     53                     54
                      A                      A                      A
 Frequencies --   1341.5481              1362.7279              1370.9128
 Red. masses --      1.6543                 1.3014                 1.3867
 Frc consts  --      1.7542                 1.4239                 1.5355
 IR Inten    --      0.6841                21.2993                 7.4623

                     55                     56                     57
                      A                      A                      A
 Frequencies --   1381.4572              1401.2558              1409.4108
 Red. masses --      2.1599                 1.4163                 1.9068
 Frc consts  --      2.4286                 1.6385                 2.2316
 IR Inten    --      8.3777                 4.4079                 1.0935

                     58                     59                     60
                      A                      A                      A
 Frequencies --   1425.8803              1444.0636              1490.5802
 Red. masses --      1.2781                 1.2433                 2.4418
 Frc consts  --      1.5310                 1.5275                 3.1964
 IR Inten    --      7.9460                 8.9033                53.5261

                     61                     62                     63
                      A                      A                      A
 Frequencies --   1508.0831              1512.7227              1515.4625
 Red. masses --      1.0932                 1.0574                 1.6739
 Frc consts  --      1.4649                 1.4256                 2.2651
 IR Inten    --      4.5125                 0.4551                 6.9005

                     64                     65                     66
                      A                      A                      A
 Frequencies --   1516.4795              1522.2179              1537.3483
 Red. masses --      1.3213                 1.1060                 1.0550
 Frc consts  --      1.7903                 1.5099                 1.4691
 IR Inten    --      2.0248                17.7633                 7.6631

                     67                     68                     69
                      A                      A                      A
 Frequencies --   1542.3784              1588.2093              1642.7540
 Red. masses --      1.1336                 7.0778                 5.7893
 Frc consts  --      1.5888                10.5188                 9.2050
 IR Inten    --     38.5200                77.1973                 0.4245

                     70                     71                     72
                      A                      A                      A
 Frequencies --   1669.9045              1717.0340              3027.8281
 Red. masses --      6.8437                 8.1680                 1.0832
 Frc consts  --     11.2441                14.1881                 5.8511
 IR Inten    --      6.3530                37.4826                21.6618

                     73                     74                     75
                      A                      A                      A
 Frequencies --   3039.1509              3041.8349              3047.6594
 Red. masses --      1.0674                 1.0378                 1.0392
 Frc consts  --      5.8087                 5.6576                 5.6872
 IR Inten    --     35.3940                16.4937                21.5664

                     76                     77                     78
                      A                      A                      A
 Frequencies --   3104.3188              3106.0203              3114.3971
 Red. masses --      1.0962                 1.1004                 1.0989
 Frc consts  --      6.2239                 6.2549                 6.2798
 IR Inten    --     22.5068                 5.5515                95.9847

                     79                     80                     81
                      A                      A                      A
 Frequencies --   3123.6013              3140.3146              3161.6349
 Red. masses --      1.1004                 1.1027                 1.0898
 Frc consts  --      6.3257                 6.4072                 6.4185
 IR Inten    --     33.2549                24.4885                15.8898

                     82                     83                     84
                      A                      A                      A
 Frequencies --   3188.4093              3194.1956              3201.1691
 Red. masses --      1.0858                 1.0941                 1.0899
 Frc consts  --      6.5033                 6.5770                 6.5805
 IR Inten    --      1.1706                15.5131                14.3090

                     85                     86                     87
                      A                      A                      A
 Frequencies --   3212.2763              3219.8169              3491.0622
 Red. masses --      1.0938                 1.0954                 1.0734
 Frc consts  --      6.6500                 6.6910                 7.7077
 IR Inten    --     18.7919                16.4335                 0.0267

 - Thermochemistry -
 -------------------
 Temperature   298.150 Kelvin.  Pressure   1.00000 Atm.
 Atom     1 has atomic number  6 and mass  12.00000

 Molecular mass:   200.13135 amu.
 Principal axes and moments of inertia in atomic units:
                           1         2         3
     Eigenvalues --  1743.454504893.885365810.91458
           X            0.99994   0.00753  -0.00789
           Y           -0.00747   0.99995   0.00677
           Z            0.00794  -0.00671   0.99995
 This molecule is an asymmetric top.
 Rotational symmetry number  1.
 Warning -- assumption of classical behavior for rotation
           may cause significant error
 Rotational temperatures (Kelvin)      0.04968     0.01770     0.01491
 Rotational constants (GHZ):           1.03515     0.36877     0.31058
 Zero-point vibrational energy     698928.5 (Joules/Mol)
                                  167.04793 (Kcal/Mol)
 Warning -- explicit consideration of  20 degrees of freedom as
           vibrations may cause significant error
 Vibrational temperatures:     35.39    53.51    86.47   154.53   203.42
          (Kelvin)            255.26   313.58   335.52   377.97   395.08
                              410.58   528.81   537.13   600.12   617.93
                              663.20   718.04   767.96   788.13   854.96
                              895.88   955.97  1033.74  1063.91  1105.87
                             1125.97  1130.26  1206.26  1244.23  1255.10
                             1297.14  1330.03  1347.40  1362.31  1370.23
                             1378.95  1413.73  1426.41  1512.19  1517.13
                             1591.99  1609.70  1625.30  1658.50  1687.14
                             1718.09  1731.29  1743.57  1752.45  1887.37
                             1893.79  1930.19  1960.66  1972.44  1987.61
                             2016.09  2027.83  2051.52  2077.69  2144.61
                             2169.80  2176.47  2180.41  2181.88  2190.13
                             2211.90  2219.14  2285.08  2363.56  2402.62
                             2470.43  4356.37  4372.66  4376.52  4384.90
                             4466.42  4468.87  4480.92  4494.17  4518.21
                             4548.89  4587.41  4595.73  4605.77  4621.75
                             4632.60  5022.86

 Zero-point correction=                           0.266208 (Hartree/Particle)
 Thermal correction to Energy=                    0.279920
 Thermal correction to Enthalpy=                  0.280864
 Thermal correction to Gibbs Free Energy=         0.224624
 Sum of electronic and zero-point Energies=           -614.284206
 Sum of electronic and thermal Energies=              -614.270494
 Sum of electronic and thermal Enthalpies=            -614.269550
 Sum of electronic and thermal Free Energies=         -614.325790

                     E (Thermal)             CV                S
                      KCal/Mol        Cal/Mol-Kelvin    Cal/Mol-Kelvin
 Total                  175.652             53.519            118.367
 Electronic               0.000              0.000              0.000
 Translational            0.889              2.981             41.786
 Rotational               0.889              2.981             32.272
 Vibrational            173.875             47.557             44.309
 Vibration     1          0.593              1.985              6.223
 Vibration     2          0.594              1.982              5.403
 Vibration     3          0.597              1.973              4.454
 Vibration     4          0.606              1.943              3.315
 Vibration     5          0.615              1.912              2.785
 Vibration     6          0.628              1.870              2.355
 Vibration     7          0.646              1.814              1.976
 Vibration     8          0.654              1.790              1.854
 Vibration     9          0.670              1.741              1.644
 Vibration    10          0.677              1.720              1.567
 Vibration    11          0.683              1.701              1.501
 Vibration    12          0.740              1.539              1.090
 Vibration    13          0.745              1.527              1.066
 Vibration    14          0.780              1.433              0.902
 Vibration    15          0.791              1.406              0.860
 Vibration    16          0.819              1.337              0.763
 Vibration    17          0.855              1.252              0.660
 Vibration    18          0.889              1.175              0.579
 Vibration    19          0.903              1.145              0.549
 Vibration    20          0.952              1.044              0.460

 Optimization completed.
    -- Stationary point found.
 Normal termination of Gaussian 16 at Thu Dec 10 15:46:59 2020.

 ----------------------------------------------------------------------
 # B3LYP/6-311++G(d,p) empiricaldispersion=gd3bj scf=xqc pop=npa geom=c
 heck
 ----------------------------------------------------------------------

 --------------------------------------
 CID_67668697_JID_5334_Energie_neutraal
 --------------------------------------
 Structure from the checkpoint file:  "JID_5334.chk"
 Charge =  0 Multiplicity = 1

 SCF Done:  E(RB3LYP) =  -614.712445104     A.U. after   15 cycles
 Normal termination of Gaussian 16 at Thu Dec 10 15:52:05 2020.

 ----------------------------------------------------------------------
 # B3LYP/6-311++G(d,p) empiricaldispersion=gd3bj scf=xqc pop=npa geom=c
 heck
 ----------------------------------------------------------------------

 ------------------------------------
 CID_67668697_JID_5334_Energie_kation
 ------------------------------------
 Structure from the checkpoint file:  "JID_5334.chk"
 Charge =  1 Multiplicity = 2

 SCF Done:  E(UB3LYP) =  -614.416949506     A.U. after   30 cycles
 Normal termination of Gaussian 16 at Thu Dec 10 16:05:19 2020.
 Gaussian 16:  ES64L-G16RevA.03 25-Dec-2016

 ----------------------------------------------------------------------
 # B3LYP/6-311++G(d,p) empiricaldispersion=gd3bj scf=xqc pop=npa geom=c
 heck
 ----------------------------------------------------------------------

 -----------------------------------
 CID_67668697_JID_5334_Energie_anion
 -----------------------------------
 Structure from the checkpoint file:  "JID_5334.chk"
 Charge = -1 Multiplicity = 2

                         Standard orientation:
 ---------------------------------------------------------------------
 Center     Atomic      Atomic             Coordinates (Angstroms)
 Number     Number       Type             X           Y           Z
 ---------------------------------------------------------------------
      1          6           0        3.813665   -1.552605   -0.973767
      2          6           0        3.368236   -0.342358   -0.148675
      3          6           0        3.266257    0.912934   -1.031532
      4          7           0        2.138915   -0.713599    0.563512
      5          6           0        1.619013    0.257904    1.536193
      6          6           0        0.791900    1.381902    0.955307
      7          6           0       -0.433960    1.223315    0.417378
      8          6           0       -1.242713    2.303110   -0.184315
      9          7           0       -2.398173    1.916926   -0.626482
     10          6           0       -2.470252    0.521513   -0.362108
     11          6           0       -3.530292   -0.320857   -0.664441
     12          6           0       -3.412226   -1.674825   -0.325920
     13          6           0       -2.259424   -2.161463    0.296805
     14          6           0       -1.187967   -1.310408    0.600053
     15          6           0       -1.297365    0.038989    0.270856
     16          1           0        3.082007   -1.771701   -1.762669
     17          1           0        3.903667   -2.437743   -0.337820
     18          1           0        4.776872   -1.363182   -1.459191
     19          1           0        4.124952   -0.157587    0.626888
     20          1           0        2.475339    0.793294   -1.782255
     21          1           0        3.036905    1.806568   -0.442592
     22          1           0        4.209826    1.096188   -1.559174
     23          1           0        1.412663   -0.932172   -0.117186
     24          1           0        1.002627   -0.286362    2.263570
     25          1           0        2.472264    0.662786    2.088950
     26          1           0        1.220163    2.383378    0.944132
     27          1           0       -0.917566    3.338267   -0.257906
     28          1           0       -4.418788    0.070302   -1.149518
     29          1           0       -4.226764   -2.356856   -0.552575
     30          1           0       -2.188878   -3.215610    0.548530
     31          1           0       -0.299722   -1.715776    1.074596
 ---------------------------------------------------------------------

 SCF Done:  E(UB3LYP) =  -614.741914557     A.U. after   23 cycles

 The electronic state is 2-A.
 Alpha  occ. eigenvalues --  -14.17192 -14.12882 -10.09438 -10.06433 -10.06184
 Alpha  occ. eigenvalues --  -10.05141 -10.03401 -10.03037 -10.03035 -10.02827
 Alpha  occ. eigenvalues --  -10.02771 -10.02642 -10.01634 -10.01074 -10.00368
 Alpha  occ. eigenvalues --   -0.78840  -0.78305  -0.69382  -0.66784  -0.63207
 Alpha  occ. eigenvalues --   -0.59691  -0.58470  -0.58060  -0.54249  -0.47967
 Alpha  occ. eigenvalues --   -0.47468  -0.46241  -0.42366  -0.40337  -0.36370
 Alpha  occ. eigenvalues --   -0.35925  -0.33256  -0.33029  -0.32653  -0.32365
 Alpha  occ. eigenvalues --   -0.30278  -0.28841  -0.28409  -0.27747  -0.26770
 Alpha  occ. eigenvalues --   -0.26059  -0.25522  -0.24380  -0.23408  -0.23249
 Alpha  occ. eigenvalues --   -0.22819  -0.20827  -0.19207  -0.18994  -0.14326
 Alpha  occ. eigenvalues --   -0.11144  -0.10166  -0.09110  -0.08227   0.02923
 Alpha virt. eigenvalues --    0.07212   0.09082   0.09270   0.09594   0.10456
 Alpha virt. eigenvalues --    0.11002   0.11762   0.11942   0.12206   0.12536
 Alpha virt. eigenvalues --    0.13034   0.13386   0.14475   0.14820   0.15178

  Beta  occ. eigenvalues --  -14.17104 -14.12695 -10.09439 -10.06486 -10.06178
  Beta  occ. eigenvalues --  -10.05132 -10.03297 -10.03039 -10.02770 -10.02765
  Beta  occ. eigenvalues --  -10.02716 -10.02670 -10.01495 -10.01119  -9.99644
  Beta  occ. eigenvalues --   -0.78648  -0.77871  -0.69218  -0.66555  -0.62734
  Beta  occ. eigenvalues --   -0.59345  -0.58422  -0.57753  -0.53993  -0.47804
  Beta  occ. eigenvalues --   -0.47119  -0.45881  -0.41976  -0.40033  -0.36258
  Beta  occ. eigenvalues --   -0.35824  -0.33055  -0.32878  -0.32501  -0.32155
  Beta  occ. eigenvalues --   -0.30210  -0.28794  -0.28318  -0.27665  -0.26445
  Beta  occ. eigenvalues --   -0.25812  -0.24744  -0.24279  -0.23229  -0.23157
  Beta  occ. eigenvalues --   -0.22661  -0.20675  -0.18994  -0.18146  -0.13207
  Beta  occ. eigenvalues --   -0.10834  -0.09816  -0.07365  -0.07333
  Beta virt. eigenvalues --    0.07093   0.09007   0.09233   0.09502   0.09811
  Beta virt. eigenvalues --    0.10438   0.10993   0.11846   0.11929   0.12217
  Beta virt. eigenvalues --    0.12713   0.13038   0.13354   0.14442   0.14778

 Mulliken charges and spin densities:
               1          2
     1  C   -0.444884  -0.066180
     2  C   -0.188281  -0.030153
     3  C   -0.453191   0.004758
     4  N    0.093822  -0.015850
     5  C   -0.677215   0.097005
     6  C   -0.313349   0.611067
     7  C    0.654396  -0.087443
     8  C   -0.186259   0.178533
     9  N   -0.107992   0.087550
    10  C   -0.416799   0.043398
    11  C   -0.364844  -0.038787
    12  C   -0.293371   0.073644
    13  C   -0.568129   0.014112
    14  C   -0.499222   0.025368
    15  C    0.862017   0.059639
    16  H    0.138104   0.006208
    17  H    0.136752   0.012418
    18  H    0.095660   0.017551
    19  H    0.111930   0.006797
    20  H    0.160278  -0.003965
    21  H    0.119162   0.017030
    22  H    0.085573   0.015969
    23  H    0.115601  -0.000300
    24  H    0.147692   0.028435
    25  H    0.106328   0.001225
    26  H    0.114884  -0.037400
    27  H    0.104359  -0.017823
    28  H    0.122034   0.002754
    29  H    0.102830  -0.006436
    30  H    0.116634  -0.000999
    31  H    0.125482   0.001877
 Sum of Mulliken charges =  -1.00000   1.00000

 Dipole moment (field-independent basis, Debye):
    X=              5.9164    Y=             -2.1035    Z=             -0.0823  Tot=              6.2798
 Quadrupole moment (field-independent basis, Debye-Ang):
   XX=           -128.2158   YY=           -112.5953   ZZ=           -104.3813
   XY=              9.0709   XZ=             -2.8365   YZ=              2.6570

 Summary of Natural Population Analysis:

                                       Natural Population
                Natural  -----------------------------------------------
    Atom  No    Charge         Core      Valence    Rydberg      Total
 -----------------------------------------------------------------------
      C    1   -0.28493      0.99965     2.28030    0.00498     3.28493
      C    2   -0.00822      0.99963     1.99934    0.00925     3.00822
      C    3   -0.29450      0.99965     2.29009    0.00476     3.29450
      N    4   -0.33844      0.99975     2.82363    0.01506     3.83844
      C    5   -0.11385      0.99963     2.10370    0.01053     3.11385
      C    6    0.09728      0.99949     1.89512    0.00811     2.90272
      C    7   -0.09120      0.99949     2.08268    0.00904     3.09120
      C    8    0.09898      0.99961     1.88602    0.01539     2.90102
      N    9   -0.23460      0.99970     2.72166    0.01323     3.73460
      C   10    0.09332      0.99944     1.89403    0.01321     2.90668
      C   11   -0.12342      0.99951     2.11411    0.00981     3.12342
      C   12   -0.11722      0.99962     2.10050    0.01709     3.11722
      C   13   -0.07583      0.99960     2.07181    0.00442     3.07583
      C   14   -0.12775      0.99957     2.11316    0.01501     3.12775
      C   15   -0.02085      0.99945     2.00961    0.01180     3.02085
      H   16    0.09544      0.00000     0.40362    0.00094     0.40456
      H   17    0.10138      0.00000     0.39721    0.00142     0.39862
      H   18    0.09214      0.00000     0.40708    0.00078     0.40786
      H   19    0.08089      0.00000     0.41732    0.00179     0.41911
      H   20    0.10080      0.00000     0.39826    0.00094     0.39920
      H   21    0.10471      0.00000     0.39445    0.00084     0.39529
      H   22    0.08923      0.00000     0.40982    0.00095     0.41077
      H   23    0.17623      0.00000     0.32158    0.00219     0.32377
      H   24    0.09854      0.00000     0.39977    0.00169     0.40146
      H   25    0.08762      0.00000     0.41135    0.00103     0.41238
      H   26    0.07486      0.00000     0.42358    0.00156     0.42514
      H   27    0.07413      0.00000     0.42429    0.00158     0.42587
      H   28    0.09627      0.00000     0.40217    0.00156     0.40373
      H   29    0.08687      0.00000     0.41136    0.00177     0.41313
      H   30    0.08663      0.00000     0.41238    0.00100     0.41337
      H   31    0.09554      0.00000     0.40176    0.00270     0.40446
 =======================================================================
   * Total *    0.00005     14.99378    38.82176    0.18441    53.99995

 Normal termination of Gaussian 16 at Thu Dec 10 16:15:02 2020.
