 Gaussian 16, Revision A.03,

 -----------------------------------------------------------
 # opt freq B3LYP/6-31G(d) empiricaldispersion=gd3bj scf=xqc
 -----------------------------------------------------------

 ------------------------------
 CID_77610467_JID_6430_neutraal
 ------------------------------
 Symbolic Z-matrix:
 Charge =  0 Multiplicity = 1

 SCF Done:  E(RB3LYP) =  -731.734931385     A.U. after   14 cycles
 SCF Done:  E(RB3LYP) =  -731.742700056     A.U. after   12 cycles
 SCF Done:  E(RB3LYP) =  -731.736626614     A.U. after   12 cycles
 SCF Done:  E(RB3LYP) =  -731.743109124     A.U. after   12 cycles
 SCF Done:  E(RB3LYP) =  -731.745899599     A.U. after   12 cycles
 SCF Done:  E(RB3LYP) =  -731.747618024     A.U. after   12 cycles
 SCF Done:  E(RB3LYP) =  -731.748300282     A.U. after   12 cycles
 SCF Done:  E(RB3LYP) =  -731.749741032     A.U. after   11 cycles
 SCF Done:  E(RB3LYP) =  -731.750666743     A.U. after   12 cycles
 SCF Done:  E(RB3LYP) =  -731.750626778     A.U. after   12 cycles
 SCF Done:  E(RB3LYP) =  -731.754894409     A.U. after   10 cycles
 SCF Done:  E(RB3LYP) =  -731.754908124     A.U. after    9 cycles
 SCF Done:  E(RB3LYP) =  -731.754911040     A.U. after    8 cycles
 SCF Done:  E(RB3LYP) =  -731.754911369     A.U. after    7 cycles
 SCF Done:  E(RB3LYP) =  -731.754911467     A.U. after    6 cycles
 Optimization completed.
    -- Stationary point found.
 Normal termination of Gaussian 16 at Thu Dec 10 23:23:10 2020.

 --------------------------------------------------------------------
 #N Geom=AllCheck Guess=TCheck SCRF=Check GenChk RB3LYP/6-31G(d) Freq
 --------------------------------------------------------------------

 Structure from the checkpoint file:  "JID_6430.chk"
 ------------------------------
 CID_77610467_JID_6430_neutraal
 ------------------------------
 Charge =  0 Multiplicity = 1

 SCF Done:  E(RB3LYP) =  -731.754911467     A.U. after    1 cycles

  Exact polarizability: 155.978   0.170 142.049   4.414   4.207 127.958
 Approx polarizability: 203.977  -6.143 201.609  12.513   2.988 192.349

                      1                      2                      3
                      A                      A                      A
 Frequencies --     43.6574                52.4197                68.0397
 Red. masses --      3.7569                 3.6762                 3.3539
 Frc consts  --      0.0042                 0.0060                 0.0091
 IR Inten    --      0.4593                 1.0987                 2.0510

                      4                      5                      6
                      A                      A                      A
 Frequencies --     91.7582               102.2336               127.6954
 Red. masses --      3.0430                 2.6898                 2.5037
 Frc consts  --      0.0151                 0.0166                 0.0241
 IR Inten    --      4.6118                 9.3052                 0.0994

                      7                      8                      9
                      A                      A                      A
 Frequencies --    132.3076               148.7019               190.6313
 Red. masses --      3.4535                 2.9678                 3.0319
 Frc consts  --      0.0356                 0.0387                 0.0649
 IR Inten    --      0.1154                 0.2982                 1.8816

                     10                     11                     12
                      A                      A                      A
 Frequencies --    198.2567               214.9090               234.3217
 Red. masses --      1.9679                 2.0168                 1.2959
 Frc consts  --      0.0456                 0.0549                 0.0419
 IR Inten    --      0.4432                 0.2129                 0.5546

                     13                     14                     15
                      A                      A                      A
 Frequencies --    239.8854               253.7099               266.1653
 Red. masses --      1.4255                 1.3524                 1.2140
 Frc consts  --      0.0483                 0.0513                 0.0507
 IR Inten    --      6.2650                 1.7513                 1.5780

                     16                     17                     18
                      A                      A                      A
 Frequencies --    286.5128               307.9284               317.6503
 Red. masses --      2.3152                 2.3864                 2.2654
 Frc consts  --      0.1120                 0.1333                 0.1347
 IR Inten    --      0.4925                 8.2584                 0.3265

                     19                     20                     21
                      A                      A                      A
 Frequencies --    356.1196               380.0534               388.8410
 Red. masses --      2.5025                 2.7437                 2.3447
 Frc consts  --      0.1870                 0.2335                 0.2089
 IR Inten    --      3.6369                 1.0078                 2.0200

                     22                     23                     24
                      A                      A                      A
 Frequencies --    407.2746               423.4032               465.9957
 Red. masses --      2.4345                 3.1326                 3.1740
 Frc consts  --      0.2379                 0.3309                 0.4061
 IR Inten    --      3.1497                 3.6677                 6.4574

                     25                     26                     27
                      A                      A                      A
 Frequencies --    526.2088               541.0150               562.7331
 Red. masses --      2.5178                 2.7482                 2.7848
 Frc consts  --      0.4108                 0.4739                 0.5196
 IR Inten    --      0.5498                 3.8908                 8.4506

                     28                     29                     30
                      A                      A                      A
 Frequencies --    596.7832               611.4421               665.8791
 Red. masses --      3.2227                 2.7603                 3.2069
 Frc consts  --      0.6762                 0.6080                 0.8378
 IR Inten    --     11.2209                 6.8410                 4.2198

                     31                     32                     33
                      A                      A                      A
 Frequencies --    776.2375               821.0236               858.3588
 Red. masses --      3.6499                 2.3321                 2.6426
 Frc consts  --      1.2957                 0.9262                 1.1471
 IR Inten    --      9.3110                 1.4456                 6.7766

                     34                     35                     36
                      A                      A                      A
 Frequencies --    863.9962               877.0636               892.3549
 Red. masses --      2.0093                 2.0612                 1.8087
 Frc consts  --      0.8837                 0.9342                 0.8486
 IR Inten    --      2.2836                50.8403                25.3122

                     37                     38                     39
                      A                      A                      A
 Frequencies --    929.0692               949.4147               950.1180
 Red. masses --      2.1739                 1.5581                 2.1152
 Frc consts  --      1.1056                 0.8275                 1.1250
 IR Inten    --      2.3513                 8.5749                 2.5028

                     40                     41                     42
                      A                      A                      A
 Frequencies --    956.1465               970.2688               979.0915
 Red. masses --      1.3328                 1.9051                 1.3868
 Frc consts  --      0.7179                 1.0567                 0.7833
 IR Inten    --      0.5777                14.2020                 0.2652

                     43                     44                     45
                      A                      A                      A
 Frequencies --   1003.9542              1018.9105              1042.7996
 Red. masses --      2.2900                 1.9691                 2.3251
 Frc consts  --      1.3599                 1.2045                 1.4897
 IR Inten    --      9.5203                 0.2636                38.2226

                     46                     47                     48
                      A                      A                      A
 Frequencies --   1052.2174              1071.4359              1103.0040
 Red. masses --      1.9570                 1.4057                 2.0785
 Frc consts  --      1.2766                 0.9508                 1.4899
 IR Inten    --      4.8981                 4.0918                 5.3795

                     49                     50                     51
                      A                      A                      A
 Frequencies --   1135.6249              1142.6589              1153.1773
 Red. masses --      1.9778                 3.1480                 2.9452
 Frc consts  --      1.5028                 2.4217                 2.3076
 IR Inten    --     21.3280                58.3073                37.3575

                     52                     53                     54
                      A                      A                      A
 Frequencies --   1165.7257              1174.8378              1196.6339
 Red. masses --      2.1781                 2.3912                 2.0078
 Frc consts  --      1.7439                 1.9446                 1.6939
 IR Inten    --     70.8742                 6.2472                12.9285

                     55                     56                     57
                      A                      A                      A
 Frequencies --   1198.6120              1208.5610              1229.7980
 Red. masses --      1.9404                 1.6983                 1.7440
 Frc consts  --      1.6425                 1.4615                 1.5540
 IR Inten    --     36.4414                21.6895                83.1503

                     58                     59                     60
                      A                      A                      A
 Frequencies --   1237.0549              1245.3873              1263.5466
 Red. masses --      1.5579                 1.7497                 2.3045
 Frc consts  --      1.4047                 1.5989                 2.1678
 IR Inten    --      1.3901                17.5503                 5.1133

                     61                     62                     63
                      A                      A                      A
 Frequencies --   1284.6581              1297.7858              1322.5179
 Red. masses --      1.2535                 1.3364                 1.2315
 Frc consts  --      1.2188                 1.3261                 1.2691
 IR Inten    --     11.8066                13.7703                 5.7398

                     64                     65                     66
                      A                      A                      A
 Frequencies --   1349.6503              1365.6466              1377.0521
 Red. masses --      1.4536                 1.4826                 1.4130
 Frc consts  --      1.5600                 1.6291                 1.5787
 IR Inten    --      1.7289                24.7581                 8.7586

                     67                     68                     69
                      A                      A                      A
 Frequencies --   1386.3962              1387.9327              1398.1906
 Red. masses --      1.4589                 1.3961                 1.3319
 Frc consts  --      1.6521                 1.5845                 1.5341
 IR Inten    --     17.7025                 3.6666                28.5148

                     70                     71                     72
                      A                      A                      A
 Frequencies --   1426.1021              1432.1880              1437.4320
 Red. masses --      1.4448                 1.3371                 1.3279
 Frc consts  --      1.7313                 1.6159                 1.6166
 IR Inten    --     68.2399                30.7980                18.8897

                     73                     74                     75
                      A                      A                      A
 Frequencies --   1444.5379              1454.0685              1497.6343
 Red. masses --      1.7403                 1.2205                 1.1640
 Frc consts  --      2.1396                 1.5204                 1.5381
 IR Inten    --    162.7185                12.3198                 3.1699

                     76                     77                     78
                      A                      A                      A
 Frequencies --   1501.6378              1509.9687              1515.1867
 Red. masses --      1.2859                 1.0794                 1.1306
 Frc consts  --      1.7084                 1.4500                 1.5293
 IR Inten    --      7.3173                 9.1024                12.2910

                     79                     80                     81
                      A                      A                      A
 Frequencies --   1517.1206              1523.0780              1526.9989
 Red. masses --      1.0592                 1.0795                 1.0616
 Frc consts  --      1.4363                 1.4754                 1.4585
 IR Inten    --      4.0939                 1.5044                 1.6592

                     82                     83                     84
                      A                      A                      A
 Frequencies --   1528.0723              1531.4483              1534.2109
 Red. masses --      1.0566                 1.0585                 1.0726
 Frc consts  --      1.4536                 1.4626                 1.4875
 IR Inten    --      0.9635                 6.2749                 4.1743

                     85                     86                     87
                      A                      A                      A
 Frequencies --   1539.7332              1542.4015              1545.4834
 Red. masses --      1.0879                 1.0570                 1.0547
 Frc consts  --      1.5196                 1.4816                 1.4842
 IR Inten    --      4.6930                 8.3455                 3.4973

                     88                     89                     90
                      A                      A                      A
 Frequencies --   1550.1117              1558.1995              1743.3462
 Red. masses --      1.0946                 1.0605                 6.6531
 Frc consts  --      1.5496                 1.5171                11.9136
 IR Inten    --      7.7054                 4.2888               385.9148

                     91                     92                     93
                      A                      A                      A
 Frequencies --   2985.1090              3005.8087              3021.3265
 Red. masses --      1.0607                 1.0451                 1.0741
 Frc consts  --      5.5686                 5.5631                 5.7771
 IR Inten    --     58.8733               108.0629                37.5176

                     94                     95                     96
                      A                      A                      A
 Frequencies --   3041.1094              3046.3572              3052.5763
 Red. masses --      1.0982                 1.0390                 1.0376
 Frc consts  --      5.9842                 5.6808                 5.6968
 IR Inten    --     30.0596                14.1799                25.0807

                     97                     98                     99
                      A                      A                      A
 Frequencies --   3063.3629              3067.3721              3069.3817
 Red. masses --      1.0503                 1.0512                 1.0820
 Frc consts  --      5.8071                 5.8276                 6.0057
 IR Inten    --      6.5804                42.8980                17.5004

                    100                    101                    102
                      A                      A                      A
 Frequencies --   3077.6025              3078.0449              3082.8365
 Red. masses --      1.0653                 1.0934                 1.0712
 Frc consts  --      5.9448                 6.1038                 5.9983
 IR Inten    --     17.9165                33.4414                44.2874

                    103                    104                    105
                      A                      A                      A
 Frequencies --   3100.5303              3113.0314              3114.3535
 Red. masses --      1.1002                 1.1002                 1.1002
 Frc consts  --      6.2313                 6.2818                 6.2873
 IR Inten    --     20.4703                10.9539                72.4331

                    106                    107                    108
                      A                      A                      A
 Frequencies --   3123.0862              3126.0476              3133.9748
 Red. masses --      1.1019                 1.1051                 1.0992
 Frc consts  --      6.3325                 6.3628                 6.3609
 IR Inten    --     35.7081                34.9027                40.0066

                    109                    110                    111
                      A                      A                      A
 Frequencies --   3138.4535              3149.2021              3160.9685
 Red. masses --      1.1007                 1.0995                 1.1011
 Frc consts  --      6.3875                 6.4244                 6.4823
 IR Inten    --     26.7948                 7.9368                 9.4963

                    112                    113                    114
                      A                      A                      A
 Frequencies --   3167.1434              3167.4727              3500.4726
 Red. masses --      1.0933                 1.0913                 1.0729
 Frc consts  --      6.4616                 6.4508                 7.7456
 IR Inten    --     10.9609                 6.1967                 3.8134

 - Thermochemistry -
 -------------------
 Temperature   298.150 Kelvin.  Pressure   1.00000 Atm.
 Atom     1 has atomic number  6 and mass  12.00000

 Molecular mass:   228.18378 amu.
 Principal axes and moments of inertia in atomic units:
                           1         2         3
     Eigenvalues --  2410.430524261.353404833.21418
           X            0.99997  -0.00484  -0.00627
           Y            0.00504   0.99947   0.03202
           Z            0.00611  -0.03205   0.99947
 This molecule is an asymmetric top.
 Rotational symmetry number  1.
 Warning -- assumption of classical behavior for rotation
           may cause significant error
 Rotational temperatures (Kelvin)      0.03593     0.02033     0.01792
 Rotational constants (GHZ):           0.74872     0.42351     0.37340
 Zero-point vibrational energy     952730.1 (Joules/Mol)
                                  227.70795 (Kcal/Mol)
 Warning -- explicit consideration of  29 degrees of freedom as
           vibrations may cause significant error
 Vibrational temperatures:     62.81    75.42    97.89   132.02   147.09
          (Kelvin)            183.73   190.36   213.95   274.28   285.25
                              309.21   337.14   345.14   365.03   382.95
                              412.23   443.04   457.03   512.38   546.81
                              559.46   585.98   609.18   670.46   757.10
                              778.40   809.65   858.64   879.73   958.05
                             1116.83  1181.27  1234.99  1243.10  1261.90
                             1283.90  1336.72  1366.00  1367.01  1375.68
                             1396.00  1408.69  1444.47  1465.98  1500.36
                             1513.91  1541.56  1586.98  1633.91  1644.03
                             1659.16  1677.22  1690.33  1721.69  1724.54
                             1738.85  1769.41  1779.85  1791.83  1817.96
                             1848.34  1867.22  1902.81  1941.85  1964.86
                             1981.27  1994.71  1996.93  2011.68  2051.84
                             2060.60  2068.14  2078.37  2092.08  2154.76
                             2160.52  2172.51  2180.02  2182.80  2191.37
                             2197.01  2198.56  2203.41  2207.39  2215.33
                             2219.17  2223.61  2230.26  2241.90  2508.29
                             4294.91  4324.69  4347.01  4375.48  4383.03
                             4391.98  4407.50  4413.26  4416.16  4427.98
                             4428.62  4435.51  4460.97  4478.96  4480.86
                             4493.42  4497.69  4509.09  4515.53  4531.00
                             4547.93  4556.81  4557.29  5036.40

 Zero-point correction=                           0.362876 (Hartree/Particle)
 Thermal correction to Energy=                    0.380649
 Thermal correction to Enthalpy=                  0.381593
 Thermal correction to Gibbs Free Energy=         0.318206
 Sum of electronic and zero-point Energies=           -731.392036
 Sum of electronic and thermal Energies=              -731.374263
 Sum of electronic and thermal Enthalpies=            -731.373318
 Sum of electronic and thermal Free Energies=         -731.436706

                     E (Thermal)             CV                S
                      KCal/Mol        Cal/Mol-Kelvin    Cal/Mol-Kelvin
 Total                  238.861             67.441            133.410
 Electronic               0.000              0.000              0.000
 Translational            0.889              2.981             42.177
 Rotational               0.889              2.981             32.273
 Vibrational            237.083             61.479             58.959
 Vibration     1          0.595              1.980              5.086
 Vibration     2          0.596              1.977              4.724
 Vibration     3          0.598              1.969              4.209
 Vibration     4          0.602              1.955              3.622
 Vibration     5          0.604              1.947              3.411
 Vibration     6          0.611              1.925              2.980
 Vibration     7          0.612              1.921              2.912
 Vibration     8          0.618              1.904              2.689
 Vibration     9          0.634              1.853              2.222
 Vibration    10          0.637              1.842              2.149
 Vibration    11          0.645              1.818              2.002
 Vibration    12          0.654              1.788              1.846
 Vibration    13          0.657              1.779              1.804
 Vibration    14          0.665              1.757              1.705
 Vibration    15          0.672              1.735              1.621
 Vibration    16          0.684              1.699              1.494
 Vibration    17          0.698              1.659              1.373
 Vibration    18          0.704              1.640              1.322
 Vibration    19          0.732              1.563              1.139
 Vibration    20          0.750              1.513              1.039
 Vibration    21          0.757              1.494              1.005
 Vibration    22          0.772              1.454              0.936
 Vibration    23          0.786              1.419              0.880
 Vibration    24          0.823              1.325              0.749
 Vibration    25          0.881              1.192              0.596
 Vibration    26          0.896              1.159              0.563
 Vibration    27          0.918              1.112              0.518
 Vibration    28          0.955              1.039              0.455
 Vibration    29          0.971              1.008              0.430

 Optimization completed.
    -- Stationary point found.
 Normal termination of Gaussian 16 at Thu Dec 10 23:40:29 2020.

 ----------------------------------------------------------------------
 # B3LYP/6-311++G(d,p) empiricaldispersion=gd3bj scf=xqc pop=npa geom=c
 heck
 ----------------------------------------------------------------------

 --------------------------------------
 CID_77610467_JID_6430_Energie_neutraal
 --------------------------------------
 Structure from the checkpoint file:  "JID_6430.chk"
 Charge =  0 Multiplicity = 1

 SCF Done:  E(RB3LYP) =  -731.965053382     A.U. after   14 cycles
 Normal termination of Gaussian 16 at Thu Dec 10 23:48:07 2020.

 ----------------------------------------------------------------------
 # B3LYP/6-311++G(d,p) empiricaldispersion=gd3bj scf=xqc pop=npa geom=c
 heck
 ----------------------------------------------------------------------

 ------------------------------------
 CID_77610467_JID_6430_Energie_kation
 ------------------------------------
 Structure from the checkpoint file:  "JID_6430.chk"
 Charge =  1 Multiplicity = 2

 SCF Done:  E(UB3LYP) =  -731.670146550     A.U. after   24 cycles
 Normal termination of Gaussian 16 at Fri Dec 11 00:05:44 2020.
 Gaussian 16:  ES64L-G16RevA.03 25-Dec-2016

 ----------------------------------------------------------------------
 # B3LYP/6-311++G(d,p) empiricaldispersion=gd3bj scf=xqc pop=npa geom=c
 heck
 ----------------------------------------------------------------------

 -----------------------------------
 CID_77610467_JID_6430_Energie_anion
 -----------------------------------
 Structure from the checkpoint file:  "JID_6430.chk"
 Charge = -1 Multiplicity = 2

                         Standard orientation:
 ---------------------------------------------------------------------
 Center     Atomic      Atomic             Coordinates (Angstroms)
 Number     Number       Type             X           Y           Z
 ---------------------------------------------------------------------
      1          6           0       -0.820344    1.474838   -1.661556
      2          6           0       -1.522775    1.406681   -0.297883
      3          6           0       -2.900469    2.083016   -0.383989
      4          6           0       -1.607164   -0.039231    0.265252
      5          6           0       -2.551814   -0.932064   -0.586880
      6          6           0       -1.925791   -2.327699   -0.558553
      7          6           0       -0.434645   -2.013427   -0.623746
      8          7           0       -0.300088   -0.774398    0.155551
      9          6           0        0.785915   -0.671247    0.978488
     10          8           0        1.559028   -1.605447    1.195563
     11          7           0        0.984531    0.588540    1.630768
     12          6           0        1.712241    1.618146    0.858061
     13          6           0        2.945241    1.098732    0.124271
     14          8           0        2.502505    0.354098   -0.996867
     15          6           0        3.375757   -0.696116   -1.367402
     16          6           0       -2.073260   -0.042169    1.731313
     17          1           0       -1.428693    1.014407   -2.449238
     18          1           0        0.151389    0.975283   -1.646856
     19          1           0       -0.665261    2.520968   -1.950935
     20          1           0       -0.931185    1.979335    0.424655
     21          1           0       -3.562935    1.558912   -1.082470
     22          1           0       -3.403967    2.134107    0.586026
     23          1           0       -2.788221    3.109660   -0.750202
     24          1           0       -3.573022   -0.906169   -0.197170
     25          1           0       -2.585944   -0.571755   -1.620045
     26          1           0       -2.262215   -2.964485   -1.382307
     27          1           0       -2.159212   -2.840005    0.381847
     28          1           0       -0.112718   -1.830919   -1.659257
     29          1           0        0.206105   -2.781559   -0.193380
     30          1           0        1.566097    0.349857    2.432195
     31          1           0        1.045588    2.079336    0.129395
     32          1           0        2.004122    2.398103    1.569788
     33          1           0        3.578886    1.940372   -0.202576
     34          1           0        3.540713    0.465414    0.797928
     35          1           0        4.375909   -0.319402   -1.632424
     36          1           0        3.460181   -1.431945   -0.557311
     37          1           0        2.935675   -1.176460   -2.245138
     38          1           0       -1.379251    0.523980    2.355543
     39          1           0       -3.070882    0.396552    1.823798
     40          1           0       -2.121888   -1.068553    2.110071
 ---------------------------------------------------------------------

 SCF Done:  E(UB3LYP) =  -731.949925044     A.U. after   33 cycles
 SCF Done:  E(UB3LYP) =  -731.949925044     a.u. after    1 cycles

 The electronic state is 2-A.
 Alpha  occ. eigenvalues --  -19.03206 -18.98440 -14.23330 -14.21607 -10.18932
 Alpha  occ. eigenvalues --  -10.12356 -10.11979 -10.11747 -10.10425 -10.09915
 Alpha  occ. eigenvalues --  -10.07609 -10.07604 -10.07310 -10.06167 -10.05867
 Alpha  occ. eigenvalues --  -10.05395  -0.95060  -0.94092  -0.84334  -0.80636
 Alpha  occ. eigenvalues --   -0.71683  -0.69006  -0.65745  -0.64622  -0.58923
 Alpha  occ. eigenvalues --   -0.58605  -0.57380  -0.54172  -0.51867  -0.50748
 Alpha  occ. eigenvalues --   -0.48216  -0.43480  -0.40677  -0.40257  -0.39807
 Alpha  occ. eigenvalues --   -0.38846  -0.37655  -0.36345  -0.35777  -0.35176
 Alpha  occ. eigenvalues --   -0.33976  -0.33123  -0.32431  -0.31547  -0.30987
 Alpha  occ. eigenvalues --   -0.29682  -0.29473  -0.29067  -0.28528  -0.28095
 Alpha  occ. eigenvalues --   -0.27012  -0.26751  -0.25866  -0.25262  -0.24585
 Alpha  occ. eigenvalues --   -0.23972  -0.22905  -0.22458  -0.21469  -0.19144
 Alpha  occ. eigenvalues --   -0.16967  -0.14317  -0.13823   0.04320
 Alpha virt. eigenvalues --    0.05961   0.06719   0.07315   0.07829   0.08575
 Alpha virt. eigenvalues --    0.08861   0.09554   0.09690   0.10399   0.10723
 Alpha virt. eigenvalues --    0.11233   0.11709   0.11930   0.12105   0.12493

  Beta  occ. eigenvalues --  -19.03198 -18.98431 -14.23331 -14.21599 -10.18921
  Beta  occ. eigenvalues --  -10.12356 -10.11957 -10.11738 -10.10399 -10.09909
  Beta  occ. eigenvalues --  -10.07603 -10.07586 -10.07289 -10.06143 -10.05850
  Beta  occ. eigenvalues --  -10.05380  -0.95043  -0.94077  -0.84327  -0.80606
  Beta  occ. eigenvalues --   -0.71666  -0.68982  -0.65715  -0.64598  -0.58886
  Beta  occ. eigenvalues --   -0.58568  -0.57343  -0.54139  -0.51807  -0.50703
  Beta  occ. eigenvalues --   -0.48178  -0.43449  -0.40647  -0.40230  -0.39785
  Beta  occ. eigenvalues --   -0.38822  -0.37622  -0.36315  -0.35749  -0.35148
  Beta  occ. eigenvalues --   -0.33954  -0.33096  -0.32406  -0.31517  -0.30961
  Beta  occ. eigenvalues --   -0.29651  -0.29446  -0.29044  -0.28496  -0.28069
  Beta  occ. eigenvalues --   -0.26986  -0.26721  -0.25835  -0.25233  -0.24555
  Beta  occ. eigenvalues --   -0.23947  -0.22870  -0.22435  -0.21444  -0.19129
  Beta  occ. eigenvalues --   -0.16944  -0.14298  -0.13808
  Beta virt. eigenvalues --    0.06384   0.07022   0.07278   0.07758   0.08350
  Beta virt. eigenvalues --    0.09104   0.09257   0.09715   0.10012   0.10926
  Beta virt. eigenvalues --    0.11064   0.11624   0.11857   0.12165   0.12285

 Mulliken charges and spin densities:
               1          2
     1  C    0.160141  -0.837565
     2  C   -0.654049   0.936636
     3  C    0.836390  -1.444679
     4  C   -1.432997   0.994131
     5  C   -0.567868   0.436310
     6  C    0.834758  -1.500968
     7  C   -0.062167   0.100037
     8  N    0.531183   0.063454
     9  C   -0.035361  -0.333868
    10  O   -0.294310   0.018053
    11  N   -0.028279  -0.034115
    12  C   -0.179396  -0.053640
    13  C    0.683365  -1.061266
    14  O   -0.109102   0.020546
    15  C   -0.086970  -0.212364
    16  C    0.699515  -1.335636
    17  H    0.035825   0.111641
    18  H    0.160441  -0.036447
    19  H   -0.120706   0.278179
    20  H   -0.051083   0.232975
    21  H   -0.176023   0.344663
    22  H   -0.171410   0.307199
    23  H   -0.115710   0.272548
    24  H   -0.397283   0.584998
    25  H    0.127885   0.010652
    26  H   -0.423771   0.622283
    27  H    0.146021  -0.015197
    28  H    0.275768  -0.141180
    29  H    0.111829   0.095435
    30  H    0.128442   0.151133
    31  H    0.392524  -0.195161
    32  H   -1.129922   1.328766
    33  H   -0.456385   0.620677
    34  H    0.119618   0.034700
    35  H   -0.057573   0.180980
    36  H    0.127180   0.044732
    37  H   -0.016153   0.137294
    38  H    0.110384   0.081851
    39  H    0.007085   0.118267
    40  H    0.078164   0.073946
 Sum of Mulliken charges =  -1.00000   1.00000

 Dipole moment (field-independent basis, Debye):
    X=              0.5471    Y=             -3.3565    Z=             -1.1379  Tot=              3.5861
 Quadrupole moment (field-independent basis, Debye-Ang):
   XX=           -172.3233   YY=           -155.9140   ZZ=           -140.6788
   XY=             -9.0299   XZ=             -9.1715   YZ=             -4.6877

 Summary of Natural Population Analysis:

                                       Natural Population
                Natural  -----------------------------------------------
    Atom  No    Charge         Core      Valence    Rydberg      Total
 -----------------------------------------------------------------------
      C    1   -0.29386      0.99964     2.28803    0.00618     3.29386
      C    2   -0.12026      0.99954     2.10962    0.01109     3.12026
      C    3   -0.28385      0.99965     2.27842    0.00579     3.28385
      C    4    0.08564      0.99954     1.89902    0.01579     2.91436
      C    5   -0.19568      0.99958     2.18624    0.00986     3.19568
      C    6   -0.19374      0.99963     2.18616    0.00795     3.19374
      C    7   -0.08201      0.99962     2.07269    0.00970     3.08201
      N    8   -0.27230      0.99960     2.76030    0.01241     3.77230
      C    9    0.42132      0.99965     1.55280    0.02623     2.57868
      O   10   -0.34148      0.99987     3.33696    0.00464     4.34148
      N   11   -0.35132      0.99971     2.83983    0.01177     3.85132
      C   12   -0.09760      0.99959     2.08541    0.01260     3.09760
      C   13   -0.01789      0.99958     2.00555    0.01276     3.01789
      O   14   -0.30083      0.99988     3.29138    0.00957     4.30083
      C   15   -0.09763      0.99961     2.09026    0.00776     3.09763
      C   16   -0.29486      0.99960     2.28875    0.00651     3.29486
      H   17    0.09508      0.00000     0.40389    0.00103     0.40492
      H   18    0.11331      0.00000     0.38454    0.00215     0.38669
      H   19    0.09945      0.00000     0.39968    0.00087     0.40055
      H   20    0.10097      0.00000     0.39615    0.00288     0.39903
      H   21    0.09747      0.00000     0.40142    0.00111     0.40253
      H   22    0.09972      0.00000     0.39930    0.00097     0.40028
      H   23    0.10078      0.00000     0.39838    0.00084     0.39922
      H   24    0.10585      0.00000     0.39287    0.00128     0.39415
      H   25    0.10149      0.00000     0.39698    0.00153     0.39851
      H   26    0.10270      0.00000     0.39621    0.00108     0.39730
      H   27    0.09569      0.00000     0.40312    0.00119     0.40431
      H   28    0.09024      0.00000     0.40852    0.00124     0.40976
      H   29    0.11272      0.00000     0.38615    0.00113     0.38728
      H   30    0.18342      0.00000     0.31431    0.00227     0.31658
      H   31    0.09825      0.00000     0.39886    0.00289     0.40175
      H   32    0.10112      0.00000     0.39594    0.00295     0.39888
      H   33    0.08546      0.00000     0.41280    0.00173     0.41454
      H   34    0.08462      0.00000     0.41374    0.00165     0.41538
      H   35    0.07501      0.00000     0.42374    0.00124     0.42499
      H   36    0.09047      0.00000     0.40827    0.00125     0.40953
      H   37    0.08816      0.00000     0.41089    0.00095     0.41184
      H   38    0.11387      0.00000     0.38475    0.00138     0.38613
      H   39    0.10099      0.00000     0.39810    0.00092     0.39901
      H   40    0.09949      0.00000     0.39950    0.00101     0.40051
 =======================================================================
   * Total *   -0.00000     15.99430    46.79954    0.20616    63.00000

 Normal termination of Gaussian 16 at Fri Dec 11 00:29:12 2020.
