 Gaussian 16, Revision A.03,

 -----------------------------------------------------------
 # opt freq B3LYP/6-31G(d) empiricaldispersion=gd3bj scf=xqc
 -----------------------------------------------------------

 ------------------------------
 CID_68531868_JID_2150_neutraal
 ------------------------------
 Symbolic Z-matrix:
 Charge =  0 Multiplicity = 1

 SCF Done:  E(RB3LYP) =  -480.507641935     A.U. after   14 cycles
 SCF Done:  E(RB3LYP) =  -480.511059456     A.U. after   13 cycles
 SCF Done:  E(RB3LYP) =  -480.510679978     A.U. after   15 cycles
 SCF Done:  E(RB3LYP) =  -480.512275322     A.U. after   13 cycles
 SCF Done:  E(RB3LYP) =  -480.512326667     A.U. after   13 cycles
 SCF Done:  E(RB3LYP) =  -480.512573924     A.U. after   13 cycles
 SCF Done:  E(RB3LYP) =  -480.512605187     A.U. after   12 cycles
 SCF Done:  E(RB3LYP) =  -480.512610529     A.U. after   11 cycles
 SCF Done:  E(RB3LYP) =  -480.512611863     A.U. after    9 cycles
 SCF Done:  E(RB3LYP) =  -480.512613307     A.U. after    9 cycles
 SCF Done:  E(RB3LYP) =  -480.513989434     A.U. after   10 cycles
 SCF Done:  E(RB3LYP) =  -480.513992703     A.U. after   10 cycles
 SCF Done:  E(RB3LYP) =  -480.513993166     A.U. after   10 cycles
 SCF Done:  E(RB3LYP) =  -480.513993386     A.U. after    8 cycles
 SCF Done:  E(RB3LYP) =  -480.513993436     A.U. after    7 cycles
 SCF Done:  E(RB3LYP) =  -480.513993472     A.U. after    7 cycles
 Optimization completed.
    -- Stationary point found.
 Normal termination of Gaussian 16 at Wed Dec  9 17:03:55 2020.

 --------------------------------------------------------------------
 #N Geom=AllCheck Guess=TCheck SCRF=Check GenChk RB3LYP/6-31G(d) Freq
 --------------------------------------------------------------------

 Structure from the checkpoint file:  "JID_2150.chk"
 ------------------------------
 CID_68531868_JID_2150_neutraal
 ------------------------------
 Charge =  0 Multiplicity = 1

 SCF Done:  E(RB3LYP) =  -480.513993472     A.U. after    1 cycles

  Exact polarizability: 223.896   7.324 125.970   0.001  -0.001  52.154
 Approx polarizability: 351.980  15.984 196.392   0.001  -0.002  76.877

                      1                      2                      3
                      A                      A                      A
 Frequencies --     21.8127                23.5186                48.5623
 Red. masses --      1.1456                 2.3865                 4.1759
 Frc consts  --      0.0003                 0.0008                 0.0058
 IR Inten    --      0.0406                 0.3527                 0.0162

                      4                      5                      6
                      A                      A                      A
 Frequencies --     78.4453               119.0980               139.6851
 Red. masses --      3.6033                 1.1135                 4.3675
 Frc consts  --      0.0131                 0.0093                 0.0502
 IR Inten    --      0.0304                 0.4836                 0.3735

                      7                      8                      9
                      A                      A                      A
 Frequencies --    205.3196               217.7599               310.5463
 Red. masses --      4.1376                 3.5525                 3.5127
 Frc consts  --      0.1028                 0.0993                 0.1996
 IR Inten    --      4.1979                 0.0128                 0.8397

                     10                     11                     12
                      A                      A                      A
 Frequencies --    369.6630               384.1503               392.0263
 Red. masses --      4.0965                 4.9900                 4.5421
 Frc consts  --      0.3298                 0.4339                 0.4113
 IR Inten    --      5.0068                 2.1271                 2.5459

                     13                     14                     15
                      A                      A                      A
 Frequencies --    452.6776               526.1535               527.8659
 Red. masses --      3.0396                 2.9082                 5.1824
 Frc consts  --      0.3670                 0.4744                 0.8508
 IR Inten    --      0.5079                10.6049                 2.3350

                     16                     17                     18
                      A                      A                      A
 Frequencies --    535.2309               591.4034               664.8896
 Red. masses --      5.9999                 4.6441                 6.1857
 Frc consts  --      1.0127                 0.9570                 1.6112
 IR Inten    --      0.1945                 0.4707                18.2291

                     19                     20                     21
                      A                      A                      A
 Frequencies --    705.2821               750.5441               803.4241
 Red. masses --      2.2804                 5.4948                 1.4539
 Frc consts  --      0.6683                 1.8237                 0.5529
 IR Inten    --     10.1552                17.8165                27.6190

                     22                     23                     24
                      A                      A                      A
 Frequencies --    889.6261               897.9113               925.1269
 Red. masses --      4.7864                 1.3175                 1.3804
 Frc consts  --      2.2319                 0.6258                 0.6961
 IR Inten    --      7.2901                 2.6000                 2.9177

                     25                     26                     27
                      A                      A                      A
 Frequencies --    933.4129               968.8495               980.7806
 Red. masses --      1.4611                 4.0225                 1.2850
 Frc consts  --      0.7500                 2.2246                 0.7283
 IR Inten    --      1.7568                 7.2135                 0.0755

                     28                     29                     30
                      A                      A                      A
 Frequencies --   1016.6730              1022.5938              1057.7343
 Red. masses --      2.3290                 2.9675                 2.5219
 Frc consts  --      1.4184                 1.8283                 1.6624
 IR Inten    --      3.7409                 8.5209                54.4862

                     31                     32                     33
                      A                      A                      A
 Frequencies --   1077.3577              1130.0305              1144.0366
 Red. masses --      1.5177                 1.5576                 1.3587
 Frc consts  --      1.0379                 1.1719                 1.0477
 IR Inten    --      4.3510                 7.0576                 1.3874

                     34                     35                     36
                      A                      A                      A
 Frequencies --   1181.8327              1206.1261              1216.6303
 Red. masses --      1.4915                 1.1668                 1.8345
 Frc consts  --      1.2274                 1.0001                 1.5999
 IR Inten    --      0.7077                 0.7791                 6.7622

                     37                     38                     39
                      A                      A                      A
 Frequencies --   1320.0385              1332.6294              1362.4044
 Red. masses --      3.5840                 2.3464                 2.3064
 Frc consts  --      3.6796                 2.4551                 2.5223
 IR Inten    --      2.3491                 1.7407                 1.1565

                     40                     41                     42
                      A                      A                      A
 Frequencies --   1417.5979              1444.1291              1454.1247
 Red. masses --      1.2410                 1.2519                 1.1805
 Frc consts  --      1.4694                 1.5382                 1.4707
 IR Inten    --     19.5771                 0.4023                14.6016

                     43                     44                     45
                      A                      A                      A
 Frequencies --   1464.9298              1513.1063              1515.4392
 Red. masses --      2.7786                 1.0441                 1.0440
 Frc consts  --      3.5133                 1.4084                 1.4126
 IR Inten    --      3.6462                 2.6965                 6.4381

                     46                     47                     48
                      A                      A                      A
 Frequencies --   1518.6240              1523.0281              1540.3694
 Red. masses --      1.0743                 1.3626                 1.7981
 Frc consts  --      1.4598                 1.8622                 2.5137
 IR Inten    --     10.8379                 9.1966                16.8169

                     49                     50                     51
                      A                      A                      A
 Frequencies --   1634.8700              1661.1577              1688.2120
 Red. masses --      5.0952                 5.6075                 8.4053
 Frc consts  --      8.0237                 9.1168                14.1142
 IR Inten    --      3.8959                 9.6566                94.2126

                     52                     53                     54
                      A                      A                      A
 Frequencies --   2309.2712              3021.7463              3047.8886
 Red. masses --     11.9648                 1.0346                 1.0374
 Frc consts  --     37.5928                 5.5660                 5.6777
 IR Inten    --    104.6539                33.0596                29.4609

                     55                     56                     57
                      A                      A                      A
 Frequencies --   3093.8222              3098.7335              3101.2373
 Red. masses --      1.1009                 1.1013                 1.1011
 Frc consts  --      6.2084                 6.2305                 6.2393
 IR Inten    --     30.2016                19.9372                18.7193

                     58                     59                     60
                      A                      A                      A
 Frequencies --   3119.5907              3131.4153              3181.3295
 Red. masses --      1.0863                 1.1011                 1.0876
 Frc consts  --      6.2289                 6.3617                 6.4853
 IR Inten    --     35.9270                13.9544                 6.8583

                     61                     62                     63
                      A                      A                      A
 Frequencies --   3199.9183              3201.4526              3219.8838
 Red. masses --      1.0911                 1.0912                 1.0950
 Frc consts  --      6.5823                 6.5895                 6.6889
 IR Inten    --     22.4768                 5.6144                12.1820

 - Thermochemistry -
 -------------------
 Temperature   298.150 Kelvin.  Pressure   1.00000 Atm.
 Atom     1 has atomic number  6 and mass  12.00000

 Molecular mass:   157.08915 amu.
 Principal axes and moments of inertia in atomic units:
                           1         2         3
     Eigenvalues --   861.086644525.026545363.75756
           X            1.00000   0.00055   0.00000
           Y           -0.00055   1.00000  -0.00000
           Z           -0.00000   0.00000   1.00000
 This molecule is an asymmetric top.
 Rotational symmetry number  1.
 Warning -- assumption of classical behavior for rotation
           may cause significant error
 Rotational temperatures (Kelvin)      0.10059     0.01914     0.01615
 Rotational constants (GHZ):           2.09589     0.39884     0.33647
 Zero-point vibrational energy     494259.5 (Joules/Mol)
                                  118.13085 (Kcal/Mol)
 Warning -- explicit consideration of  17 degrees of freedom as
           vibrations may cause significant error
 Vibrational temperatures:     31.38    33.84    69.87   112.87   171.36
          (Kelvin)            200.98   295.41   313.31   446.81   531.86
                              552.71   564.04   651.30   757.02   759.48
                              770.08   850.90   956.63  1014.74  1079.87
                             1155.95  1279.97  1291.89  1331.05  1342.97
                             1393.96  1411.12  1462.77  1471.28  1521.84
                             1550.08  1625.86  1646.01  1700.39  1735.35
                             1750.46  1899.24  1917.36  1960.20  2039.61
                             2077.78  2092.16  2107.71  2177.02  2180.38
                             2184.96  2191.30  2216.25  2352.21  2390.04
                             2428.96  3322.53  4347.62  4385.23  4451.32
                             4458.39  4461.99  4488.40  4505.41  4577.22
                             4603.97  4606.18  4632.69

 Zero-point correction=                           0.188253 (Hartree/Particle)
 Thermal correction to Energy=                    0.200358
 Thermal correction to Enthalpy=                  0.201302
 Thermal correction to Gibbs Free Energy=         0.147085
 Sum of electronic and zero-point Energies=           -480.325740
 Sum of electronic and thermal Energies=              -480.313635
 Sum of electronic and thermal Enthalpies=            -480.312691
 Sum of electronic and thermal Free Energies=         -480.366908

                     E (Thermal)             CV                S
                      KCal/Mol        Cal/Mol-Kelvin    Cal/Mol-Kelvin
 Total                  125.727             43.029            114.110
 Electronic               0.000              0.000              0.000
 Translational            0.889              2.981             41.064
 Rotational               0.889              2.981             31.414
 Vibrational            123.949             37.067             41.632
 Vibration     1          0.593              1.985              6.462
 Vibration     2          0.593              1.985              6.312
 Vibration     3          0.595              1.978              4.875
 Vibration     4          0.600              1.964              3.929
 Vibration     5          0.609              1.933              3.115
 Vibration     6          0.615              1.914              2.808
 Vibration     7          0.640              1.832              2.085
 Vibration     8          0.646              1.814              1.978
 Vibration     9          0.699              1.654              1.359
 Vibration    10          0.742              1.535              1.081
 Vibration    11          0.753              1.504              1.023
 Vibration    12          0.759              1.487              0.992
 Vibration    13          0.811              1.355              0.788
 Vibration    14          0.881              1.192              0.596
 Vibration    15          0.883              1.188              0.592
 Vibration    16          0.890              1.172              0.576
 Vibration    17          0.949              1.050              0.465

                           ! Non-Optimized Parameters !
 Normal termination of Gaussian 16 at Wed Dec  9 17:08:38 2020.

 ----------------------------------------------------------------------
 # B3LYP/6-311++G(d,p) empiricaldispersion=gd3bj scf=xqc pop=npa geom=c
 heck
 ----------------------------------------------------------------------

 --------------------------------------
 CID_68531868_JID_2150_Energie_neutraal
 --------------------------------------
 Structure from the checkpoint file:  "JID_2150.chk"
 Charge =  0 Multiplicity = 1

 SCF Done:  E(RB3LYP) =  -480.639567406     A.U. after   15 cycles
 Normal termination of Gaussian 16 at Wed Dec  9 17:10:59 2020.

 ----------------------------------------------------------------------
 # B3LYP/6-311++G(d,p) empiricaldispersion=gd3bj scf=xqc pop=npa geom=c
 heck
 ----------------------------------------------------------------------

 ------------------------------------
 CID_68531868_JID_2150_Energie_kation
 ------------------------------------
 Structure from the checkpoint file:  "JID_2150.chk"
 Charge =  1 Multiplicity = 2

 SCF Done:  E(UB3LYP) =  -480.337969573     A.U. after   22 cycles
 Normal termination of Gaussian 16 at Wed Dec  9 17:15:06 2020.
 Gaussian 16:  ES64L-G16RevA.03 25-Dec-2016

 ----------------------------------------------------------------------
 # B3LYP/6-311++G(d,p) empiricaldispersion=gd3bj scf=xqc pop=npa geom=c
 heck
 ----------------------------------------------------------------------

 -----------------------------------
 CID_68531868_JID_2150_Energie_anion
 -----------------------------------
 Structure from the checkpoint file:  "JID_2150.chk"
 Charge = -1 Multiplicity = 2

                         Standard orientation:
 ---------------------------------------------------------------------
 Center     Atomic      Atomic             Coordinates (Angstroms)
 Number     Number       Type             X           Y           Z
 ---------------------------------------------------------------------
      1          6           0       -3.240896    2.152147   -0.000057
      2          6           0       -2.565891    0.802023    0.000004
      3          6           0       -1.176236    0.693678   -0.000027
      4          6           0       -0.541591   -0.563925   -0.000028
      5          6           0       -1.326084   -1.730715    0.000012
      6          6           0       -2.714128   -1.627434    0.000068
      7          6           0       -3.328053   -0.375798    0.000065
      8          6           0        0.878633   -0.648268   -0.000042
      9          6           0        2.093609   -0.710755   -0.000018
     10          6           0        3.519783   -0.830431   -0.000116
     11          7           0        4.388484    0.111155   -0.000012
     12          6           0        3.937376    1.489937    0.000127
     13          1           0       -3.879252    2.276714   -0.882986
     14          1           0       -2.508436    2.964648    0.001144
     15          1           0       -3.881329    2.275800    0.881467
     16          1           0       -0.562157    1.589334   -0.000031
     17          1           0       -0.839303   -2.700274    0.000016
     18          1           0       -3.321539   -2.527922    0.000130
     19          1           0       -4.413290   -0.307795    0.000119
     20          1           0        3.905361   -1.853437   -0.000173
     21          1           0        2.846112    1.618715    0.000239
     22          1           0        4.357748    1.991625    0.880219
     23          1           0        4.357567    1.991755   -0.879982
 ---------------------------------------------------------------------

 SCF Done:  E(UB3LYP) =  -480.655538359     A.U. after   21 cycles

 The electronic state is 2-A.
 Alpha  occ. eigenvalues --  -14.13505 -10.05809 -10.05613 -10.04848 -10.04830
 Alpha  occ. eigenvalues --  -10.04252 -10.03930 -10.03065 -10.02995 -10.02487
 Alpha  occ. eigenvalues --  -10.01044 -10.00609  -0.76212  -0.72464  -0.65287
 Alpha  occ. eigenvalues --   -0.62851  -0.59344  -0.56484  -0.55704  -0.48955
 Alpha  occ. eigenvalues --   -0.46158  -0.44399  -0.38536  -0.35125  -0.33560
 Alpha  occ. eigenvalues --   -0.33366  -0.31779  -0.30922  -0.29505  -0.29464
 Alpha  occ. eigenvalues --   -0.28169  -0.26994  -0.24096  -0.23720  -0.21964
 Alpha  occ. eigenvalues --   -0.21323  -0.19290  -0.15035  -0.11993  -0.11989
 Alpha  occ. eigenvalues --   -0.10503  -0.08695   0.04096
 Alpha virt. eigenvalues --    0.07926   0.09295   0.09569   0.10848   0.10891
 Alpha virt. eigenvalues --    0.11378   0.12364   0.12627   0.12812   0.13252
 Alpha virt. eigenvalues --    0.13647   0.14639   0.15847   0.17141   0.17182

  Beta  occ. eigenvalues --  -14.12934 -10.05807 -10.05553 -10.04901 -10.04857
  Beta  occ. eigenvalues --  -10.04121 -10.03986 -10.02925 -10.02839 -10.02176
  Beta  occ. eigenvalues --  -10.00893 -10.00490  -0.75352  -0.72163  -0.65023
  Beta  occ. eigenvalues --   -0.62487  -0.58963  -0.56276  -0.55500  -0.48261
  Beta  occ. eigenvalues --   -0.46003  -0.43943  -0.38383  -0.34843  -0.33439
  Beta  occ. eigenvalues --   -0.33092  -0.31554  -0.30858  -0.29375  -0.28840
  Beta  occ. eigenvalues --   -0.28102  -0.26919  -0.23958  -0.22785  -0.21796
  Beta  occ. eigenvalues --   -0.21215  -0.17969  -0.13369  -0.11862  -0.11224
  Beta  occ. eigenvalues --   -0.09851  -0.06935
  Beta virt. eigenvalues --    0.07874   0.09235   0.09542   0.09545   0.10847
  Beta virt. eigenvalues --    0.11028   0.11329   0.12585   0.12733   0.12901
  Beta virt. eigenvalues --    0.13197   0.14567   0.15415   0.15827   0.17142

 Mulliken charges and spin densities:
               1          2
     1  C   -0.419841   0.011114
     2  C    0.862211  -0.036793
     3  C   -1.350568   0.106798
     4  C    0.789417   0.034541
     5  C   -1.243668   0.131081
     6  C    0.235448  -0.026183
     7  C   -0.944198   0.250137
     8  C    0.835220   0.119121
     9  C    0.396667   0.137604
    10  C   -0.732643   0.042902
    11  N   -0.146124   0.255566
    12  C   -0.399155  -0.023413
    13  H    0.123401   0.007083
    14  H    0.139254  -0.000420
    15  H    0.123278   0.007104
    16  H   -0.035240  -0.011998
    17  H    0.077648  -0.009213
    18  H    0.117317   0.003004
    19  H    0.095798  -0.021744
    20  H    0.127343  -0.009215
    21  H    0.139397   0.000975
    22  H    0.104519   0.015972
    23  H    0.104520   0.015978
 Sum of Mulliken charges =  -1.00000   1.00000

 Dipole moment (field-independent basis, Debye):
    X=             -5.4201    Y=              1.6921    Z=              0.0000  Tot=              5.6780
 Quadrupole moment (field-independent basis, Debye-Ang):
   XX=           -133.5963   YY=            -78.2912   ZZ=            -82.1492
   XY=              0.3095   XZ=              0.0003   YZ=              0.0001

 Summary of Natural Population Analysis:

                                       Natural Population
                Natural  -----------------------------------------------
    Atom  No    Charge         Core      Valence    Rydberg      Total
 -----------------------------------------------------------------------
      C    1   -0.28752      0.99964     2.28324    0.00464     3.28752
      C    2   -0.03915      0.99952     2.03140    0.00822     3.03915
      C    3   -0.05692      0.99949     2.04987    0.00755     3.05692
      C    4   -0.04529      0.99948     2.03591    0.00990     3.04529
      C    5   -0.05872      0.99954     2.05082    0.00836     3.05872
      C    6   -0.12094      0.99957     2.11180    0.00957     3.12094
      C    7   -0.05267      0.99952     2.04359    0.00956     3.05267
      C    8    0.02577      0.99921     1.96711    0.00791     2.97423
      C    9   -0.02788      0.99919     2.02273    0.00596     3.02788
      C   10    0.02301      0.99943     1.96298    0.01457     2.97699
      N   11   -0.15794      0.99970     2.64004    0.01820     3.65794
      C   12   -0.20006      0.99966     2.19213    0.00827     3.20006
      H   13    0.09606      0.00000     0.40289    0.00105     0.40394
      H   14    0.09727      0.00000     0.40181    0.00092     0.40273
      H   15    0.09606      0.00000     0.40289    0.00105     0.40394
      H   16    0.09325      0.00000     0.40565    0.00110     0.40675
      H   17    0.09453      0.00000     0.40452    0.00096     0.40547
      H   18    0.09036      0.00000     0.40849    0.00114     0.40964
      H   19    0.08477      0.00000     0.41375    0.00147     0.41523
      H   20    0.08183      0.00000     0.41684    0.00133     0.41817
      H   21    0.08640      0.00000     0.41206    0.00153     0.41360
      H   22    0.08892      0.00000     0.40984    0.00125     0.41108
      H   23    0.08892      0.00000     0.40984    0.00125     0.41108
 =======================================================================
   * Total *    0.00006     11.99395    29.88022    0.12576    41.99994

 Normal termination of Gaussian 16 at Wed Dec  9 17:19:00 2020.
