 Gaussian 16, Revision A.03,

 -----------------------------------------------------------
 # opt freq B3LYP/6-31G(d) empiricaldispersion=gd3bj scf=xqc
 -----------------------------------------------------------

 ------------------------------
 CID_61349462_JID_8546_neutraal
 ------------------------------
 Symbolic Z-matrix:
 Charge =  0 Multiplicity = 1

 SCF Done:  E(RB3LYP) =  -781.804903575     A.U. after   14 cycles
 SCF Done:  E(RB3LYP) =  -781.810342295     A.U. after   11 cycles
 SCF Done:  E(RB3LYP) =  -781.811261187     A.U. after   11 cycles
 SCF Done:  E(RB3LYP) =  -781.811642634     A.U. after   11 cycles
 SCF Done:  E(RB3LYP) =  -781.811879151     A.U. after   12 cycles
 SCF Done:  E(RB3LYP) =  -781.812058699     A.U. after   11 cycles
 SCF Done:  E(RB3LYP) =  -781.812332783     A.U. after   12 cycles
 SCF Done:  E(RB3LYP) =  -781.812493700     A.U. after   12 cycles
 SCF Done:  E(RB3LYP) =  -781.812587144     A.U. after   12 cycles
 SCF Done:  E(RB3LYP) =  -781.812645690     A.U. after   12 cycles
 SCF Done:  E(RB3LYP) =  -781.814087566     A.U. after    9 cycles
 SCF Done:  E(RB3LYP) =  -781.814089661     A.U. after    8 cycles
 SCF Done:  E(RB3LYP) =  -781.814092259     A.U. after    9 cycles
 SCF Done:  E(RB3LYP) =  -781.814093226     A.U. after    8 cycles
 SCF Done:  E(RB3LYP) =  -781.814093379     A.U. after    8 cycles
 SCF Done:  E(RB3LYP) =  -781.814093394     A.U. after    6 cycles
 Optimization completed.
    -- Stationary point found.
 Normal termination of Gaussian 16 at Fri Dec 11 21:22:18 2020.

 --------------------------------------------------------------------
 #N Geom=AllCheck Guess=TCheck SCRF=Check GenChk RB3LYP/6-31G(d) Freq
 --------------------------------------------------------------------

 Structure from the checkpoint file:  "JID_8546.chk"
 ------------------------------
 CID_61349462_JID_8546_neutraal
 ------------------------------
 Charge =  0 Multiplicity = 1

 SCF Done:  E(RB3LYP) =  -781.814093394     A.U. after    1 cycles

  Exact polarizability: 197.485   4.948 159.269   1.135  -4.087 136.095
 Approx polarizability: 243.082  14.332 247.127  -4.655 -15.928 221.684

                      1                      2                      3
                      A                      A                      A
 Frequencies --     16.3301                18.0748                34.3819
 Red. masses --      3.7432                 3.3047                 4.1520
 Frc consts  --      0.0006                 0.0006                 0.0029
 IR Inten    --      0.7723                 0.0865                 1.3779

                      4                      5                      6
                      A                      A                      A
 Frequencies --     38.4298                61.1781                75.1202
 Red. masses --      3.7517                 1.1402                 3.5810
 Frc consts  --      0.0033                 0.0025                 0.0119
 IR Inten    --      1.6853                 0.5927                 1.2170

                      7                      8                      9
                      A                      A                      A
 Frequencies --     97.8828               130.9041               148.2158
 Red. masses --      4.5411                 3.3456                 2.9240
 Frc consts  --      0.0256                 0.0338                 0.0378
 IR Inten    --      0.3549                 0.1107                 1.2918

                     10                     11                     12
                      A                      A                      A
 Frequencies --    192.2622               203.7057               229.5689
 Red. masses --      3.4257                 3.0326                 1.0483
 Frc consts  --      0.0746                 0.0741                 0.0326
 IR Inten    --      3.4294                 0.3370                 0.0183

                     13                     14                     15
                      A                      A                      A
 Frequencies --    237.4539               275.4570               289.6200
 Red. masses --      4.1015                 1.0671                 2.5564
 Frc consts  --      0.1363                 0.0477                 0.1263
 IR Inten    --      2.5122                 0.3945                 1.5403

                     16                     17                     18
                      A                      A                      A
 Frequencies --    302.1257               317.2897               327.1545
 Red. masses --      2.7709                 1.1041                 2.2629
 Frc consts  --      0.1490                 0.0655                 0.1427
 IR Inten    --      0.8310                 0.0398                 1.4602

                     19                     20                     21
                      A                      A                      A
 Frequencies --    353.0464               357.0383               401.0900
 Red. masses --      2.5290                 2.6505                 3.2168
 Frc consts  --      0.1857                 0.1991                 0.3049
 IR Inten    --      0.8820                 2.7004                 1.4234

                     22                     23                     24
                      A                      A                      A
 Frequencies --    410.7235               454.9464               470.5459
 Red. masses --      2.7405                 3.1435                 3.8009
 Frc consts  --      0.2724                 0.3833                 0.4958
 IR Inten    --      0.8228                 1.6188                 1.1013

                     25                     26                     27
                      A                      A                      A
 Frequencies --    511.6053               600.8319               609.4232
 Red. masses --      3.3217                 3.0591                 3.8341
 Frc consts  --      0.5122                 0.6507                 0.8390
 IR Inten    --      5.0922                 2.7270                 0.6198

                     28                     29                     30
                      A                      A                      A
 Frequencies --    649.9084               652.6393               684.6157
 Red. masses --      3.9408                 4.5921                 6.3814
 Frc consts  --      0.9807                 1.1524                 1.7622
 IR Inten    --      6.5284                 4.5551                 6.0151

                     31                     32                     33
                      A                      A                      A
 Frequencies --    700.2383               750.6836               763.5225
 Red. masses --      2.6871                 3.1662                 2.2622
 Frc consts  --      0.7763                 1.0512                 0.7770
 IR Inten    --     38.2068                17.7806                 4.7640

                     34                     35                     36
                      A                      A                      A
 Frequencies --    791.8846               795.0061               828.6183
 Red. masses --      1.4452                 1.4318                 1.8311
 Frc consts  --      0.5339                 0.5332                 0.7407
 IR Inten    --     13.3483                13.4205               101.4999

                     37                     38                     39
                      A                      A                      A
 Frequencies --    835.2496               871.3696               876.3740
 Red. masses --      2.6649                 1.4138                 1.3647
 Frc consts  --      1.0954                 0.6325                 0.6175
 IR Inten    --      3.0371                18.6517                15.1984

                     40                     41                     42
                      A                      A                      A
 Frequencies --    923.6772               939.1043               951.0826
 Red. masses --      2.0899                 1.7207                 1.6038
 Frc consts  --      1.0505                 0.8941                 0.8547
 IR Inten    --      5.7557                 0.0966                 1.4101

                     43                     44                     45
                      A                      A                      A
 Frequencies --    982.3292               996.5208              1002.7310
 Red. masses --      1.1997                 1.8233                 4.3134
 Frc consts  --      0.6821                 1.0668                 2.5553
 IR Inten    --      0.0626                13.0150                61.1497

                     46                     47                     48
                      A                      A                      A
 Frequencies --   1009.7264              1046.6719              1053.1112
 Red. masses --      3.6234                 4.7177                 3.3609
 Frc consts  --      2.1766                 3.0451                 2.1961
 IR Inten    --     23.0112                11.6985                 7.4791

                     49                     50                     51
                      A                      A                      A
 Frequencies --   1064.9946              1067.8492              1081.8731
 Red. masses --      1.5233                 1.3909                 1.5466
 Frc consts  --      1.0180                 0.9345                 1.0666
 IR Inten    --      7.6893                 0.1306                 7.1875

                     52                     53                     54
                      A                      A                      A
 Frequencies --   1095.5588              1129.1413              1149.6546
 Red. masses --      1.7836                 3.5541                 2.2477
 Frc consts  --      1.2613                 2.6698                 1.7503
 IR Inten    --     10.1089                21.7004                29.0279

                     55                     56                     57
                      A                      A                      A
 Frequencies --   1158.5550              1191.0706              1206.6271
 Red. masses --      1.3244                 1.8639                 1.3459
 Frc consts  --      1.0473                 1.5580                 1.1546
 IR Inten    --     11.3992                28.6219                 6.8102

                     58                     59                     60
                      A                      A                      A
 Frequencies --   1222.4998              1251.1241              1258.8310
 Red. masses --      1.4295                 1.3415                 2.6146
 Frc consts  --      1.2587                 1.2372                 2.4411
 IR Inten    --      2.7086                 4.2632                 2.6714

                     61                     62                     63
                      A                      A                      A
 Frequencies --   1262.7710              1269.6101              1309.4418
 Red. masses --      2.1299                 2.7462                 1.6471
 Frc consts  --      2.0010                 2.6081                 1.6640
 IR Inten    --     63.2420                 9.5919                11.8306

                     64                     65                     66
                      A                      A                      A
 Frequencies --   1328.3658              1347.3862              1378.4043
 Red. masses --      2.5865                 3.3119                 1.4386
 Frc consts  --      2.6890                 3.5425                 1.6104
 IR Inten    --     16.2241                11.9018                56.1403

                     67                     68                     69
                      A                      A                      A
 Frequencies --   1389.1670              1406.4230              1422.0706
 Red. masses --      1.9193                 3.9300                 4.3704
 Frc consts  --      2.1823                 4.5801                 5.2074
 IR Inten    --     22.6190                 3.6845                13.6059

                     70                     71                     72
                      A                      A                      A
 Frequencies --   1422.6189              1426.8008              1440.8513
 Red. masses --      1.2501                 1.3355                 3.3087
 Frc consts  --      1.4906                 1.6018                 4.0471
 IR Inten    --      9.9395                14.4185                19.3118

                     73                     74                     75
                      A                      A                      A
 Frequencies --   1448.5546              1454.5098              1463.3212
 Red. masses --      3.3506                 1.4028                 2.6327
 Frc consts  --      4.1423                 1.7486                 3.3215
 IR Inten    --     33.4097                 4.3651                 8.5864

                     76                     77                     78
                      A                      A                      A
 Frequencies --   1469.1297              1492.0273              1498.4156
 Red. masses --      1.6993                 1.8829                 1.1268
 Frc consts  --      2.1609                 2.4696                 1.4906
 IR Inten    --     18.9115                 9.9930                 6.7650

                     79                     80                     81
                      A                      A                      A
 Frequencies --   1502.9750              1509.4924              1514.6075
 Red. masses --      1.0473                 1.0629                 1.2136
 Frc consts  --      1.3939                 1.4270                 1.6403
 IR Inten    --      0.0403                 6.4433                36.4577

                     82                     83                     84
                      A                      A                      A
 Frequencies --   1521.1887              1522.3774              1527.4665
 Red. masses --      1.0453                 1.0466                 1.0654
 Frc consts  --      1.4252                 1.4292                 1.4645
 IR Inten    --      0.0187                 1.7683                 6.1338

                     85                     86                     87
                      A                      A                      A
 Frequencies --   1533.5952              1546.1747              1547.6234
 Red. masses --      1.0517                 1.1774                 1.0915
 Frc consts  --      1.4574                 1.6584                 1.5403
 IR Inten    --      4.9529                 5.8489                 2.1091

                     88                     89                     90
                      A                      A                      A
 Frequencies --   1554.4969              1609.8313              1622.9984
 Red. masses --      1.0667                 4.8370                 5.3705
 Frc consts  --      1.5187                 7.3856                 8.3349
 IR Inten    --      4.0735                19.7389                16.8072

                     91                     92                     93
                      A                      A                      A
 Frequencies --   2965.9505              3021.4225              3047.8095
 Red. masses --      1.0696                 1.0898                 1.0598
 Frc consts  --      5.5435                 5.8617                 5.8003
 IR Inten    --     46.6466                37.0260                51.1061

                     94                     95                     96
                      A                      A                      A
 Frequencies --   3056.0704              3056.9851              3064.1195
 Red. masses --      1.0355                 1.0360                 1.0371
 Frc consts  --      5.6978                 5.7044                 5.7371
 IR Inten    --     14.7441                24.0243                18.3022

                     97                     98                     99
                      A                      A                      A
 Frequencies --   3065.4227              3088.8390              3122.7446
 Red. masses --      1.0371                 1.1052                 1.1036
 Frc consts  --      5.7417                 6.2130                 6.3406
 IR Inten    --     55.2177                24.4620                 2.7041

                    100                    101                    102
                      A                      A                      A
 Frequencies --   3126.1214              3128.8701              3136.9403
 Red. masses --      1.1029                 1.1031                 1.1014
 Frc consts  --      6.3501                 6.3625                 6.3859
 IR Inten    --     21.7581                35.0199                55.6085

                    103                    104                    105
                      A                      A                      A
 Frequencies --   3137.3474              3155.4374              3159.2924
 Red. masses --      1.0997                 1.1015                 1.1009
 Frc consts  --      6.3774                 6.4620                 6.4740
 IR Inten    --     14.9816                 2.0315                19.9242

                    106                    107                    108
                      A                      A                      A
 Frequencies --   3169.5507              3248.1118              3262.4227
 Red. masses --      1.1055                 1.0957                 1.0972
 Frc consts  --      6.5435                 6.8106                 6.8806
 IR Inten    --      8.0340                 7.1234                 1.1564

                    109                    110                    111
                      A                      A                      A
 Frequencies --   3264.0938              3293.4599              3478.7051
 Red. masses --      1.0960                 1.0965                 1.0739
 Frc consts  --      6.8802                 7.0076                 7.6569
 IR Inten    --      4.9004                 0.6232                 0.6739

 - Thermochemistry -
 -------------------
 Temperature   298.150 Kelvin.  Pressure   1.00000 Atm.
 Atom     1 has atomic number  6 and mass  12.00000

 Molecular mass:   247.17970 amu.
 Principal axes and moments of inertia in atomic units:
                           1         2         3
     Eigenvalues --  2061.77727********************
           X            0.99996  -0.00732   0.00474
           Y            0.00724   0.99983   0.01688
           Z           -0.00486  -0.01684   0.99985
 This molecule is an asymmetric top.
 Rotational symmetry number  1.
 Warning -- assumption of classical behavior for rotation
           may cause significant error
 Rotational temperatures (Kelvin)      0.04201     0.00725     0.00668
 Rotational constants (GHZ):           0.87533     0.15102     0.13927
 Zero-point vibrational energy     890857.0 (Joules/Mol)
                                  212.91994 (Kcal/Mol)
 Warning -- explicit consideration of  27 degrees of freedom as
           vibrations may cause significant error
 Vibrational temperatures:     23.50    26.01    49.47    55.29    88.02
          (Kelvin)            108.08   140.83   188.34   213.25   276.62
                              293.09   330.30   341.64   396.32   416.70
                              434.69   456.51   470.70   507.96   513.70
                              577.08   590.94   654.57   677.01   736.09
                              864.46   876.82   935.07   939.00   985.01
                             1007.49  1080.07  1098.54  1139.35  1143.84
                             1192.20  1201.74  1253.71  1260.91  1328.97
                             1351.16  1368.40  1413.35  1433.77  1442.71
                             1452.77  1505.93  1515.19  1532.29  1536.40
                             1556.57  1576.26  1624.58  1654.10  1666.90
                             1713.69  1736.07  1758.90  1800.09  1811.18
                             1816.85  1826.69  1883.99  1911.22  1938.59
                             1983.22  1998.70  2023.53  2046.04  2046.83
                             2052.85  2073.06  2084.15  2092.72  2105.39
                             2113.75  2146.69  2155.89  2162.45  2171.82
                             2179.18  2188.65  2190.36  2197.68  2206.50
                             2224.60  2226.68  2236.57  2316.19  2335.13
                             4267.34  4347.15  4385.12  4397.00  4398.32
                             4408.58  4410.46  4444.15  4492.93  4497.79
                             4501.75  4513.36  4513.94  4539.97  4545.52
                             4560.28  4673.31  4693.90  4696.30  4738.55
                             5005.08

 Zero-point correction=                           0.339310 (Hartree/Particle)
 Thermal correction to Energy=                    0.357818
 Thermal correction to Enthalpy=                  0.358762
 Thermal correction to Gibbs Free Energy=         0.289375
 Sum of electronic and zero-point Energies=           -781.474784
 Sum of electronic and thermal Energies=              -781.456276
 Sum of electronic and thermal Enthalpies=            -781.455332
 Sum of electronic and thermal Free Energies=         -781.524718

                     E (Thermal)             CV                S
                      KCal/Mol        Cal/Mol-Kelvin    Cal/Mol-Kelvin
 Total                  224.534             68.903            146.037
 Electronic               0.000              0.000              0.000
 Translational            0.889              2.981             42.415
 Rotational               0.889              2.981             34.123
 Vibrational            222.757             62.942             69.498
 Vibration     1          0.593              1.986              7.037
 Vibration     2          0.593              1.986              6.835
 Vibration     3          0.594              1.983              5.559
 Vibration     4          0.594              1.982              5.338
 Vibration     5          0.597              1.973              4.419
 Vibration     6          0.599              1.966              4.014
 Vibration     7          0.603              1.951              3.496
 Vibration     8          0.612              1.922              2.933
 Vibration     9          0.618              1.905              2.695
 Vibration    10          0.634              1.851              2.206
 Vibration    11          0.639              1.835              2.099
 Vibration    12          0.652              1.796              1.882
 Vibration    13          0.656              1.783              1.822
 Vibration    14          0.677              1.719              1.562
 Vibration    15          0.686              1.693              1.476
 Vibration    16          0.694              1.670              1.405
 Vibration    17          0.704              1.641              1.324
 Vibration    18          0.711              1.621              1.274
 Vibration    19          0.729              1.569              1.153
 Vibration    20          0.732              1.561              1.135
 Vibration    21          0.767              1.468              0.959
 Vibration    22          0.775              1.447              0.924
 Vibration    23          0.813              1.350              0.781
 Vibration    24          0.828              1.315              0.736
 Vibration    25          0.867              1.224              0.630
 Vibration    26          0.959              1.030              0.448
 Vibration    27          0.968              1.012              0.434

                           ! Non-Optimized Parameters !
 Normal termination of Gaussian 16 at Fri Dec 11 21:36:58 2020.

 ----------------------------------------------------------------------
 # B3LYP/6-311++G(d,p) empiricaldispersion=gd3bj scf=xqc pop=npa geom=c
 heck
 ----------------------------------------------------------------------

 --------------------------------------
 CID_61349462_JID_8546_Energie_neutraal
 --------------------------------------
 Structure from the checkpoint file:  "JID_8546.chk"
 Charge =  0 Multiplicity = 1

 SCF Done:  E(RB3LYP) =  -782.025988885     A.U. after   14 cycles
 Normal termination of Gaussian 16 at Fri Dec 11 21:43:59 2020.

 ----------------------------------------------------------------------
 # B3LYP/6-311++G(d,p) empiricaldispersion=gd3bj scf=xqc pop=npa geom=c
 heck
 ----------------------------------------------------------------------

 ------------------------------------
 CID_61349462_JID_8546_Energie_kation
 ------------------------------------
 Structure from the checkpoint file:  "JID_8546.chk"
 Charge =  1 Multiplicity = 2

 SCF Done:  E(UB3LYP) =  -781.742004156     A.U. after   25 cycles
 Normal termination of Gaussian 16 at Fri Dec 11 22:01:50 2020.
 Gaussian 16:  ES64L-G16RevA.03 25-Dec-2016

 ----------------------------------------------------------------------
 # B3LYP/6-311++G(d,p) empiricaldispersion=gd3bj scf=xqc pop=npa geom=c
 heck
 ----------------------------------------------------------------------

 -----------------------------------
 CID_61349462_JID_8546_Energie_anion
 -----------------------------------
 Structure from the checkpoint file:  "JID_8546.chk"
 Charge = -1 Multiplicity = 2

                         Standard orientation:
 ---------------------------------------------------------------------
 Center     Atomic      Atomic             Coordinates (Angstroms)
 Number     Number       Type             X           Y           Z
 ---------------------------------------------------------------------
      1          6           0       -4.563624    1.030637    1.508180
      2          6           0       -4.160686    0.848674    0.036857
      3          6           0       -5.290843    0.172122   -0.753839
      4          6           0       -3.814089    2.202684   -0.588627
      5          7           0       -2.975382   -0.034922   -0.009217
      6          6           0       -1.726149    0.206502   -0.494697
      7          6           0       -0.979188   -0.944144   -0.303739
      8          6           0       -1.881484   -1.834988    0.323331
      9          7           0       -3.082364   -1.286008    0.499681
     10          6           0        0.453950   -1.180203   -0.667483
     11          7           0        1.176478   -1.779938    0.458061
     12          6           0        2.607590   -1.991738    0.197912
     13          6           0        3.425901   -0.751113   -0.048415
     14          6           0        4.071102    0.036518    0.893350
     15          7           0        4.614927    1.093215    0.232737
     16          7           0        4.376753    1.044995   -1.097323
     17          6           0        3.654962   -0.063901   -1.266473
     18          6           0        5.462647    2.138869    0.767265
     19          1           0       -5.461519    1.653885    1.579357
     20          1           0       -3.757659    1.515455    2.069427
     21          1           0       -4.766450    0.059570    1.965135
     22          1           0       -6.198607    0.783673   -0.712730
     23          1           0       -5.002763    0.045957   -1.802903
     24          1           0       -5.505452   -0.813211   -0.334334
     25          1           0       -3.008649    2.705024   -0.042710
     26          1           0       -3.518762    2.098421   -1.637871
     27          1           0       -4.697393    2.846962   -0.551018
     28          1           0       -1.450444    1.151924   -0.934795
     29          1           0       -1.691173   -2.845957    0.657569
     30          1           0        0.529814   -1.887995   -1.506397
     31          1           0        0.900973   -0.234780   -1.022317
     32          1           0        1.072836   -1.165109    1.264752
     33          1           0        3.016387   -2.540219    1.054457
     34          1           0        2.683246   -2.660861   -0.668246
     35          1           0        4.182506   -0.078441    1.962951
     36          1           0        3.321668   -0.339797   -2.259081
     37          1           0        6.519965    1.920980    0.581435
     38          1           0        5.203850    3.083142    0.284545
     39          1           0        5.294225    2.220464    1.843462
 ---------------------------------------------------------------------

 SCF Done:  E(UB3LYP) =  -782.016385997     A.U. after   32 cycles

 The electronic state is 2-A.
 Alpha  occ. eigenvalues --  -14.30479 -14.29818 -14.24180 -14.23889 -14.21566
 Alpha  occ. eigenvalues --  -10.14796 -10.12153 -10.11904 -10.11768 -10.11687
 Alpha  occ. eigenvalues --  -10.11471 -10.10282 -10.09860 -10.08564 -10.08438
 Alpha  occ. eigenvalues --  -10.08273 -10.07994 -10.07857  -0.96430  -0.96129
 Alpha  occ. eigenvalues --   -0.82601  -0.77657  -0.75592  -0.71474  -0.70466
 Alpha  occ. eigenvalues --   -0.68503  -0.63560  -0.61735  -0.61237  -0.60219
 Alpha  occ. eigenvalues --   -0.56149  -0.53008  -0.50223  -0.49610  -0.48374
 Alpha  occ. eigenvalues --   -0.46549  -0.44041  -0.42835  -0.39516  -0.39171
 Alpha  occ. eigenvalues --   -0.38585  -0.37616  -0.36738  -0.36386  -0.35798
 Alpha  occ. eigenvalues --   -0.34868  -0.34461  -0.33062  -0.32686  -0.31639
 Alpha  occ. eigenvalues --   -0.31075  -0.30839  -0.30431  -0.29947  -0.29408
 Alpha  occ. eigenvalues --   -0.29065  -0.28557  -0.27753  -0.26305  -0.26248
 Alpha  occ. eigenvalues --   -0.21094  -0.20508  -0.17124  -0.16948  -0.16423
 Alpha  occ. eigenvalues --   -0.15670  -0.14201   0.03623
 Alpha virt. eigenvalues --    0.04820   0.06696   0.06975   0.07153   0.07690
 Alpha virt. eigenvalues --    0.07806   0.08135   0.08516   0.08971   0.09331
 Alpha virt. eigenvalues --    0.09931   0.10184   0.10276   0.10448   0.11005

  Beta  occ. eigenvalues --  -14.30479 -14.29817 -14.24173 -14.23887 -14.21560
  Beta  occ. eigenvalues --  -10.14795 -10.12099 -10.11900 -10.11742 -10.11678
  Beta  occ. eigenvalues --  -10.11468 -10.10280 -10.09858 -10.08529 -10.08439
  Beta  occ. eigenvalues --  -10.08273 -10.07973 -10.07837  -0.96423  -0.96125
  Beta  occ. eigenvalues --   -0.82592  -0.77649  -0.75574  -0.71464  -0.70452
  Beta  occ. eigenvalues --   -0.68488  -0.63528  -0.61685  -0.61199  -0.60183
  Beta  occ. eigenvalues --   -0.56126  -0.52984  -0.50208  -0.49592  -0.48329
  Beta  occ. eigenvalues --   -0.46526  -0.43991  -0.42803  -0.39492  -0.39146
  Beta  occ. eigenvalues --   -0.38564  -0.37599  -0.36721  -0.36366  -0.35767
  Beta  occ. eigenvalues --   -0.34845  -0.34442  -0.33045  -0.32647  -0.31607
  Beta  occ. eigenvalues --   -0.31054  -0.30811  -0.30403  -0.29924  -0.29385
  Beta  occ. eigenvalues --   -0.29038  -0.28540  -0.27741  -0.26282  -0.26223
  Beta  occ. eigenvalues --   -0.21080  -0.20501  -0.17111  -0.16942  -0.16414
  Beta  occ. eigenvalues --   -0.15665  -0.14194
  Beta virt. eigenvalues --    0.05621   0.06183   0.06889   0.07329   0.07617
  Beta virt. eigenvalues --    0.07986   0.08120   0.08418   0.08637   0.09078
  Beta virt. eigenvalues --    0.09663   0.10001   0.10379   0.10495   0.10696

 Mulliken charges and spin densities:
               1          2
     1  C    0.396227  -0.860283
     2  C   -1.804146   1.484157
     3  C    0.479453  -0.936545
     4  C    0.397497  -0.778507
     5  N    0.543435  -0.093949
     6  C    0.007655   0.414879
     7  C    0.386239  -0.442787
     8  C   -0.474350  -0.107447
     9  N   -0.088943   0.043617
    10  C   -0.189853  -0.661347
    11  N    0.008541   0.080112
    12  C   -0.418690  -0.651249
    13  C    0.639080  -0.031132
    14  C   -0.175297   0.041522
    15  N    0.077273   0.057634
    16  N   -0.367676   0.253366
    17  C    0.016223  -0.324882
    18  C    1.252463  -1.538851
    19  H   -0.053865   0.196354
    20  H   -0.033324   0.191163
    21  H    0.122706   0.046099
    22  H   -0.119232   0.263337
    23  H   -0.009602   0.159813
    24  H    0.131732   0.036282
    25  H   -0.096282   0.248017
    26  H   -0.077713   0.221568
    27  H   -0.500326   0.689515
    28  H    0.004235   0.183943
    29  H    0.130669   0.015459
    30  H    0.136415   0.007850
    31  H    0.075203   0.016388
    32  H    0.111058   0.096210
    33  H    0.134447   0.046888
    34  H    0.123817   0.030092
    35  H   -0.812164   1.001457
    36  H    0.134963   0.007037
    37  H   -0.268623   0.445606
    38  H   -0.177187   0.344889
    39  H   -0.642060   0.803722
 Sum of Mulliken charges =  -1.00000   1.00000

 Dipole moment (field-independent basis, Debye):
    X=             -2.7302    Y=             -5.7822    Z=             -3.5454  Tot=              7.3115
 Quadrupole moment (field-independent basis, Debye-Ang):
   XX=           -250.7139   YY=           -158.0250   ZZ=           -150.1703
   XY=             -7.4656   XZ=            -17.4556   YZ=             -1.5447

 Summary of Natural Population Analysis:

                                       Natural Population
                Natural  -----------------------------------------------
    Atom  No    Charge         Core      Valence    Rydberg      Total
 -----------------------------------------------------------------------
      C    1   -0.28795      0.99961     2.28157    0.00677     3.28795
      C    2    0.06859      0.99958     1.91856    0.01327     2.93141
      C    3   -0.28770      0.99961     2.28131    0.00678     3.28770
      C    4   -0.29313      0.99962     2.28640    0.00711     3.29313
      N    5   -0.11389      0.99963     2.59913    0.01513     3.61389
      C    6   -0.00441      0.99949     1.99455    0.01037     3.00441
      C    7   -0.08003      0.99953     2.07142    0.00909     3.08003
      C    8   -0.00647      0.99958     1.99318    0.01371     3.00647
      N    9   -0.15667      0.99973     2.64623    0.01071     3.65667
      C   10   -0.09455      0.99959     2.08557    0.00939     3.09455
      N   11   -0.33131      0.99976     2.82114    0.01042     3.83131
      C   12   -0.09684      0.99959     2.08518    0.01207     3.09684
      C   13   -0.08837      0.99952     2.07932    0.00952     3.08837
      C   14   -0.00096      0.99949     1.98915    0.01233     3.00096
      N   15   -0.10368      0.99967     2.59072    0.01328     3.60368
      N   16   -0.15281      0.99973     2.64129    0.01179     3.65281
      C   17   -0.01380      0.99957     2.00093    0.01330     3.01380
      C   18   -0.17162      0.99963     2.16354    0.00845     3.17162
      H   19    0.10113      0.00000     0.39802    0.00085     0.39887
      H   20    0.10315      0.00000     0.39597    0.00088     0.39685
      H   21    0.10998      0.00000     0.38889    0.00114     0.39002
      H   22    0.10149      0.00000     0.39765    0.00086     0.39851
      H   23    0.10146      0.00000     0.39773    0.00082     0.39854
      H   24    0.10995      0.00000     0.38893    0.00112     0.39005
      H   25    0.10509      0.00000     0.39367    0.00124     0.39491
      H   26    0.10322      0.00000     0.39561    0.00117     0.39678
      H   27    0.10938      0.00000     0.38928    0.00133     0.39062
      H   28    0.10879      0.00000     0.39009    0.00112     0.39121
      H   29    0.10047      0.00000     0.39858    0.00095     0.39953
      H   30    0.09168      0.00000     0.40714    0.00118     0.40832
      H   31    0.08891      0.00000     0.40849    0.00260     0.41109
      H   32    0.17240      0.00000     0.32471    0.00289     0.32760
      H   33    0.09996      0.00000     0.39912    0.00091     0.40004
      H   34    0.09379      0.00000     0.40518    0.00103     0.40621
      H   35    0.10820      0.00000     0.38968    0.00212     0.39180
      H   36    0.09660      0.00000     0.40250    0.00090     0.40340
      H   37    0.09886      0.00000     0.39968    0.00146     0.40114
      H   38    0.10544      0.00000     0.39296    0.00160     0.39456
      H   39    0.10566      0.00000     0.39097    0.00337     0.39434
 =======================================================================
   * Total *    0.00000     17.99295    48.78405    0.22300    67.00000

 Normal termination of Gaussian 16 at Fri Dec 11 22:25:11 2020.
