 Gaussian 16, Revision A.03,

 -----------------------------------------------------------
 # opt freq B3LYP/6-31G(d) empiricaldispersion=gd3bj scf=xqc
 -----------------------------------------------------------

 ------------------------------
 CID_68614329_JID_6879_neutraal
 ------------------------------
 Symbolic Z-matrix:
 Charge =  0 Multiplicity = 1

 SCF Done:  E(RB3LYP) =  -995.539573210     A.U. after   14 cycles
 SCF Done:  E(RB3LYP) =  -995.542939478     A.U. after   12 cycles
 SCF Done:  E(RB3LYP) =  -995.543707710     A.U. after   12 cycles
 SCF Done:  E(RB3LYP) =  -995.543964772     A.U. after   12 cycles
 SCF Done:  E(RB3LYP) =  -995.544042323     A.U. after   11 cycles
 SCF Done:  E(RB3LYP) =  -995.544076208     A.U. after   11 cycles
 SCF Done:  E(RB3LYP) =  -995.544090769     A.U. after   10 cycles
 SCF Done:  E(RB3LYP) =  -995.544095941     A.U. after    9 cycles
 SCF Done:  E(RB3LYP) =  -995.544107755     A.U. after   11 cycles
 SCF Done:  E(RB3LYP) =  -995.544118461     A.U. after    9 cycles
 SCF Done:  E(RB3LYP) =  -995.544139679     A.U. after   11 cycles
 SCF Done:  E(RB3LYP) =  -995.544145194     A.U. after   10 cycles
 SCF Done:  E(RB3LYP) =  -995.544148180     A.U. after   10 cycles
 SCF Done:  E(RB3LYP) =  -995.544148152     A.U. after    8 cycles
 SCF Done:  E(RB3LYP) =  -995.544148266     A.U. after    7 cycles
 Optimization completed.
    -- Stationary point found.
 Normal termination of Gaussian 16 at Fri Dec 11 01:00:25 2020.

 --------------------------------------------------------------------
 #N Geom=AllCheck Guess=TCheck SCRF=Check GenChk RB3LYP/6-31G(d) Freq
 --------------------------------------------------------------------

 Structure from the checkpoint file:  "JID_6879.chk"
 ------------------------------
 CID_68614329_JID_6879_neutraal
 ------------------------------
 Charge =  0 Multiplicity = 1

 SCF Done:  E(RB3LYP) =  -995.544148266     A.U. after    1 cycles

  Exact polarizability: 270.869   2.575 159.488  -3.689  -2.120  97.944
 Approx polarizability: 367.707   5.903 279.622 -11.951  -0.486 158.294

                      1                      2                      3
                      A                      A                      A
 Frequencies --     34.4266                46.9534                57.1537
 Red. masses --      2.8009                 4.2215                 3.5924
 Frc consts  --      0.0020                 0.0055                 0.0069
 IR Inten    --      1.7536                 1.5395                 0.0487

                      4                      5                      6
                      A                      A                      A
 Frequencies --     87.1345               118.2699               132.5267
 Red. masses --      3.9806                 3.2087                 1.1955
 Frc consts  --      0.0178                 0.0264                 0.0124
 IR Inten    --      0.4278                 0.0261                 0.6738

                      7                      8                      9
                      A                      A                      A
 Frequencies --    155.5563               196.2320               206.9512
 Red. masses --      1.2465                 3.8941                 2.6271
 Frc consts  --      0.0178                 0.0883                 0.0663
 IR Inten    --      0.8408                 0.9891                 0.3168

                     10                     11                     12
                      A                      A                      A
 Frequencies --    237.9251               258.6894               275.9163
 Red. masses --      6.1839                 3.9891                 4.8700
 Frc consts  --      0.2062                 0.1573                 0.2184
 IR Inten    --      0.7324                 0.7379                 2.4332

                     13                     14                     15
                      A                      A                      A
 Frequencies --    302.4558               360.9856               377.0414
 Red. masses --      3.3373                 1.3308                 2.9617
 Frc consts  --      0.1799                 0.1022                 0.2481
 IR Inten    --      5.0537                35.2953                15.3745

                     16                     17                     18
                      A                      A                      A
 Frequencies --    397.6816               449.7203               468.2032
 Red. masses --      3.5181                 3.4368                 3.0036
 Frc consts  --      0.3278                 0.4095                 0.3879
 IR Inten    --      1.7675                 4.6747                 2.6167

                     19                     20                     21
                      A                      A                      A
 Frequencies --    494.8575               508.6438               552.5772
 Red. masses --      4.8194                 3.0523                 4.7114
 Frc consts  --      0.6954                 0.4653                 0.8476
 IR Inten    --      1.4152                19.1450                 0.9390

                     22                     23                     24
                      A                      A                      A
 Frequencies --    564.4792               578.2184               620.7586
 Red. masses --      4.6985                 5.3705                 3.7878
 Frc consts  --      0.8821                 1.0579                 0.8600
 IR Inten    --      4.9799                 6.4829                10.0974

                     25                     26                     27
                      A                      A                      A
 Frequencies --    655.7341               668.5872               703.2357
 Red. masses --      1.7009                 3.7609                 6.1097
 Frc consts  --      0.4309                 0.9905                 1.7802
 IR Inten    --    154.8938                54.2694                 1.0548

                     28                     29                     30
                      A                      A                      A
 Frequencies --    725.4997               736.0463               759.7555
 Red. masses --      5.4040                 3.9822                 3.6122
 Frc consts  --      1.6759                 1.2711                 1.2285
 IR Inten    --      2.7795                 0.8005                14.3267

                     31                     32                     33
                      A                      A                      A
 Frequencies --    764.5448               842.2260               852.9952
 Red. masses --      1.3128                 2.4817                 1.6605
 Frc consts  --      0.4521                 1.0372                 0.7118
 IR Inten    --     59.7035                 6.5724                 7.7855

                     34                     35                     36
                      A                      A                      A
 Frequencies --    863.5719               900.0938               925.3202
 Red. masses --      1.6210                 4.6216                 1.3264
 Frc consts  --      0.7122                 2.2060                 0.6691
 IR Inten    --      8.1436                 4.2239                 6.7994

                     37                     38                     39
                      A                      A                      A
 Frequencies --    939.8397               966.1218               970.8791
 Red. masses --      1.3611                 1.2353                 1.3005
 Frc consts  --      0.7083                 0.6793                 0.7223
 IR Inten    --      1.6583                 0.0201                 0.0342

                     40                     41                     42
                      A                      A                      A
 Frequencies --    987.6157              1007.4394              1023.2905
 Red. masses --      1.1812                 1.3058                 1.6732
 Frc consts  --      0.6788                 0.7808                 1.0323
 IR Inten    --      4.9603                30.1791                 1.2756

                     43                     44                     45
                      A                      A                      A
 Frequencies --   1059.5254              1073.9858              1075.1759
 Red. masses --      2.6791                 4.1577                 1.5490
 Frc consts  --      1.7720                 2.8255                 1.0550
 IR Inten    --      0.3324                 9.4856                 5.6439

                     46                     47                     48
                      A                      A                      A
 Frequencies --   1086.2957              1103.9794              1177.5892
 Red. masses --      2.2189                 1.7525                 1.5118
 Frc consts  --      1.5427                 1.2585                 1.2352
 IR Inten    --      2.0757                 6.1164                 1.1933

                     49                     50                     51
                      A                      A                      A
 Frequencies --   1180.2066              1196.2799              1222.8603
 Red. masses --      1.2661                 1.0955                 1.9155
 Frc consts  --      1.0391                 0.9237                 1.6877
 IR Inten    --      3.8785                 6.5740                 0.7936

                     52                     53                     54
                      A                      A                      A
 Frequencies --   1291.8684              1300.5619              1323.9668
 Red. masses --      2.4144                 1.9656                 2.8277
 Frc consts  --      2.3741                 1.9588                 2.9203
 IR Inten    --      7.4786                 1.3671                10.9749

                     55                     56                     57
                      A                      A                      A
 Frequencies --   1338.8829              1345.0911              1371.4796
 Red. masses --      3.4711                 2.1039                 3.2226
 Frc consts  --      3.6661                 2.2428                 3.5714
 IR Inten    --      3.7350                28.0028                 8.2960

                     58                     59                     60
                      A                      A                      A
 Frequencies --   1383.4208              1434.1088              1443.7237
 Red. masses --      1.1583                 2.6007                 1.3192
 Frc consts  --      1.3061                 3.1515                 1.6200
 IR Inten    --      6.3054                 7.0361                 3.8359

                     61                     62                     63
                      A                      A                      A
 Frequencies --   1495.6634              1505.6286              1510.6451
 Red. masses --      1.0595                 2.2356                 1.1142
 Frc consts  --      1.3964                 2.9859                 1.4981
 IR Inten    --      5.2863                29.7585                 0.4245

                     64                     65                     66
                      A                      A                      A
 Frequencies --   1513.2485              1516.2619              1535.9601
 Red. masses --      1.3974                 1.2919                 1.3762
 Frc consts  --      1.8853                 1.7499                 1.9129
 IR Inten    --     16.9026                 8.3831                32.0887

                     67                     68                     69
                      A                      A                      A
 Frequencies --   1551.1282              1602.7987              1636.8006
 Red. masses --      2.4838                 6.2225                 5.5228
 Frc consts  --      3.5210                 9.4183                 8.7177
 IR Inten    --     22.3374                 4.0474                 8.0463

                     70                     71                     72
                      A                      A                      A
 Frequencies --   1655.1314              1665.1867              1691.7081
 Red. masses --      5.5088                 3.8413                 1.2899
 Frc consts  --      8.8914                 6.2756                 2.1750
 IR Inten    --     16.0305                15.0572               103.0911

                     73                     74                     75
                      A                      A                      A
 Frequencies --   3048.1731              3069.2029              3106.7402
 Red. masses --      1.0419                 1.0291                 1.0930
 Frc consts  --      5.7040                 5.7115                 6.2154
 IR Inten    --     21.6375                35.1267                18.7223

                     76                     77                     78
                      A                      A                      A
 Frequencies --   3139.5360              3157.2568              3158.6922
 Red. masses --      1.1031                 1.1056                 1.1070
 Frc consts  --      6.4063                 6.4936                 6.5076
 IR Inten    --      9.8273                11.4377                 9.3706

                     79                     80                     81
                      A                      A                      A
 Frequencies --   3171.3657              3187.0887              3194.7330
 Red. masses --      1.0872                 1.0870                 1.0901
 Frc consts  --      6.4425                 6.5051                 6.5554
 IR Inten    --     14.8564                 1.6863                29.9868

                     82                     83                     84
                      A                      A                      A
 Frequencies --   3196.7174              3197.2076              3212.5027
 Red. masses --      1.0897                 1.0898                 1.0957
 Frc consts  --      6.5611                 6.5635                 6.6626
 IR Inten    --      3.8428                 7.1057                12.6069

                     85                     86                     87
                      A                      A                      A
 Frequencies --   3213.4454              3539.7798              3640.6772
 Red. masses --      1.0958                 1.0478                 1.0981
 Frc consts  --      6.6670                 7.7356                 8.5754
 IR Inten    --     25.4432                11.6725                16.7063

 - Thermochemistry -
 -------------------
 Temperature   298.150 Kelvin.  Pressure   1.00000 Atm.
 Atom     1 has atomic number  6 and mass  12.00000

 Molecular mass:   229.09252 amu.
 Principal axes and moments of inertia in atomic units:
                           1         2         3
     Eigenvalues --  1409.508718003.379068751.72449
           X            0.99994   0.00188   0.01094
           Y           -0.00185   1.00000  -0.00218
           Z           -0.01095   0.00216   0.99994
 This molecule is an asymmetric top.
 Rotational symmetry number  1.
 Warning -- assumption of classical behavior for rotation
           may cause significant error
 Rotational temperatures (Kelvin)      0.06145     0.01082     0.00990
 Rotational constants (GHZ):           1.28040     0.22550     0.20622
 Zero-point vibrational energy     671693.8 (Joules/Mol)
                                  160.53867 (Kcal/Mol)
 Warning -- explicit consideration of  24 degrees of freedom as
           vibrations may cause significant error
 Vibrational temperatures:     49.53    67.56    82.23   125.37   170.16
          (Kelvin)            190.68   223.81   282.33   297.76   342.32
                              372.20   396.98   435.17   519.38   542.48
                              572.18   647.05   673.64   711.99   731.82
                              795.04   812.16   831.93   893.13   943.46
                              961.95  1011.80  1043.83  1059.01  1093.12
                             1100.01  1211.78  1227.27  1242.49  1295.03
                             1331.33  1352.22  1390.03  1396.88  1420.96
                             1449.48  1472.29  1524.42  1545.23  1546.94
                             1562.94  1588.38  1694.29  1698.05  1721.18
                             1759.42  1858.71  1871.22  1904.89  1926.35
                             1935.29  1973.25  1990.43  2063.36  2077.20
                             2151.93  2166.26  2173.48  2177.23  2181.56
                             2209.90  2231.73  2306.07  2354.99  2381.36
                             2395.83  2433.99  4385.64  4415.90  4469.91
                             4517.09  4542.59  4544.65  4562.89  4585.51
                             4596.51  4599.36  4600.07  4622.07  4623.43
                             5092.95  5238.12

 Zero-point correction=                           0.255835 (Hartree/Particle)
 Thermal correction to Energy=                    0.271184
 Thermal correction to Enthalpy=                  0.272128
 Thermal correction to Gibbs Free Energy=         0.212537
 Sum of electronic and zero-point Energies=           -995.288314
 Sum of electronic and thermal Energies=              -995.272965
 Sum of electronic and thermal Enthalpies=            -995.272020
 Sum of electronic and thermal Free Energies=         -995.331612

                     E (Thermal)             CV                S
                      KCal/Mol        Cal/Mol-Kelvin    Cal/Mol-Kelvin
 Total                  170.170             59.036            125.420
 Electronic               0.000              0.000              0.000
 Translational            0.889              2.981             42.189
 Rotational               0.889              2.981             32.957
 Vibrational            168.393             53.075             50.275
 Vibration     1          0.594              1.983              5.556
 Vibration     2          0.595              1.979              4.942
 Vibration     3          0.596              1.975              4.553
 Vibration     4          0.601              1.958              3.723
 Vibration     5          0.608              1.934              3.128
 Vibration     6          0.613              1.921              2.909
 Vibration     7          0.620              1.896              2.603
 Vibration     8          0.636              1.845              2.168
 Vibration     9          0.641              1.830              2.070
 Vibration    10          0.656              1.783              1.818
 Vibration    11          0.668              1.748              1.671
 Vibration    12          0.678              1.718              1.559
 Vibration    13          0.694              1.669              1.403
 Vibration    14          0.735              1.553              1.118
 Vibration    15          0.748              1.519              1.051
 Vibration    16          0.764              1.475              0.971
 Vibration    17          0.809              1.362              0.797
 Vibration    18          0.825              1.321              0.743
 Vibration    19          0.850              1.261              0.671
 Vibration    20          0.864              1.231              0.637
 Vibration    21          0.908              1.134              0.539
 Vibration    22          0.920              1.108              0.515
 Vibration    23          0.935              1.078              0.489
 Vibration    24          0.981              0.988              0.415

 Optimization completed.
    -- Stationary point found.
 Normal termination of Gaussian 16 at Fri Dec 11 01:10:01 2020.

 ----------------------------------------------------------------------
 # B3LYP/6-311++G(d,p) empiricaldispersion=gd3bj scf=xqc pop=npa geom=c
 heck
 ----------------------------------------------------------------------

 --------------------------------------
 CID_68614329_JID_6879_Energie_neutraal
 --------------------------------------
 Structure from the checkpoint file:  "JID_6879.chk"
 Charge =  0 Multiplicity = 1

 SCF Done:  E(RB3LYP) =  -995.729625375     A.U. after   17 cycles
 Normal termination of Gaussian 16 at Fri Dec 11 01:14:30 2020.

 ----------------------------------------------------------------------
 # B3LYP/6-311++G(d,p) empiricaldispersion=gd3bj scf=xqc pop=npa geom=c
 heck
 ----------------------------------------------------------------------

 ------------------------------------
 CID_68614329_JID_6879_Energie_kation
 ------------------------------------
 Structure from the checkpoint file:  "JID_6879.chk"
 Charge =  1 Multiplicity = 2

 SCF Done:  E(UB3LYP) =  -995.460905530     A.U. after   28 cycles
 Normal termination of Gaussian 16 at Fri Dec 11 01:24:28 2020.
 Gaussian 16:  ES64L-G16RevA.03 25-Dec-2016

 ----------------------------------------------------------------------
 # B3LYP/6-311++G(d,p) empiricaldispersion=gd3bj scf=xqc pop=npa geom=c
 heck
 ----------------------------------------------------------------------

 -----------------------------------
 CID_68614329_JID_6879_Energie_anion
 -----------------------------------
 Structure from the checkpoint file:  "JID_6879.chk"
 Charge = -1 Multiplicity = 2

                         Standard orientation:
 ---------------------------------------------------------------------
 Center     Atomic      Atomic             Coordinates (Angstroms)
 Number     Number       Type             X           Y           Z
 ---------------------------------------------------------------------
      1          6           0        2.379076    2.028095    0.822433
      2          6           0        1.618286    0.851418    0.266015
      3          6           0        2.263302   -0.234382   -0.361781
      4          6           0        1.502885   -1.298943   -0.860910
      5          6           0        0.117073   -1.306219   -0.744032
      6          6           0       -0.548884   -0.244778   -0.113667
      7          6           0        0.224735    0.817210    0.380897
      8          6           0       -2.024502   -0.272985    0.044609
      9          6           0       -2.643608   -1.440396    0.513393
     10          6           0       -4.022954   -1.531272    0.675993
     11          6           0       -4.814585   -0.426803    0.357420
     12          6           0       -4.228201    0.740069   -0.119469
     13          6           0       -2.837402    0.839256   -0.285698
     14          7           0       -2.284360    2.039106   -0.745417
     15         16           0        4.039866   -0.279282   -0.608583
     16          6           0        4.616761   -0.667071    1.087424
     17          1           0        2.834276    1.789222    1.792108
     18          1           0        3.191172    2.326866    0.153176
     19          1           0        1.713440    2.882156    0.978146
     20          1           0        2.012892   -2.122215   -1.351222
     21          1           0       -0.458447   -2.130983   -1.153594
     22          1           0       -0.276704    1.641592    0.879558
     23          1           0       -2.011909   -2.285481    0.772731
     24          1           0       -4.471526   -2.445724    1.051367
     25          1           0       -5.893664   -0.472277    0.476356
     26          1           0       -4.848638    1.596463   -0.374265
     27          1           0       -1.385522    1.941271   -1.202685
     28          1           0       -2.922911    2.600310   -1.295940
     29          1           0        4.388881    0.142163    1.784999
     30          1           0        4.167769   -1.598384    1.440432
     31          1           0        5.701658   -0.789396    1.028319
 ---------------------------------------------------------------------

 SCF Done:  E(UB3LYP) =  -995.724836659     A.U. after   33 cycles
 SCF Done:  E(UB3LYP) =  -995.724836659     a.u. after    1 cycles

 The electronic state is 2-A.
 Alpha  occ. eigenvalues --  -88.71546 -14.21057 -10.09770 -10.06769 -10.05940
 Alpha  occ. eigenvalues --  -10.05719 -10.05392 -10.05333 -10.05291 -10.05145
 Alpha  occ. eigenvalues --  -10.05081 -10.04965 -10.04610 -10.04364 -10.04111
 Alpha  occ. eigenvalues --  -10.04062  -7.80089  -5.76483  -5.76126  -5.75478
 Alpha  occ. eigenvalues --   -0.81273  -0.74015  -0.72325  -0.67568  -0.64916
 Alpha  occ. eigenvalues --   -0.63619  -0.61633  -0.59515  -0.56752  -0.52497
 Alpha  occ. eigenvalues --   -0.49860  -0.48382  -0.46978  -0.44195  -0.40943
 Alpha  occ. eigenvalues --   -0.40108  -0.37388  -0.35011  -0.34746  -0.32635
 Alpha  occ. eigenvalues --   -0.31651  -0.31356  -0.31284  -0.30545  -0.29971
 Alpha  occ. eigenvalues --   -0.28958  -0.28138  -0.27261  -0.26753  -0.25485
 Alpha  occ. eigenvalues --   -0.24562  -0.23330  -0.22020  -0.21786  -0.20433
 Alpha  occ. eigenvalues --   -0.19153  -0.15164  -0.12789  -0.12137  -0.10540
 Alpha  occ. eigenvalues --   -0.09247   0.04759
 Alpha virt. eigenvalues --    0.06979   0.07523   0.08095   0.09020   0.09332
 Alpha virt. eigenvalues --    0.10127   0.10309   0.10448   0.11183   0.11456
 Alpha virt. eigenvalues --    0.11656   0.12212   0.12336   0.12840   0.13132

  Beta  occ. eigenvalues --  -88.71544 -14.21051 -10.09724 -10.06625 -10.05724
  Beta  occ. eigenvalues --  -10.05662 -10.05377 -10.05275 -10.05203 -10.05112
  Beta  occ. eigenvalues --  -10.05078 -10.04855 -10.04588 -10.04139 -10.04082
  Beta  occ. eigenvalues --  -10.04008  -7.80085  -5.76468  -5.76133  -5.75473
  Beta  occ. eigenvalues --   -0.81206  -0.73734  -0.72147  -0.67230  -0.64721
  Beta  occ. eigenvalues --   -0.63382  -0.61495  -0.59274  -0.56585  -0.52201
  Beta  occ. eigenvalues --   -0.49733  -0.48242  -0.46892  -0.43945  -0.40858
  Beta  occ. eigenvalues --   -0.40030  -0.37266  -0.34909  -0.34602  -0.32479
  Beta  occ. eigenvalues --   -0.31533  -0.31263  -0.31143  -0.30425  -0.29787
  Beta  occ. eigenvalues --   -0.28860  -0.28032  -0.26965  -0.26660  -0.25229
  Beta  occ. eigenvalues --   -0.24328  -0.22976  -0.21834  -0.21561  -0.20096
  Beta  occ. eigenvalues --   -0.18905  -0.14270  -0.12205  -0.11487  -0.10373
  Beta  occ. eigenvalues --   -0.08726
  Beta virt. eigenvalues --    0.06922   0.07805   0.08031   0.08882   0.09210
  Beta virt. eigenvalues --    0.09461   0.10253   0.10337   0.10754   0.11233
  Beta virt. eigenvalues --    0.11550   0.12005   0.12330   0.12767   0.13051

 Mulliken charges and spin densities:
               1          2
     1  C   -0.394928  -0.034497
     2  C   -0.064002   0.208238
     3  C    1.237927   0.308364
     4  C   -0.846264  -0.092595
     5  C   -0.626424   0.141395
     6  C    1.472464   0.076070
     7  C   -0.932430  -0.208695
     8  C    1.295636  -0.025589
     9  C   -0.419811   0.040860
    10  C   -0.371401  -0.011361
    11  C   -0.346420   0.131157
    12  C   -0.485944   0.014697
    13  C   -1.097211   0.057687
    14  N   -0.276571   0.005533
    15  S   -0.619317   0.202987
    16  C    0.379321  -1.053363
    17  H    0.096460   0.066977
    18  H    0.144575   0.010967
    19  H    0.054927   0.070489
    20  H    0.156218   0.004554
    21  H    0.127059   0.020522
    22  H    0.170411  -0.000312
    23  H    0.139038  -0.006408
    24  H    0.123685   0.002916
    25  H    0.109140  -0.009633
    26  H    0.075455   0.025650
    27  H    0.267128  -0.010078
    28  H    0.191042   0.030604
    29  H   -0.170142   0.317979
    30  H   -0.001450   0.173763
    31  H   -0.388173   0.541123
 Sum of Mulliken charges =  -1.00000   1.00000

 Dipole moment (field-independent basis, Debye):
    X=             -5.9069    Y=              1.4912    Z=             -1.9219  Tot=              6.3882
 Quadrupole moment (field-independent basis, Debye-Ang):
   XX=           -193.0522   YY=           -115.7127   ZZ=           -122.1052
   XY=              0.6422   XZ=             -3.8426   YZ=             -2.8907

 Summary of Natural Population Analysis:

                                       Natural Population
                Natural  -----------------------------------------------
    Atom  No    Charge         Core      Valence    Rydberg      Total
 -----------------------------------------------------------------------
      C    1   -0.29389      0.99963     2.28935    0.00491     3.29389
      C    2   -0.01355      0.99945     2.00347    0.01063     3.01355
      C    3   -0.05832      0.99934     2.04534    0.01364     3.05832
      C    4   -0.09487      0.99951     2.08573    0.00963     3.09487
      C    5   -0.09319      0.99953     2.08599    0.00767     3.09319
      C    6    0.01302      0.99950     1.97842    0.00906     2.98698
      C    7   -0.10162      0.99948     2.09433    0.00780     3.10162
      C    8   -0.03544      0.99946     2.02577    0.01020     3.03544
      C    9   -0.06689      0.99954     2.05940    0.00795     3.06689
      C   10   -0.13681      0.99957     2.12745    0.00980     3.13681
      C   11   -0.07181      0.99958     2.06272    0.00951     3.07181
      C   12   -0.13219      0.99953     2.12349    0.00917     3.13219
      C   13    0.09796      0.99946     1.89279    0.00979     2.90204
      N   14   -0.40046      0.99971     2.89215    0.00860     3.90046
      S   15    0.08643      4.99957     2.89120    0.02280     7.91357
      C   16   -0.33639      0.99962     2.33038    0.00639     3.33639
      H   17    0.10144      0.00000     0.39702    0.00154     0.39856
      H   18    0.10740      0.00000     0.39104    0.00156     0.39260
      H   19    0.09684      0.00000     0.40225    0.00091     0.40316
      H   20    0.09842      0.00000     0.40036    0.00122     0.40158
      H   21    0.09575      0.00000     0.40291    0.00134     0.40425
      H   22    0.09907      0.00000     0.39900    0.00193     0.40093
      H   23    0.09706      0.00000     0.40162    0.00132     0.40294
      H   24    0.09338      0.00000     0.40559    0.00103     0.40662
      H   25    0.08992      0.00000     0.40900    0.00108     0.41008
      H   26    0.08977      0.00000     0.40868    0.00155     0.41023
      H   27    0.19188      0.00000     0.30653    0.00159     0.30812
      H   28    0.17738      0.00000     0.32095    0.00166     0.32262
      H   29    0.09765      0.00000     0.40064    0.00171     0.40235
      H   30    0.09883      0.00000     0.39971    0.00145     0.40117
      H   31    0.10323      0.00000     0.39430    0.00247     0.39677
 =======================================================================
   * Total *    0.00000     19.99249    40.82759    0.17992    61.00000

 Normal termination of Gaussian 16 at Fri Dec 11 01:35:56 2020.
