 Gaussian 16, Revision A.03,

 -----------------------------------------------------------
 # opt freq B3LYP/6-31G(d) empiricaldispersion=gd3bj scf=xqc
 -----------------------------------------------------------

 -------------------------------
 CID_107778270_JID_9204_neutraal
 -------------------------------
 Symbolic Z-matrix:
 Charge =  0 Multiplicity = 1

 SCF Done:  E(RB3LYP) =  -1300.14852049     A.U. after   14 cycles
 SCF Done:  E(RB3LYP) =  -1300.15759340     A.U. after   12 cycles
 SCF Done:  E(RB3LYP) =  -1300.15906289     A.U. after   12 cycles
 SCF Done:  E(RB3LYP) =  -1300.15958044     A.U. after   13 cycles
 SCF Done:  E(RB3LYP) =  -1300.16040345     A.U. after   12 cycles
 SCF Done:  E(RB3LYP) =  -1300.16109235     A.U. after   13 cycles
 SCF Done:  E(RB3LYP) =  -1300.16200514     A.U. after   15 cycles
 SCF Done:  E(RB3LYP) =  -1300.16255533     A.U. after   12 cycles
 SCF Done:  E(RB3LYP) =  -1300.16273446     A.U. after   12 cycles
 SCF Done:  E(RB3LYP) =  -1300.16298412     A.U. after   12 cycles
 SCF Done:  E(RB3LYP) =  -1300.16476053     A.U. after    8 cycles
 SCF Done:  E(RB3LYP) =  -1300.16476055     A.U. after    7 cycles
 SCF Done:  E(RB3LYP) =  -1300.16476055     A.U. after    7 cycles
 SCF Done:  E(RB3LYP) =  -1300.16476053     A.U. after    7 cycles
 SCF Done:  E(RB3LYP) =  -1300.16476052     A.U. after    6 cycles
 Optimization completed.
    -- Stationary point found.
 Normal termination of Gaussian 16 at Sat Dec 12 09:46:02 2020.

 --------------------------------------------------------------------
 #N Geom=AllCheck Guess=TCheck SCRF=Check GenChk RB3LYP/6-31G(d) Freq
 --------------------------------------------------------------------

 Structure from the checkpoint file:  "JID_9204.chk"
 -------------------------------
 CID_107778270_JID_9204_neutraal
 -------------------------------
 Charge =  0 Multiplicity = 1

 SCF Done:  E(RB3LYP) =  -1300.16476052     A.U. after    1 cycles

  Exact polarizability: 190.058  -2.578 147.562   2.794   0.671 147.881
 Approx polarizability: 227.326   0.473 223.335   6.276   8.320 233.504

                      1                      2                      3
                      A                      A                      A
 Frequencies --     10.6027                18.3806                26.4617
 Red. masses --      4.7889                 4.3887                 4.6544
 Frc consts  --      0.0003                 0.0009                 0.0019
 IR Inten    --      0.6226                 0.9064                 1.0891

                      4                      5                      6
                      A                      A                      A
 Frequencies --     49.2835                61.2396                65.0410
 Red. masses --      5.8677                 3.5160                 3.4144
 Frc consts  --      0.0084                 0.0078                 0.0085
 IR Inten    --      0.4831                 0.4104                 1.4084

                      7                      8                      9
                      A                      A                      A
 Frequencies --     69.6589               111.0243               120.0820
 Red. masses --      3.7028                 2.3706                 3.8797
 Frc consts  --      0.0106                 0.0172                 0.0330
 IR Inten    --      1.0578                 3.5379                 0.6108

                     10                     11                     12
                      A                      A                      A
 Frequencies --    131.6530               146.1929               152.3510
 Red. masses --      1.2809                 3.3652                 2.6771
 Frc consts  --      0.0131                 0.0424                 0.0366
 IR Inten    --      0.6183                 4.0682                 2.4118

                     13                     14                     15
                      A                      A                      A
 Frequencies --    167.8599               193.8764               193.9658
 Red. masses --      2.6820                 3.5219                 3.8022
 Frc consts  --      0.0445                 0.0780                 0.0843
 IR Inten    --      1.9744                 2.0535                 8.0059

                     16                     17                     18
                      A                      A                      A
 Frequencies --    204.1366               222.2125               238.4408
 Red. masses --      2.5583                 1.6055                 3.2919
 Frc consts  --      0.0628                 0.0467                 0.1103
 IR Inten    --      1.1288                 2.1906                 3.4771

                     19                     20                     21
                      A                      A                      A
 Frequencies --    248.9081               287.9235               297.3073
 Red. masses --      1.5353                 3.5214                 3.2057
 Frc consts  --      0.0560                 0.1720                 0.1669
 IR Inten    --      2.5418                 6.6302                 9.9177

                     22                     23                     24
                      A                      A                      A
 Frequencies --    309.2657               312.7490               321.6258
 Red. masses --      2.6412                 3.4019                 2.5655
 Frc consts  --      0.1488                 0.1960                 0.1564
 IR Inten    --      3.6546                17.4614                 2.7305

                     25                     26                     27
                      A                      A                      A
 Frequencies --    343.9298               375.0437               386.5906
 Red. masses --      3.3929                 2.0861                 3.7876
 Frc consts  --      0.2365                 0.1729                 0.3335
 IR Inten    --      3.4010                 5.3218                 5.4969

                     28                     29                     30
                      A                      A                      A
 Frequencies --    388.8403               465.8160               479.5774
 Red. masses --      2.8022                 3.1565                 4.8134
 Frc consts  --      0.2496                 0.4035                 0.6523
 IR Inten    --      1.0743                21.9200                33.3485

                     31                     32                     33
                      A                      A                      A
 Frequencies --    521.9147               535.8851               589.0859
 Red. masses --      3.7528                 3.3128                 3.2012
 Frc consts  --      0.6023                 0.5605                 0.6545
 IR Inten    --     27.4094                 1.4106                 5.7246

                     34                     35                     36
                      A                      A                      A
 Frequencies --    625.5587               710.5049               713.6637
 Red. masses --      3.8723                 4.0664                 3.7178
 Frc consts  --      0.8928                 1.2095                 1.1157
 IR Inten    --     11.8311                19.6749                 1.9206

                     37                     38                     39
                      A                      A                      A
 Frequencies --    777.8939               788.8985               794.7501
 Red. masses --      2.9046                 1.7313                 2.5541
 Frc consts  --      1.0356                 0.6349                 0.9505
 IR Inten    --      8.5780                 3.3811                45.2831

                     40                     41                     42
                      A                      A                      A
 Frequencies --    807.1806               869.2112               900.0606
 Red. masses --      1.5030                 2.9608                 2.2143
 Frc consts  --      0.5770                 1.3180                 1.0569
 IR Inten    --      2.7552                16.2616                76.5069

                     43                     44                     45
                      A                      A                      A
 Frequencies --    903.0824               916.2398               937.3192
 Red. masses --      2.6808                 1.8538                 2.6571
 Frc consts  --      1.2881                 0.9169                 1.3754
 IR Inten    --      8.4266                43.5654                14.1877

                     46                     47                     48
                      A                      A                      A
 Frequencies --    958.4186               961.7812               975.4013
 Red. masses --      1.5772                 1.6216                 1.4424
 Frc consts  --      0.8536                 0.8838                 0.8086
 IR Inten    --      2.3465                10.3209                 4.4139

                     49                     50                     51
                      A                      A                      A
 Frequencies --    999.7647              1023.3095              1027.6586
 Red. masses --      2.8719                 2.2467                 2.4285
 Frc consts  --      1.6913                 1.3861                 1.5111
 IR Inten    --     24.2153                15.8719                11.1176

                     52                     53                     54
                      A                      A                      A
 Frequencies --   1051.8361              1053.4027              1070.3084
 Red. masses --      2.8397                 3.0315                 1.4676
 Frc consts  --      1.8510                 1.9820                 0.9906
 IR Inten    --     95.4285                 1.2410                 0.9733

                     55                     56                     57
                      A                      A                      A
 Frequencies --   1091.7632              1093.9543              1109.4182
 Red. masses --      1.8414                 1.7894                 3.4019
 Frc consts  --      1.2932                 1.2617                 2.4670
 IR Inten    --     48.7642                42.0532                59.3710

                     58                     59                     60
                      A                      A                      A
 Frequencies --   1146.7510              1166.2889              1174.0851
 Red. masses --      1.5808                 3.3579                 1.8231
 Frc consts  --      1.2248                 2.6911                 1.4807
 IR Inten    --     41.6773               118.9770                42.8825

                     61                     62                     63
                      A                      A                      A
 Frequencies --   1180.9939              1186.4831              1200.9528
 Red. masses --      1.4277                 1.2745                 1.3758
 Frc consts  --      1.1732                 1.0571                 1.1691
 IR Inten    --      5.8471                 0.8473                11.3747

                     64                     65                     66
                      A                      A                      A
 Frequencies --   1204.1665              1208.0058              1212.8400
 Red. masses --      1.3762                 1.3678                 1.7117
 Frc consts  --      1.1757                 1.1760                 1.4835
 IR Inten    --      0.0832                18.9606               124.9917

                     67                     68                     69
                      A                      A                      A
 Frequencies --   1216.2611              1224.6718              1250.5057
 Red. masses --      1.6772                 1.5343                 2.1072
 Frc consts  --      1.4618                 1.3558                 1.9415
 IR Inten    --     39.6599                58.9567               214.9527

                     70                     71                     72
                      A                      A                      A
 Frequencies --   1258.4012              1265.0415              1281.8232
 Red. masses --      1.9064                 1.8853                 1.4385
 Frc consts  --      1.7787                 1.7777                 1.3926
 IR Inten    --     20.8105                48.2133               102.8604

                     73                     74                     75
                      A                      A                      A
 Frequencies --   1305.4692              1320.9486              1354.0342
 Red. masses --      1.5358                 1.5962                 2.3912
 Frc consts  --      1.5421                 1.6410                 2.5830
 IR Inten    --     23.1810                46.2660                19.7242

                     76                     77                     78
                      A                      A                      A
 Frequencies --   1362.0293              1379.5501              1409.6025
 Red. masses --      1.5082                 1.8753                 1.3397
 Frc consts  --      1.6485                 2.1028                 1.5684
 IR Inten    --      9.3702                37.1486                15.2386

                     79                     80                     81
                      A                      A                      A
 Frequencies --   1420.8591              1424.1407              1472.1032
 Red. masses --      1.8698                 1.3597                 1.1251
 Frc consts  --      2.2241                 1.6248                 1.4366
 IR Inten    --     53.0482                17.9022                21.5437

                     82                     83                     84
                      A                      A                      A
 Frequencies --   1478.5919              1482.7859              1485.5240
 Red. masses --      1.1048                 1.1249                 1.1529
 Frc consts  --      1.4230                 1.4573                 1.4990
 IR Inten    --     11.0777                 9.3481                 6.0661

                     85                     86                     87
                      A                      A                      A
 Frequencies --   1494.1831              1496.2956              1501.9924
 Red. masses --      1.2227                 1.1062                 1.1705
 Frc consts  --      1.6084                 1.4592                 1.5558
 IR Inten    --     12.1065                 1.5809                 5.3607

                     88                     89                     90
                      A                      A                      A
 Frequencies --   1512.6886              1513.1839              1515.4840
 Red. masses --      1.1906                 1.0479                 1.0531
 Frc consts  --      1.6051                 1.4136                 1.4250
 IR Inten    --      5.7847                 5.8614                 8.5059

                     91                     92                     93
                      A                      A                      A
 Frequencies --   1525.0830              1525.8536              1532.5112
 Red. masses --      1.0477                 1.0669                 1.1133
 Frc consts  --      1.4357                 1.4635                 1.5406
 IR Inten    --      8.8142                 0.0273                16.4290

                     94                     95                     96
                      A                      A                      A
 Frequencies --   1533.2865              1545.9953              1554.7830
 Red. masses --      1.2481                 1.0510                 1.0867
 Frc consts  --      1.7288                 1.4800                 1.5478
 IR Inten    --      2.9832                 5.7891                 5.9992

                     97                     98                     99
                      A                      A                      A
 Frequencies --   1819.9463              2972.0461              2984.2256
 Red. masses --     10.8802                 1.0583                 1.0525
 Frc consts  --     21.2327                 5.5077                 5.5223
 IR Inten    --    168.1544                66.8932                52.4579

                    100                    101                    102
                      A                      A                      A
 Frequencies --   3001.2830              3017.6751              3047.0735
 Red. masses --      1.0391                 1.1073                 1.1053
 Frc consts  --      5.5146                 5.9408                 6.0463
 IR Inten    --     98.0652                64.9987                50.7748

                    103                    104                    105
                      A                      A                      A
 Frequencies --   3064.8448              3075.5831              3089.7640
 Red. masses --      1.0674                 1.0298                 1.0744
 Frc consts  --      5.9072                 5.7395                 6.0434
 IR Inten    --     16.8348                33.1197                27.4841

                    106                    107                    108
                      A                      A                      A
 Frequencies --   3094.5985              3097.7697              3101.2592
 Red. masses --      1.0633                 1.0852                 1.0582
 Frc consts  --      5.9994                 6.1357                 5.9964
 IR Inten    --      3.2865                 4.9732                 2.2181

                    109                    110                    111
                      A                      A                      A
 Frequencies --   3124.7206              3133.7441              3142.9865
 Red. masses --      1.0941                 1.1047                 1.0977
 Frc consts  --      6.2941                 6.3918                 6.3888
 IR Inten    --      1.7947                18.8885                25.8534

                    112                    113                    114
                      A                      A                      A
 Frequencies --   3150.1684              3151.2908              3156.2819
 Red. masses --      1.1073                 1.0528                 1.0592
 Frc consts  --      6.4742                 6.1598                 6.2169
 IR Inten    --     19.5237                14.4088                 9.9411

                    115                    116                    117
                      A                      A                      A
 Frequencies --   3168.0435              3168.6713              3182.5300
 Red. masses --      1.1040                 1.1035                 1.1071
 Frc consts  --      6.5286                 6.5282                 6.6067
 IR Inten    --      3.6426                 4.9880                19.1952

                    118                    119                    120
                      A                      A                      A
 Frequencies --   3228.9731              3246.3837              3497.6429
 Red. masses --      1.1187                 1.1148                 1.0736
 Frc consts  --      6.8720                 6.9223                 7.7385
 IR Inten    --      3.7336                 9.4187                 5.6891

 - Thermochemistry -
 -------------------
 Temperature   298.150 Kelvin.  Pressure   1.00000 Atm.
 Atom     1 has atomic number  6 and mass  12.00000

 Molecular mass:   293.12969 amu.
 Principal axes and moments of inertia in atomic units:
                           1         2         3
     Eigenvalues --  2928.19522********************
           X            1.00000  -0.00244   0.00082
           Y            0.00240   0.99901   0.04433
           Z           -0.00093  -0.04433   0.99902
 This molecule is an asymmetric top.
 Rotational symmetry number  1.
 Warning -- assumption of classical behavior for rotation
           may cause significant error
 Rotational temperatures (Kelvin)      0.02958     0.00831     0.00793
 Rotational constants (GHZ):           0.61633     0.17311     0.16520
 Zero-point vibrational energy     940564.2 (Joules/Mol)
                                  224.80025 (Kcal/Mol)
 Warning -- explicit consideration of  33 degrees of freedom as
           vibrations may cause significant error
 Vibrational temperatures:     15.25    26.45    38.07    70.91    88.11
          (Kelvin)             93.58   100.22   159.74   172.77   189.42
                              210.34   219.20   241.51   278.94   279.07
                              293.71   319.71   343.06   358.12   414.26
                              427.76   444.96   449.98   462.75   494.84
                              539.60   556.22   559.45   670.21   690.00
                              750.92   771.02   847.56   900.04  1022.26
                             1026.80  1119.22  1135.05  1143.47  1161.35
                             1250.60  1294.99  1299.33  1318.26  1348.59
                             1378.95  1383.79  1403.38  1438.44  1472.31
                             1478.57  1513.36  1515.61  1539.94  1570.80
                             1573.96  1596.21  1649.92  1678.03  1689.25
                             1699.19  1707.08  1727.90  1732.53  1738.05
                             1745.01  1749.93  1762.03  1799.20  1810.56
                             1820.11  1844.26  1878.28  1900.55  1948.15
                             1959.66  1984.86  2028.10  2044.30  2049.02
                             2118.03  2127.36  2133.40  2137.34  2149.80
                             2152.84  2161.03  2176.42  2177.13  2180.44
                             2194.25  2195.36  2204.94  2206.06  2224.34
                             2236.99  2618.50  4276.11  4293.63  4318.18
                             4341.76  4384.06  4409.63  4425.08  4445.48
                             4452.44  4457.00  4462.02  4495.78  4508.76
                             4522.06  4532.39  4534.00  4541.19  4558.11
                             4559.01  4578.95  4645.77  4670.82  5032.33

 Zero-point correction=                           0.358242 (Hartree/Particle)
 Thermal correction to Energy=                    0.380436
 Thermal correction to Enthalpy=                  0.381380
 Thermal correction to Gibbs Free Energy=         0.303724
 Sum of electronic and zero-point Energies=          -1299.806519
 Sum of electronic and thermal Energies=             -1299.784324
 Sum of electronic and thermal Enthalpies=           -1299.783380
 Sum of electronic and thermal Free Energies=        -1299.861037

                     E (Thermal)             CV                S
                      KCal/Mol        Cal/Mol-Kelvin    Cal/Mol-Kelvin
 Total                  238.727             79.583            163.442
 Electronic               0.000              0.000              0.000
 Translational            0.889              2.981             42.924
 Rotational               0.889              2.981             34.166
 Vibrational            236.950             73.622             86.352
 Vibration     1          0.593              1.987              7.895
 Vibration     2          0.593              1.986              6.802
 Vibration     3          0.593              1.985              6.078
 Vibration     4          0.595              1.978              4.846
 Vibration     5          0.597              1.973              4.417
 Vibration     6          0.597              1.971              4.298
 Vibration     7          0.598              1.969              4.163
 Vibration     8          0.607              1.940              3.251
 Vibration     9          0.609              1.933              3.099
 Vibration    10          0.612              1.922              2.922
 Vibration    11          0.617              1.907              2.721
 Vibration    12          0.619              1.900              2.643
 Vibration    13          0.625              1.882              2.459
 Vibration    14          0.635              1.848              2.190
 Vibration    15          0.635              1.848              2.190
 Vibration    16          0.640              1.834              2.095
 Vibration    17          0.648              1.807              1.941
 Vibration    18          0.656              1.782              1.814
 Vibration    19          0.662              1.765              1.738
 Vibration    20          0.685              1.696              1.486
 Vibration    21          0.691              1.679              1.432
 Vibration    22          0.699              1.656              1.366
 Vibration    23          0.701              1.649              1.348
 Vibration    24          0.707              1.632              1.302
 Vibration    25          0.723              1.588              1.194
 Vibration    26          0.746              1.523              1.059
 Vibration    27          0.755              1.499              1.013
 Vibration    28          0.757              1.494              1.005
 Vibration    29          0.823              1.326              0.749
 Vibration    30          0.836              1.295              0.711
 Vibration    31          0.877              1.201              0.606
 Vibration    32          0.891              1.171              0.574
 Vibration    33          0.946              1.055              0.469

 Optimization completed.
    -- Stationary point found.
 Normal termination of Gaussian 16 at Sat Dec 12 10:05:32 2020.

 ----------------------------------------------------------------------
 # B3LYP/6-311++G(d,p) empiricaldispersion=gd3bj scf=xqc pop=npa geom=c
 heck
 ----------------------------------------------------------------------

 ---------------------------------------
 CID_107778270_JID_9204_Energie_neutraal
 ---------------------------------------
 Structure from the checkpoint file:  "JID_9204.chk"
 Charge =  0 Multiplicity = 1

 SCF Done:  E(RB3LYP) =  -1300.46107195     A.U. after   15 cycles
 Normal termination of Gaussian 16 at Sat Dec 12 10:13:58 2020.

 ----------------------------------------------------------------------
 # B3LYP/6-311++G(d,p) empiricaldispersion=gd3bj scf=xqc pop=npa geom=c
 heck
 ----------------------------------------------------------------------

 -------------------------------------
 CID_107778270_JID_9204_Energie_kation
 -------------------------------------
 Structure from the checkpoint file:  "JID_9204.chk"
 Charge =  1 Multiplicity = 2

 SCF Done:  E(UB3LYP) =  -1300.14952916     A.U. after   27 cycles
 Normal termination of Gaussian 16 at Sat Dec 12 10:34:00 2020.
 Gaussian 16:  ES64L-G16RevA.03 25-Dec-2016

 ----------------------------------------------------------------------
 # B3LYP/6-311++G(d,p) empiricaldispersion=gd3bj scf=xqc pop=npa geom=c
 heck
 ----------------------------------------------------------------------

 ------------------------------------
 CID_107778270_JID_9204_Energie_anion
 ------------------------------------
 Structure from the checkpoint file:  "JID_9204.chk"
 Charge = -1 Multiplicity = 2

                         Standard orientation:
 ---------------------------------------------------------------------
 Center     Atomic      Atomic             Coordinates (Angstroms)
 Number     Number       Type             X           Y           Z
 ---------------------------------------------------------------------
      1          6           0        3.129849    0.854992    2.346259
      2          7           0        2.498704    0.122537    1.250661
      3          6           0        2.684568    0.748752   -0.064433
      4          6           0        3.950613    0.249452   -0.761982
      5          8           0        3.830516   -1.155880   -0.904548
      6          6           0        4.975504   -1.752666   -1.477497
      7          6           0        1.457398    0.516807   -0.946832
      8         16           0       -0.019730    1.380182   -0.320557
      9          8           0        0.431194    2.630631    0.321982
     10          8           0       -0.972539    1.441199   -1.449617
     11          6           0       -0.732225    0.336698    0.984785
     12          6           0       -1.213870   -1.034297    0.557044
     13          6           0       -0.213589   -2.173670    0.576142
     14          6           0       -1.256907   -2.070405    1.657229
     15          6           0       -2.315280   -1.096869   -0.485737
     16          6           0       -3.590319   -0.400080   -0.055324
     17          8           0       -3.782890    0.150960    1.008378
     18          8           0       -4.518555   -0.471452   -1.031880
     19          6           0       -5.759394    0.192340   -0.745679
     20          1           0        2.620763    1.816700    2.464426
     21          1           0        4.207525    1.050853    2.206442
     22          1           0        3.007022    0.288113    3.274408
     23          1           0        2.872416   -0.823291    1.195941
     24          1           0        2.778548    1.828930    0.085309
     25          1           0        4.077277    0.730689   -1.745575
     26          1           0        4.835911    0.496227   -0.152456
     27          1           0        5.164828   -1.369042   -2.491743
     28          1           0        5.873104   -1.574005   -0.864975
     29          1           0        4.786686   -2.827505   -1.531693
     30          1           0        1.590842    0.945900   -1.945184
     31          1           0        1.212017   -0.541054   -1.054052
     32          1           0        0.057895    0.266869    1.734363
     33          1           0       -1.561671    0.940055    1.364259
     34          1           0       -0.316087   -2.953947   -0.173159
     35          1           0        0.810302   -1.936510    0.843645
     36          1           0       -0.938685   -1.772144    2.651736
     37          1           0       -2.087784   -2.770163    1.648804
     38          1           0       -1.996952   -0.643443   -1.428634
     39          1           0       -2.564644   -2.142014   -0.705941
     40          1           0       -6.235915   -0.245703    0.135455
     41          1           0       -5.589013    1.256704   -0.565008
     42          1           0       -6.379533    0.047134   -1.630441
 ---------------------------------------------------------------------

 SCF Done:  E(UB3LYP) =  -1300.45284789     A.U. after   33 cycles
 SCF Done:  E(UB3LYP) =  -1300.45284789     a.u. after    1 cycles

 The electronic state is 2-A.
 Alpha  occ. eigenvalues --  -88.95025 -19.09408 -19.04609 -19.03666 -19.02152
 Alpha  occ. eigenvalues --  -19.02097 -14.21738 -10.22546 -10.15136 -10.13546
 Alpha  occ. eigenvalues --  -10.12882 -10.12320 -10.12159 -10.11900 -10.11762
 Alpha  occ. eigenvalues --  -10.10534 -10.10260 -10.09753 -10.09552  -8.01554
 Alpha  occ. eigenvalues --   -5.97820  -5.97696  -5.97645  -1.03431  -1.01154
 Alpha  occ. eigenvalues --   -0.95938  -0.94608  -0.90866  -0.83017  -0.80413
 Alpha  occ. eigenvalues --   -0.71393  -0.69479  -0.68075  -0.64458  -0.63066
 Alpha  occ. eigenvalues --   -0.59269  -0.57286  -0.53396  -0.52834  -0.50826
 Alpha  occ. eigenvalues --   -0.49898  -0.47172  -0.44016  -0.42629  -0.42082
 Alpha  occ. eigenvalues --   -0.41675  -0.41079  -0.40561  -0.40034  -0.39721
 Alpha  occ. eigenvalues --   -0.39493  -0.38085  -0.37223  -0.36788  -0.35560
 Alpha  occ. eigenvalues --   -0.35266  -0.34900  -0.34182  -0.32592  -0.31805
 Alpha  occ. eigenvalues --   -0.31191  -0.30074  -0.29657  -0.29363  -0.28926
 Alpha  occ. eigenvalues --   -0.28555  -0.28175  -0.27415  -0.24856  -0.24607
 Alpha  occ. eigenvalues --   -0.23633  -0.22937  -0.22586  -0.22206  -0.21195
 Alpha  occ. eigenvalues --   -0.20185  -0.18647  -0.18316  -0.15172   0.03617
 Alpha virt. eigenvalues --    0.04859   0.06050   0.06371   0.07305   0.07620
 Alpha virt. eigenvalues --    0.07954   0.08025   0.08752   0.09249   0.09606
 Alpha virt. eigenvalues --    0.09695   0.10227   0.10704   0.11067   0.11214

  Beta  occ. eigenvalues --  -88.95024 -19.09406 -19.04597 -19.03663 -19.02150
  Beta  occ. eigenvalues --  -19.02094 -14.21730 -10.22544 -10.15117 -10.13516
  Beta  occ. eigenvalues --  -10.12879 -10.12319 -10.12102 -10.11894 -10.11756
  Beta  occ. eigenvalues --  -10.10525 -10.10233 -10.09740 -10.09540  -8.01552
  Beta  occ. eigenvalues --   -5.97818  -5.97694  -5.97644  -1.03424  -1.01147
  Beta  occ. eigenvalues --   -0.95922  -0.94601  -0.90859  -0.83002  -0.80404
  Beta  occ. eigenvalues --   -0.71377  -0.69461  -0.68056  -0.64420  -0.63038
  Beta  occ. eigenvalues --   -0.59206  -0.57202  -0.53356  -0.52801  -0.50791
  Beta  occ. eigenvalues --   -0.49875  -0.47152  -0.43995  -0.42598  -0.42066
  Beta  occ. eigenvalues --   -0.41636  -0.41062  -0.40537  -0.40015  -0.39686
  Beta  occ. eigenvalues --   -0.39469  -0.38066  -0.37184  -0.36761  -0.35544
  Beta  occ. eigenvalues --   -0.35234  -0.34880  -0.34163  -0.32574  -0.31782
  Beta  occ. eigenvalues --   -0.31160  -0.30061  -0.29622  -0.29345  -0.28910
  Beta  occ. eigenvalues --   -0.28538  -0.28151  -0.27385  -0.24847  -0.24534
  Beta  occ. eigenvalues --   -0.23625  -0.22930  -0.22576  -0.22197  -0.21191
  Beta  occ. eigenvalues --   -0.20177  -0.18639  -0.18284  -0.15156
  Beta virt. eigenvalues --    0.05220   0.05981   0.06649   0.06961   0.07688
  Beta virt. eigenvalues --    0.07788   0.08161   0.08538   0.08967   0.09423
  Beta virt. eigenvalues --    0.09730   0.09989   0.10528   0.10924   0.11205

 Mulliken charges and spin densities:
               1          2
     1  C    0.424632  -0.741087
     2  N    0.027399   0.005846
     3  C   -0.660765   0.444597
     4  C   -0.115917  -0.711142
     5  O   -0.236414   0.092513
     6  C    1.208343  -1.456434
     7  C   -0.785503  -0.062757
     8  S    0.721377  -0.111876
     9  O   -0.100195  -0.002944
    10  O   -0.101804   0.002172
    11  C   -1.138202  -0.045169
    12  C   -0.234986   1.184929
    13  C    0.233081  -0.612057
    14  C    0.061778  -0.537528
    15  C    0.693297  -1.174180
    16  C   -0.853773   0.546325
    17  O   -0.235926   0.000904
    18  O   -0.057283   0.026066
    19  C    0.141572  -0.367451
    20  H    0.118018   0.045453
    21  H   -0.240949   0.369643
    22  H   -0.167319   0.310538
    23  H   -0.002484   0.259630
    24  H    0.154085   0.102134
    25  H    0.008355   0.138900
    26  H   -0.039301   0.200240
    27  H   -0.368325   0.499333
    28  H   -0.548494   0.692668
    29  H   -0.362250   0.510476
    30  H    0.056175   0.203675
    31  H    0.268049   0.047652
    32  H    0.466027  -0.104833
    33  H    0.276245   0.037415
    34  H   -0.142421   0.327102
    35  H    0.405518  -0.318260
    36  H   -0.003064   0.172400
    37  H   -0.073731   0.242438
    38  H    0.359538  -0.067556
    39  H   -0.123377   0.326089
    40  H   -0.025497   0.198974
    41  H    0.088272   0.088351
    42  H   -0.093780   0.236809
 Sum of Mulliken charges =  -1.00000   1.00000

 Dipole moment (field-independent basis, Debye):
    X=             -6.5811    Y=              1.4422    Z=              0.9064  Tot=              6.7980
 Quadrupole moment (field-independent basis, Debye-Ang):
   XX=           -238.6878   YY=           -173.9125   ZZ=           -165.0953
   XY=             12.5019   XZ=              4.8299   YZ=             -2.7472

 Summary of Natural Population Analysis:

                                       Natural Population
                Natural  -----------------------------------------------
    Atom  No    Charge         Core      Valence    Rydberg      Total
 -----------------------------------------------------------------------
      C    1   -0.17880      0.99965     2.17111    0.00803     3.17880
      N    2   -0.35452      0.99974     2.84194    0.01284     3.85452
      C    3   -0.03234      0.99957     2.01782    0.01496     3.03234
      C    4   -0.01225      0.99955     2.00042    0.01228     3.01225
      O    5   -0.30536      0.99988     3.29576    0.00972     4.30536
      C    6   -0.09555      0.99962     2.08675    0.00918     3.09555
      C    7   -0.28888      0.99954     2.27611    0.01323     3.28888
      S    8    1.02186      4.99926     1.88758    0.09130     6.97814
      O    9   -0.47405      0.99991     3.46881    0.00534     4.47405
      O   10   -0.47807      0.99991     3.47267    0.00549     4.47807
      C   11   -0.28757      0.99951     2.27505    0.01301     3.28757
      C   12   -0.05833      0.99955     2.04453    0.01425     3.05833
      C   13   -0.19620      0.99959     2.18734    0.00927     3.19620
      C   14   -0.18499      0.99958     2.17626    0.00916     3.18499
      C   15   -0.24082      0.99952     2.23113    0.01016     3.24082
      C   16    0.41583      0.99970     1.55814    0.02633     2.58417
      O   17   -0.30924      0.99987     3.30397    0.00541     4.30924
      O   18   -0.27717      0.99986     3.26893    0.00839     4.27717
      C   19   -0.10423      0.99960     2.09654    0.00810     3.10423
      H   20    0.09588      0.00000     0.40321    0.00092     0.40412
      H   21    0.08311      0.00000     0.41549    0.00140     0.41689
      H   22    0.09563      0.00000     0.40356    0.00081     0.40437
      H   23    0.18064      0.00000     0.31569    0.00367     0.31936
      H   24    0.11053      0.00000     0.38797    0.00150     0.38947
      H   25    0.08362      0.00000     0.41496    0.00142     0.41638
      H   26    0.08785      0.00000     0.41033    0.00182     0.41215
      H   27    0.08004      0.00000     0.41788    0.00209     0.41996
      H   28    0.08283      0.00000     0.41417    0.00300     0.41717
      H   29    0.09267      0.00000     0.40581    0.00152     0.40733
      H   30    0.11864      0.00000     0.38036    0.00100     0.38136
      H   31    0.12178      0.00000     0.37627    0.00195     0.37822
      H   32    0.13017      0.00000     0.36835    0.00148     0.36983
      H   33    0.12948      0.00000     0.36933    0.00119     0.37052
      H   34    0.10516      0.00000     0.39375    0.00109     0.39484
      H   35    0.11092      0.00000     0.38713    0.00194     0.38908
      H   36    0.10491      0.00000     0.39424    0.00086     0.39509
      H   37    0.10439      0.00000     0.39460    0.00101     0.39561
      H   38    0.13146      0.00000     0.36714    0.00140     0.36854
      H   39    0.11580      0.00000     0.38288    0.00132     0.38420
      H   40    0.09115      0.00000     0.40742    0.00143     0.40885
      H   41    0.09273      0.00000     0.40604    0.00123     0.40727
      H   42    0.09134      0.00000     0.40758    0.00108     0.40866
 =======================================================================
   * Total *    0.00000     22.99342    55.68499    0.32159    79.00000

 Normal termination of Gaussian 16 at Sat Dec 12 10:58:36 2020.
