 Gaussian 16, Revision A.03,

 -----------------------------------------------------------
 # opt freq B3LYP/6-31G(d) empiricaldispersion=gd3bj scf=xqc
 -----------------------------------------------------------

 ------------------------------
 CID_83244346_JID_9059_neutraal
 ------------------------------
 Symbolic Z-matrix:
 Charge =  0 Multiplicity = 1

 SCF Done:  E(RB3LYP) =  -1167.80978348     A.U. after   15 cycles
 SCF Done:  E(RB3LYP) =  -1167.81545668     A.U. after   12 cycles
 SCF Done:  E(RB3LYP) =  -1167.81644134     A.U. after   12 cycles
 SCF Done:  E(RB3LYP) =  -1167.81709269     A.U. after   12 cycles
 SCF Done:  E(RB3LYP) =  -1167.81747333     A.U. after   11 cycles
 SCF Done:  E(RB3LYP) =  -1167.81779061     A.U. after   12 cycles
 SCF Done:  E(RB3LYP) =  -1167.81796579     A.U. after   11 cycles
 SCF Done:  E(RB3LYP) =  -1167.81825475     A.U. after   12 cycles
 SCF Done:  E(RB3LYP) =  -1167.81831886     A.U. after   13 cycles
 SCF Done:  E(RB3LYP) =  -1167.81847332     A.U. after   12 cycles
 SCF Done:  E(RB3LYP) =  -1167.81930685     A.U. after   10 cycles
 SCF Done:  E(RB3LYP) =  -1167.81931473     A.U. after   10 cycles
 SCF Done:  E(RB3LYP) =  -1167.81931381     A.U. after    9 cycles
 SCF Done:  E(RB3LYP) =  -1167.81931483     A.U. after    9 cycles
 Optimization completed.
    -- Stationary point found.
 Normal termination of Gaussian 16 at Sun Dec 13 16:33:56 2020.

 --------------------------------------------------------------------
 #N Geom=AllCheck Guess=TCheck SCRF=Check GenChk RB3LYP/6-31G(d) Freq
 --------------------------------------------------------------------

 Structure from the checkpoint file:  "JID_9059.chk"
 ------------------------------
 CID_83244346_JID_9059_neutraal
 ------------------------------
 Charge =  0 Multiplicity = 1

 SCF Done:  E(RB3LYP) =  -1167.81931483     A.U. after    1 cycles

  Exact polarizability: 186.048 -12.074 201.466  11.297   0.024 148.234
 Approx polarizability: 244.415 -19.755 306.432  28.452  -8.114 248.471

                      1                      2                      3
                      A                      A                      A
 Frequencies --     27.7427                37.3366                47.0843
 Red. masses --      4.0151                 3.6814                 3.6698
 Frc consts  --      0.0018                 0.0030                 0.0048
 IR Inten    --      0.0370                 0.1729                 0.2832

                      4                      5                      6
                      A                      A                      A
 Frequencies --     63.1745                74.6705                78.8631
 Red. masses --      6.3747                 4.0025                 3.7692
 Frc consts  --      0.0150                 0.0131                 0.0138
 IR Inten    --      1.4737                 1.1228                 0.0228

                      7                      8                      9
                      A                      A                      A
 Frequencies --    104.5316               112.0854               177.0823
 Red. masses --      2.5325                 3.7874                 3.6673
 Frc consts  --      0.0163                 0.0280                 0.0678
 IR Inten    --      0.4871                 2.0254                 2.2770

                     10                     11                     12
                      A                      A                      A
 Frequencies --    195.6364               207.1285               230.3533
 Red. masses --      3.2617                 3.6907                 2.5052
 Frc consts  --      0.0736                 0.0933                 0.0783
 IR Inten    --      0.1701                 0.6069                 0.4606

                     13                     14                     15
                      A                      A                      A
 Frequencies --    236.4492               244.8375               255.0505
 Red. masses --      1.1914                 2.5561                 1.1856
 Frc consts  --      0.0392                 0.0903                 0.0454
 IR Inten    --      0.2814                 1.6711                 0.2112

                     16                     17                     18
                      A                      A                      A
 Frequencies --    263.5870               265.6161               305.2152
 Red. masses --      1.2238                 3.6898                 4.2561
 Frc consts  --      0.0501                 0.1534                 0.2336
 IR Inten    --      0.4881                 7.9010                 0.3498

                     19                     20                     21
                      A                      A                      A
 Frequencies --    335.4642               349.0792               406.5309
 Red. masses --      2.8510                 3.5597                 2.4709
 Frc consts  --      0.1890                 0.2556                 0.2406
 IR Inten    --      0.9538                 2.3959                 0.6159

                     22                     23                     24
                      A                      A                      A
 Frequencies --    414.9223               421.4903               459.7097
 Red. masses --      2.5293                 2.5227                 4.3058
 Frc consts  --      0.2566                 0.2641                 0.5361
 IR Inten    --      3.3595                 5.8284                 2.8560

                     25                     26                     27
                      A                      A                      A
 Frequencies --    475.2569               481.9384               524.6924
 Red. masses --      3.8187                 2.5113                 3.6651
 Frc consts  --      0.5082                 0.3437                 0.5945
 IR Inten    --      4.1258                 5.8850                 7.1796

                     28                     29                     30
                      A                      A                      A
 Frequencies --    606.0528               623.3214               660.0146
 Red. masses --      4.3748                 5.6255                 3.4094
 Frc consts  --      0.9467                 1.2878                 0.8751
 IR Inten    --      2.0215                 9.0826                 8.7016

                     31                     32                     33
                      A                      A                      A
 Frequencies --    681.6995               695.8550               708.0284
 Red. masses --      2.0576                 1.6150                 3.3588
 Frc consts  --      0.5634                 0.4607                 0.9921
 IR Inten    --      5.6048                 1.3744                26.1475

                     34                     35                     36
                      A                      A                      A
 Frequencies --    745.9211               762.5611               796.3095
 Red. masses --      5.7645                 3.2964                 1.2167
 Frc consts  --      1.8897                 1.1294                 0.4546
 IR Inten    --     11.6896                57.3609                40.8875

                     37                     38                     39
                      A                      A                      A
 Frequencies --    807.4307               820.9318               837.9268
 Red. masses --      1.4876                 4.4775                 2.6257
 Frc consts  --      0.5714                 1.7779                 1.0862
 IR Inten    --     27.0549                 9.7895                 1.7894

                     40                     41                     42
                      A                      A                      A
 Frequencies --    849.3389               857.3331               865.4711
 Red. masses --      2.5513                 2.5627                 3.2325
 Frc consts  --      1.0844                 1.1098                 1.4266
 IR Inten    --     21.8882                27.3753                26.6037

                     43                     44                     45
                      A                      A                      A
 Frequencies --    891.8986               900.4330               908.7056
 Red. masses --      2.6396                 1.3685                 1.5060
 Frc consts  --      1.2372                 0.6537                 0.7327
 IR Inten    --      1.0313                 2.1626                 0.6540

                     46                     47                     48
                      A                      A                      A
 Frequencies --    942.7301               945.2034               952.0100
 Red. masses --      2.6100                 1.3071                 1.3953
 Frc consts  --      1.3667                 0.6881                 0.7451
 IR Inten    --      1.8016                 0.7348                 0.7235

                     49                     50                     51
                      A                      A                      A
 Frequencies --    968.1647               979.8223               988.8823
 Red. masses --      2.0128                 1.5187                 1.9516
 Frc consts  --      1.1116                 0.8590                 1.1244
 IR Inten    --      3.5238                 1.0261                 4.2532

                     52                     53                     54
                      A                      A                      A
 Frequencies --   1011.6146              1034.4561              1049.1366
 Red. masses --      3.2337                 2.0470                 1.5326
 Frc consts  --      1.9498                 1.2906                 0.9939
 IR Inten    --     48.3938                15.5806                 3.0623

                     55                     56                     57
                      A                      A                      A
 Frequencies --   1059.4115              1066.0838              1082.1220
 Red. masses --      2.1121                 1.4876                 2.8117
 Frc consts  --      1.3967                 0.9961                 1.9399
 IR Inten    --      0.5877                 7.4717                 4.9478

                     58                     59                     60
                      A                      A                      A
 Frequencies --   1093.2673              1124.9647              1131.9480
 Red. masses --      1.3785                 1.1242                 2.3322
 Frc consts  --      0.9707                 0.8382                 1.7606
 IR Inten    --      2.1474                 3.6999                 7.8436

                     61                     62                     63
                      A                      A                      A
 Frequencies --   1169.3655              1194.8699              1202.2520
 Red. masses --      2.1177                 1.6091                 1.9214
 Frc consts  --      1.7062                 1.3536                 1.6363
 IR Inten    --     13.9073                 0.7161                 5.6449

                     64                     65                     66
                      A                      A                      A
 Frequencies --   1209.2410              1214.3460              1219.9215
 Red. masses --      1.8150                 1.2958                 2.3073
 Frc consts  --      1.5637                 1.1258                 2.0231
 IR Inten    --     13.9645                 0.0256                30.6706

                     67                     68                     69
                      A                      A                      A
 Frequencies --   1239.1505              1268.9005              1297.3715
 Red. masses --      2.4016                 1.7110                 1.4164
 Frc consts  --      2.1727                 1.6231                 1.4046
 IR Inten    --     58.1658                27.6519                 3.2248

                     70                     71                     72
                      A                      A                      A
 Frequencies --   1334.3575              1338.7168              1365.1497
 Red. masses --      1.8939                 1.3636                 2.3352
 Frc consts  --      1.9868                 1.4398                 2.5641
 IR Inten    --    103.6645                 9.8967                10.9153

                     73                     74                     75
                      A                      A                      A
 Frequencies --   1374.9213              1377.3493              1394.5580
 Red. masses --      1.4666                 1.6598                 1.3744
 Frc consts  --      1.6335                 1.8553                 1.5748
 IR Inten    --      1.0353                 4.4341                23.3701

                     76                     77                     78
                      A                      A                      A
 Frequencies --   1408.2781              1420.6216              1431.6742
 Red. masses --      1.4011                 1.8243                 1.2765
 Frc consts  --      1.6371                 2.1693                 1.5415
 IR Inten    --     26.9814                66.0546                 6.5655

                     79                     80                     81
                      A                      A                      A
 Frequencies --   1434.0618              1447.3712              1450.8633
 Red. masses --      1.4899                 1.9498                 1.4095
 Frc consts  --      1.8053                 2.4066                 1.7481
 IR Inten    --     75.8429                 8.3973                46.3632

                     82                     83                     84
                      A                      A                      A
 Frequencies --   1451.7656              1464.3464              1472.8784
 Red. masses --      1.3851                 1.2904                 1.3327
 Frc consts  --      1.7199                 1.6302                 1.7033
 IR Inten    --     46.9443                 5.5030                 4.2122

                     85                     86                     87
                      A                      A                      A
 Frequencies --   1491.6276              1513.8528              1515.4525
 Red. masses --      3.3441                 1.0725                 1.5234
 Frc consts  --      4.3838                 1.4481                 2.0613
 IR Inten    --     51.3813                 1.3781                 2.2758

                     88                     89                     90
                      A                      A                      A
 Frequencies --   1518.9951              1524.5207              1529.6754
 Red. masses --      1.0526                 1.0533                 1.0596
 Frc consts  --      1.4309                 1.4424                 1.4608
 IR Inten    --      3.1728                 0.0868                 1.7097

                     91                     92                     93
                      A                      A                      A
 Frequencies --   1531.9540              1536.1062              1542.8896
 Red. masses --      1.0560                 1.0568                 1.0474
 Frc consts  --      1.4601                 1.4692                 1.4691
 IR Inten    --      9.8371                 2.4918                12.0188

                     94                     95                     96
                      A                      A                      A
 Frequencies --   1606.1197              1797.3140              3021.4065
 Red. masses --      5.6455                12.1561                 1.0623
 Frc consts  --      8.5804                23.1362                 5.7136
 IR Inten    --      5.8394               266.8354                13.2016

                     97                     98                     99
                      A                      A                      A
 Frequencies --   3032.4770              3037.6404              3044.8653
 Red. masses --      1.0774                 1.0367                 1.0396
 Frc consts  --      5.8372                 5.6360                 5.6786
 IR Inten    --      7.8002                32.4060                24.0133

                    100                    101                    102
                      A                      A                      A
 Frequencies --   3063.8019              3066.9312              3087.7583
 Red. masses --      1.0922                 1.0426                 1.0870
 Frc consts  --      6.0404                 5.7782                 6.1063
 IR Inten    --     13.0302                23.1290                29.4768

                    103                    104                    105
                      A                      A                      A
 Frequencies --   3093.8974              3101.5397              3107.4332
 Red. masses --      1.0876                 1.1008                 1.1011
 Frc consts  --      6.1337                 6.2391                 6.2646
 IR Inten    --     14.0367                20.5393                45.2400

                    106                    107                    108
                      A                      A                      A
 Frequencies --   3112.9843              3121.0690              3134.0067
 Red. masses --      1.1016                 1.1006                 1.1007
 Frc consts  --      6.2894                 6.3166                 6.3698
 IR Inten    --     55.3851                40.6716                36.2072

                    109                    110                    111
                      A                      A                      A
 Frequencies --   3149.7287              3150.6103              3154.5358
 Red. masses --      1.0529                 1.1033                 1.0538
 Frc consts  --      6.1542                 6.4526                 6.1782
 IR Inten    --     12.6305                14.6787                 5.9639

                    112                    113                    114
                      A                      A                      A
 Frequencies --   3235.4584              3241.1342              3251.2051
 Red. masses --      1.1202                 1.0900                 1.1180
 Frc consts  --      6.9092                 6.7461                 6.9628
 IR Inten    --      0.4571                 0.8198                 4.5687

                    115                    116                    117
                      A                      A                      A
 Frequencies --   3260.5006              3273.1873              3478.7686
 Red. masses --      1.0935                 1.0983                 1.0750
 Frc consts  --      6.8490                 6.9326                 7.6649
 IR Inten    --      1.1057                 0.4959                 0.2354

 - Thermochemistry -
 -------------------
 Temperature   298.150 Kelvin.  Pressure   1.00000 Atm.
 Atom     1 has atomic number  6 and mass  12.00000

 Molecular mass:   278.14529 amu.
 Principal axes and moments of inertia in atomic units:
                           1         2         3
     Eigenvalues --  4849.919276143.187059418.30955
           X            0.99960  -0.02799   0.00452
           Y            0.02798   0.99960   0.00421
           Z           -0.00463  -0.00408   0.99998
 This molecule is an asymmetric top.
 Rotational symmetry number  1.
 Warning -- assumption of classical behavior for rotation
           may cause significant error
 Rotational temperatures (Kelvin)      0.01786     0.01410     0.00920
 Rotational constants (GHZ):           0.37212     0.29378     0.19162
 Zero-point vibrational energy     925648.6 (Joules/Mol)
                                  221.23532 (Kcal/Mol)
 Warning -- explicit consideration of  28 degrees of freedom as
           vibrations may cause significant error
 Vibrational temperatures:     39.92    53.72    67.74    90.89   107.43
          (Kelvin)            113.47   150.40   161.27   254.78   281.48
                              298.01   331.43   340.20   352.27   366.96
                              379.24   382.16   439.14   482.66   502.25
                              584.91   596.98   606.43   661.42   683.79
                              693.40   754.92   871.97   896.82   949.61
                              980.81  1001.18  1018.69  1073.21  1097.16
                             1145.71  1161.71  1181.14  1205.59  1222.01
                             1233.51  1245.22  1283.24  1295.52  1307.42
                             1356.38  1359.94  1369.73  1392.97  1409.75
                             1422.78  1455.49  1488.35  1509.47  1524.26
                             1533.86  1556.93  1572.97  1618.57  1628.62
                             1682.46  1719.15  1729.77  1739.83  1747.17
                             1755.19  1782.86  1825.66  1866.63  1919.84
                             1926.11  1964.15  1978.21  1981.70  2006.46
                             2026.20  2043.96  2059.86  2063.30  2082.44
                             2087.47  2088.77  2106.87  2119.14  2146.12
                             2178.10  2180.40  2185.50  2193.45  2200.86
                             2204.14  2210.11  2219.87  2310.85  2585.93
                             4347.13  4363.06  4370.49  4380.88  4408.13
                             4412.63  4442.60  4451.43  4462.42  4470.90
                             4478.89  4490.52  4509.14  4531.76  4533.03
                             4538.67  4655.10  4663.27  4677.76  4691.13
                             4709.39  5005.17

 Zero-point correction=                           0.352561 (Hartree/Particle)
 Thermal correction to Energy=                    0.371821
 Thermal correction to Enthalpy=                  0.372765
 Thermal correction to Gibbs Free Energy=         0.304029
 Sum of electronic and zero-point Energies=          -1167.466754
 Sum of electronic and thermal Energies=             -1167.447494
 Sum of electronic and thermal Enthalpies=           -1167.446550
 Sum of electronic and thermal Free Energies=        -1167.515286

                     E (Thermal)             CV                S
                      KCal/Mol        Cal/Mol-Kelvin    Cal/Mol-Kelvin
 Total                  233.321             73.919            144.667
 Electronic               0.000              0.000              0.000
 Translational            0.889              2.981             42.767
 Rotational               0.889              2.981             33.994
 Vibrational            231.543             67.958             67.905
 Vibration     1          0.593              1.984              5.985
 Vibration     2          0.594              1.982              5.396
 Vibration     3          0.595              1.979              4.936
 Vibration     4          0.597              1.972              4.355
 Vibration     5          0.599              1.966              4.026
 Vibration     6          0.600              1.963              3.919
 Vibration     7          0.605              1.946              3.368
 Vibration     8          0.607              1.939              3.232
 Vibration     9          0.628              1.871              2.359
 Vibration    10          0.636              1.846              2.174
 Vibration    11          0.641              1.830              2.069
 Vibration    12          0.652              1.795              1.876
 Vibration    13          0.655              1.785              1.829
 Vibration    14          0.660              1.771              1.767
 Vibration    15          0.665              1.754              1.695
 Vibration    16          0.670              1.740              1.638
 Vibration    17          0.671              1.736              1.625
 Vibration    18          0.696              1.664              1.388
 Vibration    19          0.717              1.605              1.234
 Vibration    20          0.726              1.577              1.170
 Vibration    21          0.771              1.456              0.939
 Vibration    22          0.778              1.438              0.909
 Vibration    23          0.784              1.424              0.887
 Vibration    24          0.818              1.339              0.767
 Vibration    25          0.832              1.305              0.723
 Vibration    26          0.838              1.290              0.705
 Vibration    27          0.880              1.195              0.599
 Vibration    28          0.965              1.019              0.439

 Optimization completed.
    -- Stationary point found.
 Normal termination of Gaussian 16 at Sun Dec 13 16:59:38 2020.

 ----------------------------------------------------------------------
 # B3LYP/6-311++G(d,p) empiricaldispersion=gd3bj scf=xqc pop=npa geom=c
 heck
 ----------------------------------------------------------------------

 --------------------------------------
 CID_83244346_JID_9059_Energie_neutraal
 --------------------------------------
 Structure from the checkpoint file:  "JID_9059.chk"
 Charge =  0 Multiplicity = 1

 SCF Done:  E(RB3LYP) =  -1168.05748952     A.U. after   16 cycles
 Normal termination of Gaussian 16 at Sun Dec 13 17:12:00 2020.

 ----------------------------------------------------------------------
 # B3LYP/6-311++G(d,p) empiricaldispersion=gd3bj scf=xqc pop=npa geom=c
 heck
 ----------------------------------------------------------------------

 ------------------------------------
 CID_83244346_JID_9059_Energie_kation
 ------------------------------------
 Structure from the checkpoint file:  "JID_9059.chk"
 Charge =  1 Multiplicity = 2

 SCF Done:  E(UB3LYP) =  -1167.75736894     A.U. after   33 cycles
 SCF Done:  E(UB3LYP) =  -1167.75736894     a.u. after    1 cycles
 Normal termination of Gaussian 16 at Sun Dec 13 17:48:18 2020.
 Gaussian 16:  ES64L-G16RevA.03 25-Dec-2016

 ----------------------------------------------------------------------
 # B3LYP/6-311++G(d,p) empiricaldispersion=gd3bj scf=xqc pop=npa geom=c
 heck
 ----------------------------------------------------------------------

 -----------------------------------
 CID_83244346_JID_9059_Energie_anion
 -----------------------------------
 Structure from the checkpoint file:  "JID_9059.chk"
 Charge = -1 Multiplicity = 2

                         Standard orientation:
 ---------------------------------------------------------------------
 Center     Atomic      Atomic             Coordinates (Angstroms)
 Number     Number       Type             X           Y           Z
 ---------------------------------------------------------------------
      1          6           0        4.322811    1.459806   -0.530943
      2          6           0        3.770749    0.121346   -0.024665
      3          6           0        4.669918   -0.452013    1.078104
      4          6           0        2.326729    0.240652    0.493595
      5          6           0        1.305150    0.765138   -0.523560
      6          6           0        1.171138   -0.122582   -1.768468
      7          7           0        0.013851    0.996726    0.132438
      8          6           0       -0.652412    0.082948    1.079127
      9          7           0       -1.858031    0.820060    1.513475
     10          6           0       -2.111832    1.793733    0.463862
     11          6           0       -0.845390    1.960110   -0.324907
     12          8           0       -0.626095    2.769880   -1.217064
     13          6           0       -3.055632    2.939768    0.657842
     14          6           0       -3.428441    1.827222   -0.285123
     15          6           0       -0.990303   -1.249932    0.455123
     16          6           0       -0.460178   -2.437193    0.880205
     17         16           0       -1.010382   -3.779484   -0.073486
     18          6           0       -1.975198   -2.722723   -1.061823
     19          6           0       -1.866761   -1.421080   -0.667968
     20          1           0        4.282315    2.220414    0.259482
     21          1           0        3.760906    1.841519   -1.389585
     22          1           0        5.368983    1.356263   -0.840349
     23          1           0        3.777102   -0.590519   -0.861465
     24          1           0        4.710373    0.226273    1.940146
     25          1           0        4.299007   -1.421141    1.432289
     26          1           0        5.695184   -0.594416    0.718361
     27          1           0        2.005776   -0.749151    0.844682
     28          1           0        2.319812    0.907072    1.368256
     29          1           0        1.604652    1.762997   -0.857214
     30          1           0        0.933981   -1.156674   -1.503462
     31          1           0        0.378564    0.264310   -2.414843
     32          1           0        2.104347   -0.117679   -2.341101
     33          1           0       -0.010352   -0.093238    1.946481
     34          1           0       -1.616469    1.330399    2.361584
     35          1           0       -3.577610    2.995352    1.609257
     36          1           0       -2.749879    3.890392    0.230826
     37          1           0       -3.385379    2.029205   -1.351476
     38          1           0       -4.177559    1.112985    0.041402
     39          1           0        0.226673   -2.598489    1.700486
     40          1           0       -2.564790   -3.129491   -1.872026
     41          1           0       -2.383604   -0.602368   -1.153252
 ---------------------------------------------------------------------

 SCF Done:  E(UB3LYP) =  -1168.04654441     A.U. after   33 cycles
 SCF Done:  E(UB3LYP) =  -1168.04654441     a.u. after    1 cycles

 The electronic state is 2-A.
 Alpha  occ. eigenvalues --  -88.78772 -18.99844 -14.24686 -14.22211 -10.17587
 Alpha  occ. eigenvalues --  -10.15520 -10.12902 -10.11652 -10.11157 -10.10496
 Alpha  occ. eigenvalues --  -10.09604 -10.09390 -10.09098 -10.08901 -10.08105
 Alpha  occ. eigenvalues --  -10.06952 -10.06614 -10.06609 -10.05871  -7.87381
 Alpha  occ. eigenvalues --   -5.83666  -5.83301  -5.82994  -0.95134  -0.88454
 Alpha  occ. eigenvalues --   -0.81467  -0.79320  -0.75684  -0.72004  -0.66875
 Alpha  occ. eigenvalues --   -0.66816  -0.64290  -0.59943  -0.59027  -0.58393
 Alpha  occ. eigenvalues --   -0.55789  -0.52794  -0.49569  -0.48671  -0.46673
 Alpha  occ. eigenvalues --   -0.46053  -0.45055  -0.43808  -0.41652  -0.40530
 Alpha  occ. eigenvalues --   -0.38515  -0.37670  -0.36907  -0.35244  -0.34549
 Alpha  occ. eigenvalues --   -0.33470  -0.32717  -0.32485  -0.31981  -0.31349
 Alpha  occ. eigenvalues --   -0.30416  -0.30058  -0.29581  -0.29144  -0.28937
 Alpha  occ. eigenvalues --   -0.28502  -0.27678  -0.26296  -0.26174  -0.25441
 Alpha  occ. eigenvalues --   -0.23847  -0.23249  -0.22956  -0.22700  -0.22601
 Alpha  occ. eigenvalues --   -0.18821  -0.16648  -0.15578  -0.15133  -0.14466
 Alpha  occ. eigenvalues --    0.04246
 Alpha virt. eigenvalues --    0.06259   0.06351   0.06538   0.07191   0.07869
 Alpha virt. eigenvalues --    0.08404   0.08579   0.09188   0.09322   0.09924
 Alpha virt. eigenvalues --    0.10211   0.10746   0.10935   0.11251   0.11493

  Beta  occ. eigenvalues --  -88.78761 -18.99843 -14.24684 -14.22177 -10.17586
  Beta  occ. eigenvalues --  -10.15500 -10.12902 -10.11648 -10.11117 -10.10415
  Beta  occ. eigenvalues --  -10.09594 -10.09386 -10.09094 -10.08896 -10.08099
  Beta  occ. eigenvalues --  -10.06926 -10.06605 -10.06596 -10.05833  -7.87372
  Beta  occ. eigenvalues --   -5.83661  -5.83296  -5.82962  -0.95130  -0.88433
  Beta  occ. eigenvalues --   -0.81450  -0.79258  -0.75659  -0.71978  -0.66849
  Beta  occ. eigenvalues --   -0.66769  -0.64206  -0.59903  -0.58975  -0.58342
  Beta  occ. eigenvalues --   -0.55747  -0.52771  -0.49532  -0.48570  -0.46624
  Beta  occ. eigenvalues --   -0.46020  -0.45005  -0.43754  -0.41611  -0.40505
  Beta  occ. eigenvalues --   -0.38478  -0.37636  -0.36875  -0.35217  -0.34522
  Beta  occ. eigenvalues --   -0.33449  -0.32687  -0.32453  -0.31940  -0.31323
  Beta  occ. eigenvalues --   -0.30364  -0.30002  -0.29548  -0.29114  -0.28878
  Beta  occ. eigenvalues --   -0.28469  -0.27626  -0.26247  -0.26132  -0.25409
  Beta  occ. eigenvalues --   -0.23819  -0.23216  -0.22926  -0.22673  -0.22572
  Beta  occ. eigenvalues --   -0.18797  -0.16553  -0.15429  -0.14994  -0.14416
  Beta virt. eigenvalues --    0.06323   0.06712   0.06821   0.07046   0.07917
  Beta virt. eigenvalues --    0.08307   0.08515   0.08822   0.09271   0.09509
  Beta virt. eigenvalues --    0.10047   0.10493   0.10871   0.11307   0.11335

 Mulliken charges and spin densities:
               1          2
     1  C   -0.039270  -0.691993
     2  C   -1.095651   1.506038
     3  C    0.775479  -1.459295
     4  C   -0.136968  -0.527130
     5  C    0.749099  -0.426354
     6  C   -0.534034  -0.044357
     7  N    0.313016  -0.017185
     8  C    1.032390  -1.405159
     9  N   -0.191867   0.167424
    10  C   -0.438391   0.576144
    11  C   -0.204060  -0.222099
    12  O   -0.309689  -0.003539
    13  C    0.678366  -0.979578
    14  C   -0.265042  -0.073189
    15  C   -0.279681  -0.080262
    16  C    0.447531  -0.142845
    17  S    0.130732  -0.381422
    18  C   -0.646520   0.186883
    19  C   -0.543123   0.595930
    20  H    0.018263   0.138598
    21  H    0.108943   0.010768
    22  H   -0.144343   0.288382
    23  H    0.008491   0.142877
    24  H   -0.146008   0.282802
    25  H   -0.445883   0.594389
    26  H   -0.254753   0.404536
    27  H    0.923396  -0.863917
    28  H   -0.148058   0.347483
    29  H    0.320686  -0.072148
    30  H    0.038955   0.142315
    31  H    0.178917  -0.031556
    32  H    0.042750   0.106051
    33  H   -0.810268   1.079749
    34  H   -0.182078   0.484674
    35  H   -0.088158   0.249187
    36  H    0.156693   0.020673
    37  H    0.115860   0.060120
    38  H    0.203910  -0.036997
    39  H   -0.674996   0.967346
    40  H    0.186935   0.050260
    41  H    0.148430   0.056395
 Sum of Mulliken charges =  -1.00000   1.00000

 Dipole moment (field-independent basis, Debye):
    X=             -5.8889    Y=             -0.7338    Z=             -6.3752  Tot=              8.7098
 Quadrupole moment (field-independent basis, Debye-Ang):
   XX=           -193.8236   YY=           -172.6493   ZZ=           -172.4037
   XY=              6.7498   XZ=             -3.2852   YZ=              7.3937

 Summary of Natural Population Analysis:

                                       Natural Population
                Natural  -----------------------------------------------
    Atom  No    Charge         Core      Valence    Rydberg      Total
 -----------------------------------------------------------------------
      C    1   -0.28562      0.99965     2.28108    0.00489     3.28562
      C    2   -0.11331      0.99962     2.10474    0.00895     3.11331
      C    3   -0.28159      0.99965     2.27600    0.00594     3.28159
      C    4   -0.19344      0.99959     2.18381    0.01003     3.19344
      C    5   -0.00725      0.99958     1.99563    0.01203     3.00725
      C    6   -0.29173      0.99964     2.28757    0.00452     3.29173
      N    7   -0.25490      0.99962     2.74251    0.01277     3.75490
      C    8    0.08859      0.99954     1.89371    0.01816     2.91141
      N    9   -0.32590      0.99972     2.81402    0.01216     3.82590
      C   10    0.00842      0.99949     1.97714    0.01495     2.99158
      C   11    0.34498      0.99954     1.63181    0.02367     2.65502
      O   12   -0.32971      0.99988     3.32512    0.00471     4.32971
      C   13   -0.19064      0.99959     2.18180    0.00925     3.19064
      C   14   -0.19177      0.99960     2.18578    0.00640     3.19177
      C   15   -0.05377      0.99945     2.04116    0.01316     3.05377
      C   16   -0.17333      0.99945     2.16134    0.01254     3.17333
      S   17    0.19850      4.99946     2.78043    0.02161     7.80150
      C   18   -0.18774      0.99954     2.17804    0.01016     3.18774
      C   19   -0.12007      0.99947     2.11208    0.00852     3.12007
      H   20    0.09812      0.00000     0.40103    0.00086     0.40188
      H   21    0.09747      0.00000     0.40171    0.00082     0.40253
      H   22    0.09912      0.00000     0.40008    0.00080     0.40088
      H   23    0.09179      0.00000     0.40640    0.00181     0.40821
      H   24    0.09763      0.00000     0.40107    0.00130     0.40237
      H   25    0.10258      0.00000     0.39591    0.00151     0.39742
      H   26    0.09752      0.00000     0.40140    0.00108     0.40248
      H   27    0.10144      0.00000     0.39575    0.00281     0.39856
      H   28    0.10243      0.00000     0.39576    0.00181     0.39757
      H   29    0.10810      0.00000     0.38992    0.00198     0.39190
      H   30    0.10383      0.00000     0.39496    0.00120     0.39617
      H   31    0.10456      0.00000     0.39466    0.00078     0.39544
      H   32    0.09923      0.00000     0.40005    0.00071     0.40077
      H   33    0.10692      0.00000     0.38979    0.00329     0.39308
      H   34    0.18406      0.00000     0.31039    0.00554     0.31594
      H   35    0.10724      0.00000     0.39189    0.00086     0.39276
      H   36    0.11161      0.00000     0.38750    0.00090     0.38839
      H   37    0.10612      0.00000     0.39291    0.00096     0.39388
      H   38    0.10738      0.00000     0.39151    0.00111     0.39262
      H   39    0.11609      0.00000     0.38194    0.00197     0.38391
      H   40    0.10678      0.00000     0.39250    0.00073     0.39322
      H   41    0.11022      0.00000     0.38852    0.00126     0.38978
 =======================================================================
   * Total *   -0.00000     22.99206    51.75944    0.24850    75.00000

 Normal termination of Gaussian 16 at Sun Dec 13 18:24:34 2020.
