 Gaussian 16, Revision A.03,

 -----------------------------------------------------------
 # opt freq B3LYP/6-31G(d) empiricaldispersion=gd3bj scf=xqc
 -----------------------------------------------------------

 -------------------------------
 CID_105694622_JID_6071_neutraal
 -------------------------------
 Symbolic Z-matrix:
 Charge =  0 Multiplicity = 1

 SCF Done:  E(RB3LYP) =  -730.498676780     A.U. after   14 cycles
 SCF Done:  E(RB3LYP) =  -730.503316990     A.U. after   12 cycles
 SCF Done:  E(RB3LYP) =  -730.503953431     A.U. after   11 cycles
 SCF Done:  E(RB3LYP) =  -730.504088023     A.U. after   12 cycles
 SCF Done:  E(RB3LYP) =  -730.504379811     A.U. after   11 cycles
 SCF Done:  E(RB3LYP) =  -730.504468212     A.U. after   10 cycles
 SCF Done:  E(RB3LYP) =  -730.504566155     A.U. after   10 cycles
 SCF Done:  E(RB3LYP) =  -730.504608505     A.U. after   10 cycles
 SCF Done:  E(RB3LYP) =  -730.504645197     A.U. after   10 cycles
 SCF Done:  E(RB3LYP) =  -730.504666924     A.U. after   10 cycles
 SCF Done:  E(RB3LYP) =  -730.504669621     A.U. after    9 cycles
 SCF Done:  E(RB3LYP) =  -730.504669763     A.U. after    7 cycles
 SCF Done:  E(RB3LYP) =  -730.504669792     A.U. after    6 cycles
 Optimization completed.
    -- Stationary point found.
 Normal termination of Gaussian 16 at Thu Dec 10 21:10:20 2020.

 --------------------------------------------------------------------
 #N Geom=AllCheck Guess=TCheck SCRF=Check GenChk RB3LYP/6-31G(d) Freq
 --------------------------------------------------------------------

 Structure from the checkpoint file:  "JID_6071.chk"
 -------------------------------
 CID_105694622_JID_6071_neutraal
 -------------------------------
 Charge =  0 Multiplicity = 1

 SCF Done:  E(RB3LYP) =  -730.504669792     A.U. after    1 cycles

  Exact polarizability: 172.562   2.782 137.945   0.447  -0.216 116.480
 Approx polarizability: 209.763  11.630 203.307   1.106   2.310 175.450

                      1                      2                      3
                      A                      A                      A
 Frequencies --     20.0744                26.8870                32.8516
 Red. masses --      4.8919                 3.7006                 3.1009
 Frc consts  --      0.0012                 0.0016                 0.0020
 IR Inten    --      0.0386                 0.2382                 0.1720

                      4                      5                      6
                      A                      A                      A
 Frequencies --     56.1505                65.5711               102.4170
 Red. masses --      4.7683                 3.0821                 3.2486
 Frc consts  --      0.0089                 0.0078                 0.0201
 IR Inten    --      1.6656                 0.6532                 0.6243

                      7                      8                      9
                      A                      A                      A
 Frequencies --    139.5633               154.9073               187.3655
 Red. masses --      4.1656                 2.4432                 2.7350
 Frc consts  --      0.0478                 0.0345                 0.0566
 IR Inten    --      1.2492                 1.7496                 1.5849

                     10                     11                     12
                      A                      A                      A
 Frequencies --    223.8512               243.3389               267.0227
 Red. masses --      1.5556                 2.0777                 1.8285
 Frc consts  --      0.0459                 0.0725                 0.0768
 IR Inten    --      0.5701                 3.1743                 2.4848

                     13                     14                     15
                      A                      A                      A
 Frequencies --    272.1081               294.4391               349.4260
 Red. masses --      2.5575                 2.5473                 2.5842
 Frc consts  --      0.1116                 0.1301                 0.1859
 IR Inten    --     12.4354                 6.9013                14.7791

                     16                     17                     18
                      A                      A                      A
 Frequencies --    356.8628               366.4991               402.9393
 Red. masses --      3.6381                 2.1734                 2.8437
 Frc consts  --      0.2730                 0.1720                 0.2720
 IR Inten    --      2.5740                 4.3277                 2.4455

                     19                     20                     21
                      A                      A                      A
 Frequencies --    420.0019               429.3536               471.5778
 Red. masses --      1.9941                 2.9950                 2.8139
 Frc consts  --      0.2073                 0.3253                 0.3687
 IR Inten    --      1.3815                 1.1672                 1.0092

                     22                     23                     24
                      A                      A                      A
 Frequencies --    496.2160               546.3602               566.2303
 Red. masses --      3.4011                 3.3524                 2.6160
 Frc consts  --      0.4934                 0.5896                 0.4942
 IR Inten    --      1.3386                10.0751                 0.1746

                     25                     26                     27
                      A                      A                      A
 Frequencies --    579.8466               653.4087               727.4109
 Red. masses --      3.3738                 2.2434                 2.5657
 Frc consts  --      0.6683                 0.5643                 0.7998
 IR Inten    --     16.6019                 7.2177                 6.7987

                     28                     29                     30
                      A                      A                      A
 Frequencies --    772.4512               789.8158               811.9816
 Red. masses --      2.5690                 1.1650                 1.1518
 Frc consts  --      0.9032                 0.4282                 0.4474
 IR Inten    --     43.9885                 0.8386                 2.1007

                     31                     32                     33
                      A                      A                      A
 Frequencies --    844.1448               866.5224               869.3402
 Red. masses --      1.7942                 1.7531                 2.8417
 Frc consts  --      0.7533                 0.7755                 1.2653
 IR Inten    --     88.8232                 1.1263                 9.7281

                     34                     35                     36
                      A                      A                      A
 Frequencies --    909.4244               920.2778               930.9017
 Red. masses --      2.4000                 2.6201                 2.0664
 Frc consts  --      1.1695                 1.3074                 1.0551
 IR Inten    --     12.1592                 6.3574                 2.9974

                     37                     38                     39
                      A                      A                      A
 Frequencies --    940.2632               962.6843               968.7084
 Red. masses --      1.8878                 1.4558                 2.8404
 Frc consts  --      0.9833                 0.7949                 1.5704
 IR Inten    --      6.6429                 3.8741                 8.7214

                     40                     41                     42
                      A                      A                      A
 Frequencies --    992.4568              1023.9598              1033.0742
 Red. masses --      2.0586                 1.6656                 2.2713
 Frc consts  --      1.1947                 1.0289                 1.4282
 IR Inten    --     18.3724                11.6169                 3.3740

                     43                     44                     45
                      A                      A                      A
 Frequencies --   1036.6934              1060.3971              1060.8386
 Red. masses --      2.4138                 1.5516                 1.9422
 Frc consts  --      1.5285                 1.0279                 1.2878
 IR Inten    --      0.3192                11.2244                43.0173

                     46                     47                     48
                      A                      A                      A
 Frequencies --   1085.9960              1103.7964              1104.4463
 Red. masses --      1.3945                 1.9645                 1.7407
 Frc consts  --      0.9690                 1.4102                 1.2510
 IR Inten    --      2.9677                 3.9628                 7.1363

                     49                     50                     51
                      A                      A                      A
 Frequencies --   1124.8849              1137.6869              1145.5211
 Red. masses --      1.8038                 2.1376                 2.2172
 Frc consts  --      1.3448                 1.6301                 1.7142
 IR Inten    --     12.2230                15.9926                26.4559

                     52                     53                     54
                      A                      A                      A
 Frequencies --   1153.1481              1184.5314              1202.3087
 Red. masses --      5.5993                 3.7476                 1.3053
 Frc consts  --      4.3869                 3.0981                 1.1117
 IR Inten    --     92.4427                50.7092                 2.2071

                     55                     56                     57
                      A                      A                      A
 Frequencies --   1230.7932              1241.7892              1254.8142
 Red. masses --      1.9143                 1.3261                 1.2173
 Frc consts  --      1.7086                 1.2048                 1.1293
 IR Inten    --     18.8412                 9.4123                 4.5703

                     58                     59                     60
                      A                      A                      A
 Frequencies --   1267.9094              1291.0121              1304.7508
 Red. masses --      1.6553                 1.5078                 1.4349
 Frc consts  --      1.5678                 1.4807                 1.4392
 IR Inten    --    175.4576                 0.0844                14.7876

                     61                     62                     63
                      A                      A                      A
 Frequencies --   1312.5927              1341.0822              1356.8844
 Red. masses --      1.5865                 1.2220                 1.4510
 Frc consts  --      1.6105                 1.2949                 1.5740
 IR Inten    --     45.7784                11.8104                10.8964

                     64                     65                     66
                      A                      A                      A
 Frequencies --   1360.5989              1371.2881              1375.4512
 Red. masses --      1.3596                 1.4104                 1.2871
 Frc consts  --      1.4830                 1.5626                 1.4346
 IR Inten    --     13.3344                 0.1083                 1.9472

                     67                     68                     69
                      A                      A                      A
 Frequencies --   1402.4700              1408.4398              1415.8068
 Red. masses --      1.8496                 1.2716                 1.3670
 Frc consts  --      2.1434                 1.4862                 1.6144
 IR Inten    --      0.3836                15.5311                 7.6209

                     70                     71                     72
                      A                      A                      A
 Frequencies --   1435.7863              1440.2965              1441.7176
 Red. masses --      1.2629                 1.5366                 1.3659
 Frc consts  --      1.5339                 1.8781                 1.6727
 IR Inten    --      3.1808                 4.8937                 3.1755

                     73                     74                     75
                      A                      A                      A
 Frequencies --   1477.0378              1494.8817              1500.1282
 Red. masses --      2.3111                 1.0888                 1.1952
 Frc consts  --      2.9706                 1.4335                 1.5847
 IR Inten    --    139.8937                 3.2020                39.3891

                     76                     77                     78
                      A                      A                      A
 Frequencies --   1508.8889              1512.6694              1513.0990
 Red. masses --      1.0896                 1.0885                 1.0861
 Frc consts  --      1.4616                 1.4674                 1.4651
 IR Inten    --      4.9006                 5.2734                 0.7574

                     79                     80                     81
                      A                      A                      A
 Frequencies --   1518.8343              1526.1426              1526.9380
 Red. masses --      1.1517                 1.1062                 1.0624
 Frc consts  --      1.5654                 1.5179                 1.4594
 IR Inten    --      8.0813                 7.9736                 1.1427

                     82                     83                     84
                      A                      A                      A
 Frequencies --   1532.8373              1536.1894              1537.6277
 Red. masses --      1.2380                 1.0855                 1.2427
 Frc consts  --      1.7138                 1.5092                 1.7311
 IR Inten    --      3.3424                 9.9120                22.4728

                     85                     86                     87
                      A                      A                      A
 Frequencies --   1549.6089              1745.7673              2989.6252
 Red. masses --      1.0926                10.4244                 1.0672
 Frc consts  --      1.5458                18.7186                 5.6199
 IR Inten    --      0.7187               311.1603                36.5564

                     88                     89                     90
                      A                      A                      A
 Frequencies --   2991.7009              3003.0461              3026.5139
 Red. masses --      1.0709                 1.0710                 1.0708
 Frc consts  --      5.6472                 5.6905                 5.7791
 IR Inten    --     33.5929                47.8734                11.3282

                     91                     92                     93
                      A                      A                      A
 Frequencies --   3028.7536              3035.0124              3039.0448
 Red. masses --      1.0674                 1.0714                 1.0640
 Frc consts  --      5.7689                 5.8144                 5.7901
 IR Inten    --     58.6073                77.8976                28.7897

                     94                     95                     96
                      A                      A                      A
 Frequencies --   3044.3657              3049.1788              3080.6510
 Red. masses --      1.0674                 1.0598                 1.0988
 Frc consts  --      5.8286                 5.8058                 6.1443
 IR Inten    --      3.0111                65.9728                10.3603

                     97                     98                     99
                      A                      A                      A
 Frequencies --   3085.0853              3112.4968              3116.3846
 Red. masses --      1.0966                 1.1019                 1.0945
 Frc consts  --      6.1496                 6.2896                 6.2625
 IR Inten    --     15.9484                43.7741                42.3694

                    100                    101                    102
                      A                      A                      A
 Frequencies --   3118.6413              3121.8039              3138.6295
 Red. masses --      1.1022                 1.0955                 1.0510
 Frc consts  --      6.3160                 6.2902                 6.0998
 IR Inten    --     49.7397                39.7067                21.3276

                    103                    104                    105
                      A                      A                      A
 Frequencies --   3143.1495              3161.4244              3164.1187
 Red. masses --      1.0578                 1.0908                 1.0922
 Frc consts  --      6.1569                 6.4232                 6.4426
 IR Inten    --     13.4050                12.5803                 6.3483

                    106                    107                    108
                      A                      A                      A
 Frequencies --   3212.9383              3227.3254              3481.7744
 Red. masses --      1.1192                 1.1166                 1.0722
 Frc consts  --      6.8071                 6.8524                 7.6582
 IR Inten    --      2.9135                23.3269                 2.2047

 - Thermochemistry -
 -------------------
 Temperature   298.150 Kelvin.  Pressure   1.00000 Atm.
 Atom     1 has atomic number  6 and mass  12.00000

 Molecular mass:   226.16813 amu.
 Principal axes and moments of inertia in atomic units:
                           1         2         3
     Eigenvalues --  1484.656158736.370609274.92259
           X            0.99999  -0.00319  -0.00315
           Y            0.00317   0.99998  -0.00626
           Z            0.00317   0.00625   0.99998
 This molecule is an asymmetric top.
 Rotational symmetry number  1.
 Warning -- assumption of classical behavior for rotation
           may cause significant error
 Rotational temperatures (Kelvin)      0.05834     0.00991     0.00934
 Rotational constants (GHZ):           1.21560     0.20658     0.19458
 Zero-point vibrational energy     894775.2 (Joules/Mol)
                                  213.85641 (Kcal/Mol)
 Warning -- explicit consideration of  25 degrees of freedom as
           vibrations may cause significant error
 Vibrational temperatures:     28.88    38.68    47.27    80.79    94.34
          (Kelvin)            147.36   200.80   222.88   269.58   322.07
                              350.11   384.19   391.50   423.63   502.75
                              513.45   527.31   579.74   604.29   617.74
                              678.50   713.94   786.09   814.68   834.27
                              940.11  1046.58  1111.39  1136.37  1168.26
                             1214.54  1246.73  1250.79  1308.46  1324.07
                             1339.36  1352.83  1385.09  1393.76  1427.92
                             1473.25  1486.36  1491.57  1525.67  1526.31
                             1562.51  1588.12  1589.05  1618.46  1636.88
                             1648.15  1659.12  1704.28  1729.85  1770.84
                             1786.66  1805.40  1824.24  1857.48  1877.25
                             1888.53  1929.52  1952.25  1957.60  1972.98
                             1978.97  2017.84  2026.43  2037.03  2065.78
                             2072.27  2074.31  2125.13  2150.80  2158.35
                             2170.95  2176.39  2177.01  2185.26  2195.78
                             2196.92  2205.41  2210.23  2212.30  2229.54
                             2511.77  4301.40  4304.39  4320.71  4354.48
                             4357.70  4366.71  4372.51  4380.16  4387.09
                             4432.37  4438.75  4478.19  4483.78  4487.03
                             4491.58  4515.79  4522.29  4548.58  4552.46
                             4622.70  4643.40  5009.50

 Zero-point correction=                           0.340802 (Hartree/Particle)
 Thermal correction to Energy=                    0.357411
 Thermal correction to Enthalpy=                  0.358356
 Thermal correction to Gibbs Free Energy=         0.294201
 Sum of electronic and zero-point Energies=           -730.163868
 Sum of electronic and thermal Energies=              -730.147258
 Sum of electronic and thermal Enthalpies=            -730.146314
 Sum of electronic and thermal Free Energies=         -730.210469

                     E (Thermal)             CV                S
                      KCal/Mol        Cal/Mol-Kelvin    Cal/Mol-Kelvin
 Total                  224.279             62.720            135.025
 Electronic               0.000              0.000              0.000
 Translational            0.889              2.981             42.151
 Rotational               0.889              2.981             33.153
 Vibrational            222.502             56.758             59.721
 Vibration     1          0.593              1.986              6.627
 Vibration     2          0.593              1.984              6.047
 Vibration     3          0.594              1.983              5.649
 Vibration     4          0.596              1.975              4.588
 Vibration     5          0.597              1.971              4.282
 Vibration     6          0.604              1.947              3.408
 Vibration     7          0.615              1.914              2.810
 Vibration     8          0.620              1.897              2.611
 Vibration     9          0.632              1.857              2.254
 Vibration    10          0.649              1.805              1.928
 Vibration    11          0.659              1.774              1.778
 Vibration    12          0.672              1.734              1.615
 Vibration    13          0.675              1.725              1.583
 Vibration    14          0.689              1.684              1.448
 Vibration    15          0.727              1.576              1.169
 Vibration    16          0.732              1.561              1.136
 Vibration    17          0.739              1.541              1.094
 Vibration    18          0.768              1.464              0.952
 Vibration    19          0.783              1.427              0.892
 Vibration    20          0.791              1.406              0.861
 Vibration    21          0.829              1.313              0.733
 Vibration    22          0.852              1.258              0.668
 Vibration    23          0.902              1.148              0.552
 Vibration    24          0.922              1.104              0.512
 Vibration    25          0.936              1.075              0.486

                           ! Non-Optimized Parameters !
 Normal termination of Gaussian 16 at Thu Dec 10 21:22:42 2020.

 ----------------------------------------------------------------------
 # B3LYP/6-311++G(d,p) empiricaldispersion=gd3bj scf=xqc pop=npa geom=c
 heck
 ----------------------------------------------------------------------

 ---------------------------------------
 CID_105694622_JID_6071_Energie_neutraal
 ---------------------------------------
 Structure from the checkpoint file:  "JID_6071.chk"
 Charge =  0 Multiplicity = 1

 SCF Done:  E(RB3LYP) =  -730.713830146     A.U. after   14 cycles
 Normal termination of Gaussian 16 at Thu Dec 10 21:28:42 2020.

 ----------------------------------------------------------------------
 # B3LYP/6-311++G(d,p) empiricaldispersion=gd3bj scf=xqc pop=npa geom=c
 heck
 ----------------------------------------------------------------------

 -------------------------------------
 CID_105694622_JID_6071_Energie_kation
 -------------------------------------
 Structure from the checkpoint file:  "JID_6071.chk"
 Charge =  1 Multiplicity = 2

 SCF Done:  E(UB3LYP) =  -730.412566312     A.U. after   29 cycles
 Normal termination of Gaussian 16 at Thu Dec 10 21:47:28 2020.
 Gaussian 16:  ES64L-G16RevA.03 25-Dec-2016

 ----------------------------------------------------------------------
 # B3LYP/6-311++G(d,p) empiricaldispersion=gd3bj scf=xqc pop=npa geom=c
 heck
 ----------------------------------------------------------------------

 ------------------------------------
 CID_105694622_JID_6071_Energie_anion
 ------------------------------------
 Structure from the checkpoint file:  "JID_6071.chk"
 Charge = -1 Multiplicity = 2

                         Standard orientation:
 ---------------------------------------------------------------------
 Center     Atomic      Atomic             Coordinates (Angstroms)
 Number     Number       Type             X           Y           Z
 ---------------------------------------------------------------------
      1          6           0       -4.656863    1.746351    0.604757
      2          6           0       -4.331669    0.570444   -0.321394
      3          6           0       -3.257729   -0.357362    0.227836
      4          6           0       -3.668975   -1.416105    1.221231
      5          6           0       -3.289770   -1.812656   -0.186873
      6          6           0       -1.876562    0.242521    0.397037
      7          7           0       -1.347794    0.674486   -0.902880
      8          6           0        0.057793    1.017540   -0.846070
      9          6           0        0.972358   -0.222996   -0.743055
     10          8           0        0.500299   -1.349022   -0.888684
     11          7           0        2.306602   -0.021446   -0.515227
     12          6           0        3.217142   -1.163471   -0.450007
     13          6           0        4.081276   -1.049730    0.802469
     14          8           0        4.767148    0.197718    0.844148
     15          6           0        3.854841    1.283075    0.845510
     16          6           0        2.975872    1.269976   -0.407657
     17          1           0       -4.951005    1.393399    1.600422
     18          1           0       -5.479230    2.348436    0.202332
     19          1           0       -3.793015    2.409126    0.725034
     20          1           0       -5.243402   -0.015361   -0.498228
     21          1           0       -4.006042    0.952092   -1.296420
     22          1           0       -2.984252   -1.668205    2.026896
     23          1           0       -4.718684   -1.465102    1.499837
     24          1           0       -4.082200   -2.136110   -0.856861
     25          1           0       -2.337379   -2.314063   -0.339171
     26          1           0       -1.915191    1.121759    1.054603
     27          1           0       -1.226680   -0.500701    0.886978
     28          1           0       -1.441204   -0.119530   -1.536508
     29          1           0        0.341417    1.579248   -1.747798
     30          1           0        0.218770    1.690084    0.004285
     31          1           0        3.861160   -1.168279   -1.340897
     32          1           0        2.614007   -2.071836   -0.445439
     33          1           0        3.449375   -1.161866    1.698468
     34          1           0        4.851915   -1.825318    0.814755
     35          1           0        4.455407    2.196462    0.884330
     36          1           0        3.211820    1.240993    1.740593
     37          1           0        3.609177    1.428431   -1.292862
     38          1           0        2.247717    2.079964   -0.364010
 ---------------------------------------------------------------------

 SCF Done:  E(UB3LYP) =  -730.701856544     A.U. after   33 cycles
 SCF Done:  E(UB3LYP) =  -730.701856544     a.u. after    1 cycles

 The electronic state is 2-A.
 Alpha  occ. eigenvalues --  -19.03811 -18.99385 -14.25172 -14.19965 -10.17493
 Alpha  occ. eigenvalues --  -10.13101 -10.12505 -10.11465 -10.11179 -10.10574
 Alpha  occ. eigenvalues --  -10.09269 -10.09136 -10.08134 -10.07868 -10.07649
 Alpha  occ. eigenvalues --  -10.06796  -0.95752  -0.94450  -0.84521  -0.81621
 Alpha  occ. eigenvalues --   -0.77240  -0.69200  -0.66862  -0.64801  -0.61566
 Alpha  occ. eigenvalues --   -0.57760  -0.55462  -0.54228  -0.51654  -0.50976
 Alpha  occ. eigenvalues --   -0.45993  -0.45260  -0.42445  -0.40321  -0.39371
 Alpha  occ. eigenvalues --   -0.39027  -0.38846  -0.38602  -0.37195  -0.35702
 Alpha  occ. eigenvalues --   -0.35195  -0.34662  -0.33896  -0.32350  -0.31401
 Alpha  occ. eigenvalues --   -0.30838  -0.29811  -0.28928  -0.28525  -0.27981
 Alpha  occ. eigenvalues --   -0.27279  -0.27101  -0.26279  -0.25699  -0.23653
 Alpha  occ. eigenvalues --   -0.22986  -0.20098  -0.18861  -0.18624  -0.17137
 Alpha  occ. eigenvalues --   -0.14729  -0.13585   0.04255
 Alpha virt. eigenvalues --    0.05959   0.06849   0.07102   0.07663   0.08139
 Alpha virt. eigenvalues --    0.08336   0.09486   0.09603   0.10008   0.10471
 Alpha virt. eigenvalues --    0.10581   0.10814   0.11387   0.11585   0.12343

  Beta  occ. eigenvalues --  -19.03802 -18.99368 -14.25179 -14.19963 -10.17472
  Beta  occ. eigenvalues --  -10.13084 -10.12468 -10.11427 -10.11163 -10.10547
  Beta  occ. eigenvalues --  -10.09254 -10.09135 -10.08124 -10.07865 -10.07643
  Beta  occ. eigenvalues --  -10.06778  -0.95729  -0.94417  -0.84507  -0.81611
  Beta  occ. eigenvalues --   -0.77233  -0.69158  -0.66846  -0.64755  -0.61533
  Beta  occ. eigenvalues --   -0.57705  -0.55409  -0.54193  -0.51604  -0.50941
  Beta  occ. eigenvalues --   -0.45938  -0.45235  -0.42411  -0.40297  -0.39337
  Beta  occ. eigenvalues --   -0.38998  -0.38800  -0.38572  -0.37154  -0.35672
  Beta  occ. eigenvalues --   -0.35161  -0.34631  -0.33875  -0.32326  -0.31356
  Beta  occ. eigenvalues --   -0.30800  -0.29779  -0.28894  -0.28496  -0.27924
  Beta  occ. eigenvalues --   -0.27258  -0.27062  -0.26236  -0.25677  -0.23637
  Beta  occ. eigenvalues --   -0.22952  -0.20088  -0.18820  -0.18606  -0.17118
  Beta  occ. eigenvalues --   -0.14698  -0.13570
  Beta virt. eigenvalues --    0.06082   0.06731   0.07525   0.07549   0.08056
  Beta virt. eigenvalues --    0.08326   0.08753   0.09831   0.09988   0.10327
  Beta virt. eigenvalues --    0.10718   0.10877   0.10981   0.11533   0.11700

 Mulliken charges and spin densities:
               1          2
     1  C    0.044451  -0.707804
     2  C   -0.018386   0.028985
     3  C    0.152728   0.732375
     4  C   -0.391781  -0.145813
     5  C   -0.509547   0.040294
     6  C   -0.210975  -0.930529
     7  N    0.057884   0.099169
     8  C    0.519669  -0.976504
     9  C   -0.234982   0.099024
    10  O   -0.340112   0.010518
    11  N   -0.041776   0.159916
    12  C   -0.017548  -0.056848
    13  C    0.290601  -0.589549
    14  O   -0.217986   0.094138
    15  C    1.144286  -1.576737
    16  C    0.128538  -0.238800
    17  H   -0.009797   0.148159
    18  H   -0.005184   0.134406
    19  H   -0.110222   0.270422
    20  H   -0.030176   0.151376
    21  H    0.158696  -0.005072
    22  H   -0.033097   0.183445
    23  H    0.047459   0.093788
    24  H    0.101145   0.037053
    25  H    0.142588   0.033216
    26  H   -0.238165   0.398228
    27  H    0.250473  -0.121932
    28  H    0.218812   0.015812
    29  H   -0.172140   0.387682
    30  H    0.073847   0.139089
    31  H   -0.149690   0.315793
    32  H    0.133354   0.039688
    33  H   -0.074420   0.203114
    34  H   -0.074412   0.255644
    35  H   -0.474298   0.671300
    36  H   -0.172979   0.317146
    37  H   -0.201358   0.387557
    38  H   -0.735500   0.902251
 Sum of Mulliken charges =  -1.00000   1.00000

 Dipole moment (field-independent basis, Debye):
    X=             -3.9746    Y=             -5.1366    Z=             -1.1784  Tot=              6.6009
 Quadrupole moment (field-independent basis, Debye-Ang):
   XX=           -191.7448   YY=           -150.7616   ZZ=           -130.8174
   XY=             -8.5710   XZ=              2.3945   YZ=             -2.3644

 Summary of Natural Population Analysis:

                                       Natural Population
                Natural  -----------------------------------------------
    Atom  No    Charge         Core      Valence    Rydberg      Total
 -----------------------------------------------------------------------
      C    1   -0.28497      0.99966     2.28087    0.00444     3.28497
      C    2   -0.18652      0.99959     2.17751    0.00942     3.18652
      C    3   -0.04745      0.99954     2.03478    0.01313     3.04745
      C    4   -0.19507      0.99958     2.18761    0.00788     3.19507
      C    5   -0.19948      0.99959     2.19183    0.00807     3.19948
      C    6   -0.08514      0.99956     2.07295    0.01264     3.08514
      N    7   -0.33764      0.99975     2.82644    0.01145     3.83764
      C    8   -0.12987      0.99960     2.11936    0.01091     3.12987
      C    9    0.34356      0.99964     1.63364    0.02315     2.65644
      O   10   -0.33595      0.99988     3.33072    0.00535     4.33595
      N   11   -0.25871      0.99964     2.74757    0.01151     3.75871
      C   12   -0.10125      0.99961     2.09218    0.00946     3.10125
      C   13   -0.01279      0.99958     2.00240    0.01081     3.01279
      O   14   -0.29768      0.99989     3.28810    0.00969     4.29768
      C   15   -0.01422      0.99958     2.00059    0.01405     3.01422
      C   16   -0.09866      0.99960     2.08737    0.01168     3.09866
      H   17    0.09531      0.00000     0.40350    0.00119     0.40469
      H   18    0.09603      0.00000     0.40307    0.00090     0.40397
      H   19    0.10087      0.00000     0.39800    0.00113     0.39913
      H   20    0.09200      0.00000     0.40688    0.00112     0.40800
      H   21    0.10391      0.00000     0.39480    0.00129     0.39609
      H   22    0.10320      0.00000     0.39584    0.00096     0.39680
      H   23    0.09989      0.00000     0.39917    0.00094     0.40011
      H   24    0.09817      0.00000     0.40090    0.00093     0.40183
      H   25    0.11067      0.00000     0.38841    0.00092     0.38933
      H   26    0.09450      0.00000     0.40401    0.00149     0.40550
      H   27    0.08842      0.00000     0.40959    0.00199     0.41158
      H   28    0.17756      0.00000     0.31920    0.00324     0.32244
      H   29    0.10516      0.00000     0.39347    0.00137     0.39484
      H   30    0.10687      0.00000     0.39095    0.00217     0.39313
      H   31    0.09326      0.00000     0.40533    0.00141     0.40674
      H   32    0.11848      0.00000     0.38023    0.00129     0.38152
      H   33    0.08030      0.00000     0.41791    0.00180     0.41970
      H   34    0.09206      0.00000     0.40656    0.00138     0.40794
      H   35    0.09780      0.00000     0.39992    0.00228     0.40220
      H   36    0.08041      0.00000     0.41751    0.00208     0.41959
      H   37    0.09526      0.00000     0.40260    0.00214     0.40474
      H   38    0.11174      0.00000     0.38468    0.00358     0.38826
 =======================================================================
   * Total *    0.00000     15.99430    45.79643    0.20927    62.00000

 Normal termination of Gaussian 16 at Thu Dec 10 22:11:41 2020.
