 Gaussian 16, Revision A.03,

 -----------------------------------------------------------
 # opt freq B3LYP/6-31G(d) empiricaldispersion=gd3bj scf=xqc
 -----------------------------------------------------------

 ------------------------------
 CID_91503485_JID_7761_neutraal
 ------------------------------
 Symbolic Z-matrix:
 Charge =  0 Multiplicity = 1

 SCF Done:  E(RB3LYP) =  -705.543757677     A.U. after   15 cycles
 SCF Done:  E(RB3LYP) =  -705.566124708     A.U. after   13 cycles
 SCF Done:  E(RB3LYP) =  -705.567485514     A.U. after   13 cycles
 SCF Done:  E(RB3LYP) =  -705.567499356     A.U. after   12 cycles
 SCF Done:  E(RB3LYP) =  -705.567888130     A.U. after   12 cycles
 SCF Done:  E(RB3LYP) =  -705.567870633     A.U. after   12 cycles
 SCF Done:  E(RB3LYP) =  -705.568020646     A.U. after   12 cycles
 SCF Done:  E(RB3LYP) =  -705.568113289     A.U. after   11 cycles
 SCF Done:  E(RB3LYP) =  -705.568222282     A.U. after   12 cycles
 SCF Done:  E(RB3LYP) =  -705.568207140     A.U. after   11 cycles
 SCF Done:  E(RB3LYP) =  -705.568729794     A.U. after   12 cycles
 SCF Done:  E(RB3LYP) =  -705.568749071     A.U. after   11 cycles
 SCF Done:  E(RB3LYP) =  -705.568747843     A.U. after   10 cycles
 SCF Done:  E(RB3LYP) =  -705.568749744     A.U. after   10 cycles
 SCF Done:  E(RB3LYP) =  -705.568749612     A.U. after    8 cycles
 SCF Done:  E(RB3LYP) =  -705.568749862     A.U. after    8 cycles
 Optimization completed on the basis of negligible forces.
    -- Stationary point found.
 Normal termination of Gaussian 16 at Fri Dec 11 13:34:33 2020.

 --------------------------------------------------------------------
 #N Geom=AllCheck Guess=TCheck SCRF=Check GenChk RB3LYP/6-31G(d) Freq
 --------------------------------------------------------------------

 Structure from the checkpoint file:  "JID_7761.chk"
 ------------------------------
 CID_91503485_JID_7761_neutraal
 ------------------------------
 Charge =  0 Multiplicity = 1

 SCF Done:  E(RB3LYP) =  -705.568749862     A.U. after    1 cycles

  Exact polarizability: 312.627  -2.164 144.417  -3.546  -1.562  82.085
 Approx polarizability: 449.593  -4.760 257.851  -3.734  -5.438 121.493

                      1                      2                      3
                      A                      A                      A
 Frequencies --     10.2196                30.2792                40.9547
 Red. masses --      3.6825                 3.3245                 4.6631
 Frc consts  --      0.0002                 0.0018                 0.0046
 IR Inten    --      0.5218                 0.3232                 0.0963

                      4                      5                      6
                      A                      A                      A
 Frequencies --     58.1304               104.4945               152.2071
 Red. masses --      3.0217                 4.8520                 3.7615
 Frc consts  --      0.0060                 0.0312                 0.0513
 IR Inten    --      0.0456                 0.7754                 0.1944

                      7                      8                      9
                      A                      A                      A
 Frequencies --    173.3380               211.3033               258.3329
 Red. masses --      5.3067                 4.9423                 2.8598
 Frc consts  --      0.0939                 0.1300                 0.1124
 IR Inten    --      0.0142                 0.3076                 4.5089

                     10                     11                     12
                      A                      A                      A
 Frequencies --    301.1638               354.3243               365.4297
 Red. masses --      3.5445                 4.6895                 4.8591
 Frc consts  --      0.1894                 0.3469                 0.3823
 IR Inten    --      4.6582                 3.7529                 1.3635

                     13                     14                     15
                      A                      A                      A
 Frequencies --    419.0144               482.1094               486.3487
 Red. masses --      4.1842                 5.4463                 3.4174
 Frc consts  --      0.4328                 0.7458                 0.4763
 IR Inten    --      0.4539                 5.9980                 0.8926

                     16                     17                     18
                      A                      A                      A
 Frequencies --    507.0922               523.6974               548.5556
 Red. masses --      5.0332                 7.9277                 2.8125
 Frc consts  --      0.7625                 1.2810                 0.4986
 IR Inten    --      0.9007                 1.6607                 2.0378

                     19                     20                     21
                      A                      A                      A
 Frequencies --    568.2828               572.2754               665.5486
 Red. masses --      6.7241                 5.2966                 6.6342
 Frc consts  --      1.2794                 1.0220                 1.7314
 IR Inten    --      1.5726                11.1539                 9.7742

                     22                     23                     24
                      A                      A                      A
 Frequencies --    667.3670               669.8265               707.9346
 Red. masses --      3.1673                 2.9184                 5.4169
 Frc consts  --      0.8311                 0.7715                 1.5995
 IR Inten    --      2.7409                 0.4381                 0.0328

                     25                     26                     27
                      A                      A                      A
 Frequencies --    799.6309               801.2714               805.3445
 Red. masses --      5.2831                 2.6272                 1.4708
 Frc consts  --      1.9903                 0.9938                 0.5620
 IR Inten    --      1.6544                 0.0599                 4.7744

                     28                     29                     30
                      A                      A                      A
 Frequencies --    842.3304               863.5493               867.9412
 Red. masses --      1.8009                 2.3955                 1.9679
 Frc consts  --      0.7529                 1.0525                 0.8734
 IR Inten    --    120.0400                81.3168                34.6537

                     31                     32                     33
                      A                      A                      A
 Frequencies --    893.1891               905.1196               936.2354
 Red. masses --      1.3753                 5.6326                 2.7849
 Frc consts  --      0.6464                 2.7188                 1.4383
 IR Inten    --      1.1385                28.8669                 1.3333

                     34                     35                     36
                      A                      A                      A
 Frequencies --    945.1301               949.6753               971.4995
 Red. masses --      2.9248                 1.5393                 3.9127
 Frc consts  --      1.5393                 0.8179                 2.1758
 IR Inten    --     29.3133                12.0513                 2.4609

                     37                     38                     39
                      A                      A                      A
 Frequencies --    992.8772              1000.2886              1021.2200
 Red. masses --      1.3077                 1.4876                 1.5768
 Frc consts  --      0.7596                 0.8770                 0.9689
 IR Inten    --      0.1494                 0.5087                 0.2299

                     40                     41                     42
                      A                      A                      A
 Frequencies --   1039.8689              1052.4773              1067.0499
 Red. masses --      1.9620                 2.3779                 2.1493
 Frc consts  --      1.2500                 1.5519                 1.4418
 IR Inten    --     12.5726                12.9213                 0.8617

                     43                     44                     45
                      A                      A                      A
 Frequencies --   1116.9145              1121.0703              1178.0071
 Red. masses --      4.8821                 3.4138                 1.4132
 Frc consts  --      3.5884                 2.5278                 1.1555
 IR Inten    --     18.7689                 9.6916                12.4950

                     46                     47                     48
                      A                      A                      A
 Frequencies --   1210.1957              1227.4277              1244.9438
 Red. masses --      1.2831                 1.9547                 1.2834
 Frc consts  --      1.1072                 1.7351                 1.1720
 IR Inten    --      3.0628                12.6656                 7.4207

                     49                     50                     51
                      A                      A                      A
 Frequencies --   1262.4304              1281.1087              1295.7281
 Red. masses --      3.2130                 2.3338                 1.2577
 Frc consts  --      3.0170                 2.2567                 1.2441
 IR Inten    --      1.0388                 1.8527                 2.6709

                     52                     53                     54
                      A                      A                      A
 Frequencies --   1303.6794              1305.8894              1328.8465
 Red. masses --      1.3643                 1.6885                 1.2932
 Frc consts  --      1.3661                 1.6965                 1.3454
 IR Inten    --      0.8813                 0.4759                17.3771

                     55                     56                     57
                      A                      A                      A
 Frequencies --   1345.9691              1362.8766              1376.6377
 Red. masses --      1.1991                 1.5933                 2.2738
 Frc consts  --      1.2799                 1.7437                 2.5389
 IR Inten    --      2.0111                17.7936                22.3775

                     58                     59                     60
                      A                      A                      A
 Frequencies --   1397.3343              1399.2223              1416.1965
 Red. masses --      1.9096                 1.5873                 3.4193
 Frc consts  --      2.1968                 1.8310                 4.0404
 IR Inten    --      2.5541                 4.8134                39.7705

                     61                     62                     63
                      A                      A                      A
 Frequencies --   1457.5099              1476.6508              1487.4762
 Red. masses --      3.6953                 2.3845                 1.1537
 Frc consts  --      4.6252                 3.0634                 1.5040
 IR Inten    --     10.0036                 5.0728                 7.0613

                     64                     65                     66
                      A                      A                      A
 Frequencies --   1521.6312              1523.7758              1541.8357
 Red. masses --      1.0814                 1.0858                 1.1070
 Frc consts  --      1.4753                 1.4855                 1.5505
 IR Inten    --      0.5613                 2.1965                 6.5007

                     67                     68                     69
                      A                      A                      A
 Frequencies --   1543.2945              1602.6861              1632.8693
 Red. masses --      3.1584                 7.3519                 5.7187
 Frc consts  --      4.4322                11.1262                 8.9836
 IR Inten    --     50.7880                29.1312               106.7639

                     70                     71                     72
                      A                      A                      A
 Frequencies --   1676.1165              2341.4978              3029.2308
 Red. masses --      6.2217                11.9497                 1.0834
 Frc consts  --     10.2983                38.6008                 5.8576
 IR Inten    --      3.6966                70.4884                18.7156

                     73                     74                     75
                      A                      A                      A
 Frequencies --   3059.1205              3063.0851              3084.4677
 Red. masses --      1.0656                 1.0665                 1.0615
 Frc consts  --      5.8754                 5.8954                 5.9502
 IR Inten    --     43.3092                39.5175                24.8040

                     76                     77                     78
                      A                      A                      A
 Frequencies --   3113.5849              3132.2150              3134.4872
 Red. masses --      1.1006                 1.1026                 1.1065
 Frc consts  --      6.2865                 6.3734                 6.4054
 IR Inten    --     12.4127                17.9618                51.3610

                     79                     80                     81
                      A                      A                      A
 Frequencies --   3150.5562              3193.0767              3202.3232
 Red. masses --      1.0905                 1.0910                 1.0911
 Frc consts  --      6.3777                 6.5539                 6.5925
 IR Inten    --     22.3860                36.9999                 5.9205

                     82                     83                     84
                      A                      A                      A
 Frequencies --   3209.2656              3226.6491              3470.4150
 Red. masses --      1.0881                 1.0957                 1.0744
 Frc consts  --      6.6029                 6.7212                 7.6242
 IR Inten    --      2.6923                 6.7364                 1.1467

 - Thermochemistry -
 -------------------
 Temperature   298.150 Kelvin.  Pressure   1.00000 Atm.
 Atom     1 has atomic number  6 and mass  12.00000

 Molecular mass:   223.11095 amu.
 Principal axes and moments of inertia in atomic units:
                           1         2         3
     Eigenvalues --   937.86980********************
           X            1.00000   0.00026  -0.00229
           Y           -0.00024   0.99998   0.00634
           Z            0.00230  -0.00634   0.99998
 This molecule is an asymmetric top.
 Rotational symmetry number  1.
 Warning -- assumption of classical behavior for rotation
           may cause significant error
 Rotational temperatures (Kelvin)      0.09235     0.00733     0.00705
 Rotational constants (GHZ):           1.92430     0.15278     0.14682
 Zero-point vibrational energy     644076.8 (Joules/Mol)
                                  153.93804 (Kcal/Mol)
 Warning -- explicit consideration of  20 degrees of freedom as
           vibrations may cause significant error
 Vibrational temperatures:     14.70    43.57    58.92    83.64   150.34
          (Kelvin)            218.99   249.39   304.02   371.68   433.31
                              509.79   525.77   602.87   693.65   699.75
                              729.59   753.48   789.25   817.63   823.38
                              957.58   960.19   963.73  1018.56  1150.49
                             1152.85  1158.71  1211.93  1242.45  1248.77
                             1285.10  1302.27  1347.03  1359.83  1366.37
                             1397.77  1428.53  1439.19  1469.31  1496.14
                             1514.28  1535.25  1606.99  1612.97  1694.89
                             1741.20  1765.99  1791.20  1816.36  1843.23
                             1864.26  1875.70  1878.88  1911.91  1936.55
                             1960.88  1980.67  2010.45  2013.17  2037.59
                             2097.03  2124.57  2140.15  2189.29  2192.37
                             2218.36  2220.46  2305.91  2349.33  2411.56
                             3368.89  4358.39  4401.39  4407.10  4437.86
                             4479.75  4506.56  4509.83  4532.95  4594.13
                             4607.43  4617.42  4642.43  4993.15

 Zero-point correction=                           0.245316 (Hartree/Particle)
 Thermal correction to Energy=                    0.259125
 Thermal correction to Enthalpy=                  0.260069
 Thermal correction to Gibbs Free Energy=         0.201103
 Sum of electronic and zero-point Energies=           -705.323434
 Sum of electronic and thermal Energies=              -705.309625
 Sum of electronic and thermal Enthalpies=            -705.308680
 Sum of electronic and thermal Free Energies=         -705.367647

                     E (Thermal)             CV                S
                      KCal/Mol        Cal/Mol-Kelvin    Cal/Mol-Kelvin
 Total                  162.604             53.211            124.105
 Electronic               0.000              0.000              0.000
 Translational            0.889              2.981             42.110
 Rotational               0.889              2.981             33.276
 Vibrational            160.826             47.249             48.719
 Vibration     1          0.593              1.987              7.968
 Vibration     2          0.594              1.984              5.811
 Vibration     3          0.594              1.981              5.212
 Vibration     4          0.596              1.974              4.520
 Vibration     5          0.605              1.946              3.369
 Vibration     6          0.619              1.900              2.644
 Vibration     7          0.627              1.875              2.399
 Vibration     8          0.643              1.824              2.032
 Vibration     9          0.667              1.749              1.673
 Vibration    10          0.693              1.671              1.410
 Vibration    11          0.730              1.566              1.147
 Vibration    12          0.739              1.543              1.099
 Vibration    13          0.782              1.429              0.895
 Vibration    14          0.838              1.290              0.704
 Vibration    15          0.842              1.280              0.693
 Vibration    16          0.862              1.234              0.641
 Vibration    17          0.879              1.198              0.601
 Vibration    18          0.904              1.143              0.547
 Vibration    19          0.924              1.100              0.508
 Vibration    20          0.928              1.091              0.500

 Optimization completed on the basis of negligible forces.
    -- Stationary point found.
 Normal termination of Gaussian 16 at Fri Dec 11 13:42:07 2020.

 ----------------------------------------------------------------------
 # B3LYP/6-311++G(d,p) empiricaldispersion=gd3bj scf=xqc pop=npa geom=c
 heck
 ----------------------------------------------------------------------

 --------------------------------------
 CID_91503485_JID_7761_Energie_neutraal
 --------------------------------------
 Structure from the checkpoint file:  "JID_7761.chk"
 Charge =  0 Multiplicity = 1

 SCF Done:  E(RB3LYP) =  -705.750828669     A.U. after   17 cycles
 Normal termination of Gaussian 16 at Fri Dec 11 13:45:47 2020.

 ----------------------------------------------------------------------
 # B3LYP/6-311++G(d,p) empiricaldispersion=gd3bj scf=xqc pop=npa geom=c
 heck
 ----------------------------------------------------------------------

 ------------------------------------
 CID_91503485_JID_7761_Energie_kation
 ------------------------------------
 Structure from the checkpoint file:  "JID_7761.chk"
 Charge =  1 Multiplicity = 2

 SCF Done:  E(UB3LYP) =  -705.461389178     A.U. after   26 cycles
 Normal termination of Gaussian 16 at Fri Dec 11 13:53:17 2020.
 Gaussian 16:  ES64L-G16RevA.03 25-Dec-2016

 ----------------------------------------------------------------------
 # B3LYP/6-311++G(d,p) empiricaldispersion=gd3bj scf=xqc pop=npa geom=c
 heck
 ----------------------------------------------------------------------

 -----------------------------------
 CID_91503485_JID_7761_Energie_anion
 -----------------------------------
 Structure from the checkpoint file:  "JID_7761.chk"
 Charge = -1 Multiplicity = 2

                         Standard orientation:
 ---------------------------------------------------------------------
 Center     Atomic      Atomic             Coordinates (Angstroms)
 Number     Number       Type             X           Y           Z
 ---------------------------------------------------------------------
      1          6           0       -4.328166    0.017275    1.235753
      2          6           0       -5.637440    0.516229    0.550092
      3          7           0       -5.688160   -0.059595   -0.805129
      4          6           0       -4.286162   -0.198731   -1.189920
      5          6           0       -3.543139   -0.695465    0.089964
      6          6           0       -2.111435   -0.438358    0.085185
      7          6           0       -0.923980   -0.192163    0.052409
      8          6           0        0.469134    0.105114    0.020602
      9          6           0        1.421796   -0.903359    0.064289
     10          6           0        2.796689   -0.584423    0.032409
     11          6           0        3.835669   -1.549474    0.073293
     12          7           0        5.113186   -1.231911    0.042904
     13          6           0        5.394592    0.100022   -0.031532
     14          7           0        4.542586    1.101663   -0.076428
     15          6           0        3.219141    0.775066   -0.045023
     16          6           0        2.234736    1.794981   -0.089426
     17          6           0        0.901998    1.467071   -0.057462
     18          1           0       -4.524184   -0.675665    2.058922
     19          1           0       -3.746886    0.850533    1.639712
     20          1           0       -6.542073    0.254605    1.105892
     21          1           0       -5.614416    1.608385    0.458860
     22          1           0       -6.098700   -0.991373   -0.748109
     23          1           0       -3.892235    0.783853   -1.476724
     24          1           0       -4.168549   -0.874486   -2.040934
     25          1           0       -3.709150   -1.778496    0.168799
     26          1           0        1.110662   -1.942168    0.123610
     27          1           0        3.586605   -2.609928    0.132846
     28          1           0        6.452501    0.352132   -0.056112
     29          1           0        2.568291    2.825607   -0.148584
     30          1           0        0.144255    2.243201   -0.091407
 ---------------------------------------------------------------------

 SCF Done:  E(UB3LYP) =  -705.776117819     A.U. after   31 cycles

 The electronic state is 2-A.
 Alpha  occ. eigenvalues --  -14.22679 -14.15286 -14.14627 -10.12006 -10.11205
 Alpha  occ. eigenvalues --  -10.10700 -10.08948 -10.07143 -10.06797 -10.05066
 Alpha  occ. eigenvalues --  -10.04833 -10.04390 -10.04138 -10.04096 -10.03876
 Alpha  occ. eigenvalues --  -10.02442 -10.02259  -0.84791  -0.82295  -0.73437
 Alpha  occ. eigenvalues --   -0.71430  -0.70007  -0.65369  -0.64004  -0.61915
 Alpha  occ. eigenvalues --   -0.59255  -0.53303  -0.52212  -0.50909  -0.49664
 Alpha  occ. eigenvalues --   -0.46615  -0.43566  -0.42088  -0.39659  -0.39131
 Alpha  occ. eigenvalues --   -0.36564  -0.36040  -0.35645  -0.32027  -0.31036
 Alpha  occ. eigenvalues --   -0.30507  -0.29397  -0.28731  -0.28210  -0.27921
 Alpha  occ. eigenvalues --   -0.27439  -0.26753  -0.25643  -0.24521  -0.23065
 Alpha  occ. eigenvalues --   -0.21985  -0.18491  -0.17332  -0.15703  -0.15033
 Alpha  occ. eigenvalues --   -0.14387  -0.12065  -0.09824  -0.09371   0.03256
 Alpha virt. eigenvalues --    0.05053   0.07301   0.08115   0.08452   0.09722
 Alpha virt. eigenvalues --    0.10274   0.10444   0.10492   0.11206   0.11459
 Alpha virt. eigenvalues --    0.11527   0.12913   0.13139   0.13376   0.14524

  Beta  occ. eigenvalues --  -14.22676 -14.15258 -14.14331 -10.12005 -10.11192
  Beta  occ. eigenvalues --  -10.10709 -10.08937 -10.06989 -10.06854 -10.04993
  Beta  occ. eigenvalues --  -10.04844 -10.04106 -10.04011 -10.03997 -10.03888
  Beta  occ. eigenvalues --  -10.02044 -10.02039  -0.84782  -0.81864  -0.73028
  Beta  occ. eigenvalues --   -0.71014  -0.69895  -0.65319  -0.63813  -0.61530
  Beta  occ. eigenvalues --   -0.58955  -0.53211  -0.51869  -0.50474  -0.49548
  Beta  occ. eigenvalues --   -0.46195  -0.43557  -0.41889  -0.39419  -0.38919
  Beta  occ. eigenvalues --   -0.36534  -0.35824  -0.35634  -0.31837  -0.30993
  Beta  occ. eigenvalues --   -0.30307  -0.29339  -0.28570  -0.27980  -0.27420
  Beta  occ. eigenvalues --   -0.27087  -0.26517  -0.25620  -0.24325  -0.22045
  Beta  occ. eigenvalues --   -0.21840  -0.17744  -0.16522  -0.14985  -0.14775
  Beta  occ. eigenvalues --   -0.14188  -0.11220  -0.09635  -0.07697
  Beta virt. eigenvalues --    0.05029   0.07275   0.08062   0.08420   0.09275
  Beta virt. eigenvalues --    0.10102   0.10259   0.10426   0.10476   0.11189
  Beta virt. eigenvalues --    0.11445   0.11520   0.12929   0.13252   0.14283

 Mulliken charges and spin densities:
               1          2
     1  C   -0.530466   0.001810
     2  C   -0.383332  -0.002521
     3  N   -0.123548   0.002693
     4  C   -0.662480  -0.013999
     5  C    0.014149  -0.006649
     6  C    0.445082   0.078921
     7  C    0.470170  -0.029241
     8  C    0.898093   0.068299
     9  C   -1.079934   0.311608
    10  C    1.579896  -0.047759
    11  C   -0.521512   0.336022
    12  N   -0.158856   0.007611
    13  C    0.073545   0.119999
    14  N   -0.086130   0.128683
    15  C   -1.365775  -0.073402
    16  C   -0.446728   0.156117
    17  C   -0.985876   0.022260
    18  H    0.106112   0.001312
    19  H    0.172310  -0.000132
    20  H    0.137851   0.001197
    21  H    0.157550   0.001317
    22  H    0.211628   0.001510
    23  H    0.186098   0.002426
    24  H    0.151444   0.007472
    25  H    0.184789   0.000562
    26  H    0.057117  -0.023246
    27  H    0.112006  -0.028072
    28  H    0.159918  -0.010032
    29  H    0.140512  -0.012095
    30  H    0.086369  -0.002670
 Sum of Mulliken charges =  -1.00000   1.00000

 Dipole moment (field-independent basis, Debye):
    X=            -12.5986    Y=             -0.7952    Z=              0.8810  Tot=             12.6543
 Quadrupole moment (field-independent basis, Debye-Ang):
   XX=           -190.1393   YY=           -110.9798   ZZ=           -110.0241
   XY=              8.7481   XZ=             -6.6069   YZ=              1.5151

 Summary of Natural Population Analysis:

                                       Natural Population
                Natural  -----------------------------------------------
    Atom  No    Charge         Core      Valence    Rydberg      Total
 -----------------------------------------------------------------------
      C    1   -0.19365      0.99964     2.18738    0.00663     3.19365
      C    2   -0.09473      0.99966     2.08519    0.00988     3.09473
      N    3   -0.33475      0.99977     2.82285    0.01214     3.83475
      C    4   -0.08118      0.99964     2.07075    0.01079     3.08118
      C    5   -0.14955      0.99957     2.14208    0.00789     3.14955
      C    6   -0.02343      0.99924     2.01686    0.00732     3.02343
      C    7    0.01386      0.99922     1.98012    0.00680     2.98614
      C    8   -0.07323      0.99947     2.06460    0.00916     3.07323
      C    9    0.01091      0.99951     1.98189    0.00769     2.98909
      C   10   -0.08591      0.99948     2.07934    0.00709     3.08591
      C   11    0.14505      0.99959     1.83966    0.01569     2.85495
      N   12   -0.26377      0.99972     2.75161    0.01244     3.76377
      C   13    0.15712      0.99967     1.82236    0.02085     2.84288
      N   14   -0.22275      0.99968     2.71081    0.01225     3.72275
      C   15    0.08465      0.99948     1.90294    0.01293     2.91535
      C   16   -0.07275      0.99953     2.06317    0.01005     3.07275
      C   17   -0.07498      0.99955     2.06741    0.00803     3.07498
      H   18    0.09629      0.00000     0.40267    0.00105     0.40371
      H   19    0.10518      0.00000     0.39419    0.00063     0.39482
      H   20    0.09100      0.00000     0.40792    0.00108     0.40900
      H   21    0.08872      0.00000     0.40993    0.00135     0.41128
      H   22    0.16574      0.00000     0.33227    0.00199     0.33426
      H   23    0.09334      0.00000     0.40572    0.00095     0.40666
      H   24    0.09661      0.00000     0.40233    0.00106     0.40339
      H   25    0.10288      0.00000     0.39508    0.00204     0.39712
      H   26    0.08892      0.00000     0.40941    0.00167     0.41108
      H   27    0.07435      0.00000     0.42514    0.00050     0.42565
      H   28    0.06854      0.00000     0.43001    0.00145     0.43146
      H   29    0.09492      0.00000     0.40270    0.00238     0.40508
      H   30    0.09274      0.00000     0.40626    0.00100     0.40726
 =======================================================================
   * Total *    0.00013     16.99242    41.81266    0.19478    58.99987

 Normal termination of Gaussian 16 at Fri Dec 11 14:02:08 2020.
