 Gaussian 16, Revision A.03,

 -----------------------------------------------------------
 # opt freq B3LYP/6-31G(d) empiricaldispersion=gd3bj scf=xqc
 -----------------------------------------------------------

 ------------------------------
 CID_123789429_JID_134_neutraal
 ------------------------------
 Symbolic Z-matrix:
 Charge =  0 Multiplicity = 1

 SCF Done:  E(RB3LYP) =  -515.724492806     A.U. after   14 cycles
 SCF Done:  E(RB3LYP) =  -515.730216045     A.U. after   12 cycles
 SCF Done:  E(RB3LYP) =  -515.731766076     A.U. after   12 cycles
 SCF Done:  E(RB3LYP) =  -515.732662945     A.U. after   12 cycles
 SCF Done:  E(RB3LYP) =  -515.732911288     A.U. after   11 cycles
 SCF Done:  E(RB3LYP) =  -515.733127023     A.U. after   11 cycles
 SCF Done:  E(RB3LYP) =  -515.733271602     A.U. after   11 cycles
 SCF Done:  E(RB3LYP) =  -515.733325675     A.U. after   10 cycles
 SCF Done:  E(RB3LYP) =  -515.733372940     A.U. after   10 cycles
 SCF Done:  E(RB3LYP) =  -515.733399455     A.U. after   10 cycles
 SCF Done:  E(RB3LYP) =  -515.733405960     A.U. after    9 cycles
 SCF Done:  E(RB3LYP) =  -515.733409368     A.U. after    9 cycles
 SCF Done:  E(RB3LYP) =  -515.733410204     A.U. after    8 cycles
 SCF Done:  E(RB3LYP) =  -515.733410360     A.U. after    7 cycles
 SCF Done:  E(RB3LYP) =  -515.733410500     A.U. after    7 cycles
 SCF Done:  E(RB3LYP) =  -515.733410634     A.U. after    8 cycles
 Optimization completed.
    -- Stationary point found.
 Normal termination of Gaussian 16 at Tue Dec  8 10:19:10 2020.

 --------------------------------------------------------------------
 #N Geom=AllCheck Guess=TCheck SCRF=Check GenChk RB3LYP/6-31G(d) Freq
 --------------------------------------------------------------------

 Structure from the checkpoint file:  "JID_134.chk"
 ------------------------------
 CID_123789429_JID_134_neutraal
 ------------------------------
 Charge =  0 Multiplicity = 1

 SCF Done:  E(RB3LYP) =  -515.733410634     A.U. after    1 cycles

  Exact polarizability:  89.721   2.008  72.857  -2.608  -0.496  65.477
 Approx polarizability: 117.867  12.037 111.959  -5.437  -4.664  91.850

                      1                      2                      3
                      A                      A                      A
 Frequencies --     51.2306                93.0136               126.2797
 Red. masses --      4.1183                 5.0723                 1.0538
 Frc consts  --      0.0064                 0.0259                 0.0099
 IR Inten    --      0.9760                 4.1384                 0.0676

                      4                      5                      6
                      A                      A                      A
 Frequencies --    144.0656               210.2950               232.5528
 Red. masses --      3.2126                 1.0586                 2.3300
 Frc consts  --      0.0393                 0.0276                 0.0742
 IR Inten    --      0.4464                 0.1675                 4.3803

                      7                      8                      9
                      A                      A                      A
 Frequencies --    236.6334               278.3692               300.2196
 Red. masses --      1.3670                 2.4889                 2.9412
 Frc consts  --      0.0451                 0.1136                 0.1562
 IR Inten    --      2.1641                 2.1103                 2.9481

                     10                     11                     12
                      A                      A                      A
 Frequencies --    307.4052               345.8489               418.4422
 Red. masses --      1.9680                 1.9075                 2.9495
 Frc consts  --      0.1096                 0.1344                 0.3043
 IR Inten    --     18.5256                12.9194                29.5939

                     13                     14                     15
                      A                      A                      A
 Frequencies --    425.5435               531.4392               577.2449
 Red. masses --      2.6834                 5.2142                 3.9268
 Frc consts  --      0.2863                 0.8677                 0.7709
 IR Inten    --     67.2329                13.3250                 0.6618

                     16                     17                     18
                      A                      A                      A
 Frequencies --    611.8537               660.5827               747.0291
 Red. masses --      3.4140                 7.1454                 6.9793
 Frc consts  --      0.7530                 1.8371                 2.2948
 IR Inten    --     12.2030                12.0376                 2.8735

                     19                     20                     21
                      A                      A                      A
 Frequencies --    777.3337               898.3453               934.0682
 Red. masses --      4.3789                 2.5508                 2.9334
 Frc consts  --      1.5589                 1.2129                 1.5079
 IR Inten    --     26.4514                 9.6893                35.6312

                     22                     23                     24
                      A                      A                      A
 Frequencies --    954.1695              1019.9314              1032.4895
 Red. masses --      1.4897                 2.0730                 1.3290
 Frc consts  --      0.7991                 1.2705                 0.8347
 IR Inten    --      1.4247                25.0824                 0.1582

                     25                     26                     27
                      A                      A                      A
 Frequencies --   1060.9425              1098.2451              1136.5595
 Red. masses --      4.4938                 2.9739                 3.9348
 Frc consts  --      2.9802                 2.1133                 2.9947
 IR Inten    --     47.7208                30.6702               348.9192

                     28                     29                     30
                      A                      A                      A
 Frequencies --   1167.4218              1202.9971              1225.9894
 Red. masses --      1.3316                 2.1266                 3.4081
 Frc consts  --      1.0693                 1.8133                 3.0181
 IR Inten    --      3.6990                17.2964                15.0157

                     31                     32                     33
                      A                      A                      A
 Frequencies --   1294.1528              1301.0167              1326.6000
 Red. masses --      2.6899                 2.8389                 1.6274
 Frc consts  --      2.6543                 2.8312                 1.6874
 IR Inten    --     38.7057                50.3587                55.6666

                     34                     35                     36
                      A                      A                      A
 Frequencies --   1342.3656              1421.8325              1436.5490
 Red. masses --      1.7561                 1.2681                 1.2956
 Frc consts  --      1.8644                 1.5105                 1.5753
 IR Inten    --     33.5793                 8.9859                 3.6496

                     37                     38                     39
                      A                      A                      A
 Frequencies --   1449.9293              1476.8257              1481.5073
 Red. masses --      1.3534                 1.2035                 2.0905
 Frc consts  --      1.6764                 1.5465                 2.7034
 IR Inten    --     33.2011               131.5986               177.4678

                     40                     41                     42
                      A                      A                      A
 Frequencies --   1508.4584              1510.3224              1519.4775
 Red. masses --      1.0494                 1.0446                 1.0447
 Frc consts  --      1.4069                 1.4039                 1.4211
 IR Inten    --      3.7189                 0.3544                 9.7145

                     43                     44                     45
                      A                      A                      A
 Frequencies --   1526.5035              1534.7768              1547.1015
 Red. masses --      1.0673                 1.0594                 1.1475
 Frc consts  --      1.4654                 1.4703                 1.6182
 IR Inten    --      9.3391                 9.4322                24.0778

                     46                     47                     48
                      A                      A                      A
 Frequencies --   1823.9013              3050.0096              3060.0441
 Red. masses --     11.2928                 1.0416                 1.0700
 Frc consts  --     22.1337                 5.7089                 5.9035
 IR Inten    --    282.7164                33.7261                43.2823

                     49                     50                     51
                      A                      A                      A
 Frequencies --   3061.3169              3064.8967              3118.4018
 Red. masses --      1.0458                 1.0366                 1.0977
 Frc consts  --      5.7742                 5.7373                 6.2894
 IR Inten    --     57.4561                 6.5173                19.3727

                     52                     53                     54
                      A                      A                      A
 Frequencies --   3133.4104              3136.1705              3144.7967
 Red. masses --      1.1037                 1.1031                 1.1036
 Frc consts  --      6.3849                 6.3925                 6.4304
 IR Inten    --     17.0919                30.0544                 2.2003

                     55                     56                     57
                      A                      A                      A
 Frequencies --   3151.0357              3170.2671              3705.9190
 Red. masses --      1.1029                 1.1028                 1.0647
 Frc consts  --      6.4519                 6.5304                 8.6152
 IR Inten    --     19.7215                 1.4398                15.8686

 - Thermochemistry -
 -------------------
 Temperature   298.150 Kelvin.  Pressure   1.00000 Atm.
 Atom     1 has atomic number  6 and mass  12.00000

 Molecular mass:   145.07389 amu.
 Principal axes and moments of inertia in atomic units:
                           1         2         3
     Eigenvalues --   983.044481396.174841899.50175
           X            0.99628  -0.08616  -0.00287
           Y            0.08620   0.99598   0.02424
           Z            0.00077  -0.02439   0.99970
 This molecule is an asymmetric top.
 Rotational symmetry number  1.
 Warning -- assumption of classical behavior for rotation
           may cause significant error
 Rotational temperatures (Kelvin)      0.08811     0.06204     0.04560
 Rotational constants (GHZ):           1.83587     1.29263     0.95011
 Zero-point vibrational energy     461185.1 (Joules/Mol)
                                  110.22589 (Kcal/Mol)
 Warning -- explicit consideration of  16 degrees of freedom as
           vibrations may cause significant error
 Vibrational temperatures:     73.71   133.83   181.69   207.28   302.57
          (Kelvin)            334.59   340.46   400.51   431.95   442.29
                              497.60   602.05   612.26   764.62   830.53
                              880.32   950.43  1074.81  1118.41  1292.52
                             1343.92  1372.84  1467.45  1485.52  1526.46
                             1580.13  1635.26  1679.66  1730.84  1763.93
                             1862.00  1871.87  1908.68  1931.36  2045.70
                             2066.87  2086.12  2124.82  2131.56  2170.34
                             2173.02  2186.19  2196.30  2208.20  2225.93
                             2624.19  4388.28  4402.72  4404.55  4409.70
                             4486.68  4508.28  4512.25  4524.66  4533.64
                             4561.31  5331.99

 Zero-point correction=                           0.175656 (Hartree/Particle)
 Thermal correction to Energy=                    0.186469
 Thermal correction to Enthalpy=                  0.187413
 Thermal correction to Gibbs Free Energy=         0.139544
 Sum of electronic and zero-point Energies=           -515.557754
 Sum of electronic and thermal Energies=              -515.546942
 Sum of electronic and thermal Enthalpies=            -515.545998
 Sum of electronic and thermal Free Energies=         -515.593867

                     E (Thermal)             CV                S
                      KCal/Mol        Cal/Mol-Kelvin    Cal/Mol-Kelvin
 Total                  117.011             39.203            100.750
 Electronic               0.000              0.000              0.000
 Translational            0.889              2.981             40.827
 Rotational               0.889              2.981             29.346
 Vibrational            115.234             33.242             30.577
 Vibration     1          0.595              1.977              4.769
 Vibration     2          0.602              1.954              3.596
 Vibration     3          0.611              1.927              3.002
 Vibration     4          0.616              1.909              2.749
 Vibration     5          0.642              1.825              2.041
 Vibration     6          0.653              1.791              1.859
 Vibration     7          0.656              1.785              1.828
 Vibration     8          0.679              1.714              1.544
 Vibration     9          0.693              1.673              1.416
 Vibration    10          0.697              1.660              1.376
 Vibration    11          0.724              1.584              1.185
 Vibration    12          0.781              1.430              0.897
 Vibration    13          0.787              1.415              0.873
 Vibration    14          0.886              1.180              0.584
 Vibration    15          0.934              1.080              0.490
 Vibration    16          0.971              1.007              0.430

                           ! Non-Optimized Parameters !
 Normal termination of Gaussian 16 at Tue Dec  8 10:22:41 2020.

 ----------------------------------------------------------------------
 # B3LYP/6-311++G(d,p) empiricaldispersion=gd3bj scf=xqc pop=npa geom=c
 heck
 ----------------------------------------------------------------------

 --------------------------------------
 CID_123789429_JID_134_Energie_neutraal
 --------------------------------------
 Structure from the checkpoint file:  "JID_134.chk"
 Charge =  0 Multiplicity = 1

 SCF Done:  E(RB3LYP) =  -515.894006390     A.U. after   13 cycles
 Normal termination of Gaussian 16 at Tue Dec  8 10:23:46 2020.

 ----------------------------------------------------------------------
 # B3LYP/6-311++G(d,p) empiricaldispersion=gd3bj scf=xqc pop=npa geom=c
 heck
 ----------------------------------------------------------------------

 ------------------------------------
 CID_123789429_JID_134_Energie_kation
 ------------------------------------
 Structure from the checkpoint file:  "JID_134.chk"
 Charge =  1 Multiplicity = 2

 SCF Done:  E(UB3LYP) =  -515.541186165     A.U. after   32 cycles
 Normal termination of Gaussian 16 at Tue Dec  8 10:27:53 2020.
 Gaussian 16:  ES64L-G16RevA.03 25-Dec-2016

 ----------------------------------------------------------------------
 # B3LYP/6-311++G(d,p) empiricaldispersion=gd3bj scf=xqc pop=npa geom=c
 heck
 ----------------------------------------------------------------------

 -----------------------------------
 CID_123789429_JID_134_Energie_anion
 -----------------------------------
 Structure from the checkpoint file:  "JID_134.chk"
 Charge = -1 Multiplicity = 2

                         Standard orientation:
 ---------------------------------------------------------------------
 Center     Atomic      Atomic             Coordinates (Angstroms)
 Number     Number       Type             X           Y           Z
 ---------------------------------------------------------------------
      1          6           0        1.949836   -0.495943   -1.247913
      2          6           0        1.168801   -0.234870    0.036229
      3          6           0        0.228307    0.959459   -0.128816
      4          8           0        0.548988    2.102732   -0.408548
      5          7           0       -1.029494    0.487357    0.105157
      6          6           0       -1.052286   -0.923039    0.434901
      7          8           0        0.282574   -1.347983    0.294203
      8          8           0       -1.912177   -1.661056   -0.373705
      9          6           0       -2.218710    1.311625    0.118150
     10          6           0        2.086967   -0.021324    1.239383
     11          1           0        2.568282    0.373943   -1.486461
     12          1           0        1.266917   -0.676089   -2.084295
     13          1           0        2.592787   -1.373313   -1.127756
     14          1           0       -1.420028   -1.091486    1.455154
     15          1           0       -1.530886   -1.648853   -1.269179
     16          1           0       -2.638197    1.379960    1.129599
     17          1           0       -1.926751    2.307835   -0.219275
     18          1           0       -2.977765    0.895769   -0.550507
     19          1           0        2.731344   -0.894729    1.378972
     20          1           0        2.709163    0.864079    1.079644
     21          1           0        1.499022    0.126398    2.150804
 ---------------------------------------------------------------------

 SCF Done:  E(UB3LYP) =  -515.879098854     A.U. after   29 cycles

 The electronic state is 2-A.
 Alpha  occ. eigenvalues --  -19.03830 -19.03445 -18.99376 -14.24794 -10.20936
 Alpha  occ. eigenvalues --  -10.17097 -10.14186 -10.09834 -10.06513 -10.06354
 Alpha  occ. eigenvalues --   -1.00062  -0.94004  -0.91951  -0.83348  -0.69985
 Alpha  occ. eigenvalues --   -0.62788  -0.59912  -0.58806  -0.50087  -0.48135
 Alpha  occ. eigenvalues --   -0.45335  -0.41093  -0.38781  -0.35707  -0.34096
 Alpha  occ. eigenvalues --   -0.33798  -0.33613  -0.31575  -0.30112  -0.29913
 Alpha  occ. eigenvalues --   -0.28458  -0.27273  -0.26463  -0.26041  -0.25931
 Alpha  occ. eigenvalues --   -0.22215  -0.18267  -0.16075  -0.15671   0.04767
 Alpha virt. eigenvalues --    0.07157   0.07413   0.09222   0.09866   0.10239
 Alpha virt. eigenvalues --    0.11342   0.11439   0.12046   0.12659   0.13303
 Alpha virt. eigenvalues --    0.14044   0.14530   0.16146   0.16743   0.17402

  Beta  occ. eigenvalues --  -19.03818 -19.03400 -18.99364 -14.24797 -10.20917
  Beta  occ. eigenvalues --  -10.17087 -10.14186 -10.09782 -10.06474 -10.06317
  Beta  occ. eigenvalues --   -1.00028  -0.93971  -0.91896  -0.83331  -0.69954
  Beta  occ. eigenvalues --   -0.62723  -0.59844  -0.58734  -0.50026  -0.48102
  Beta  occ. eigenvalues --   -0.45272  -0.41022  -0.38727  -0.35658  -0.34040
  Beta  occ. eigenvalues --   -0.33757  -0.33574  -0.31524  -0.30072  -0.29872
  Beta  occ. eigenvalues --   -0.28410  -0.27226  -0.26426  -0.25993  -0.25891
  Beta  occ. eigenvalues --   -0.22167  -0.18226  -0.16048  -0.15653
  Beta virt. eigenvalues --    0.07308   0.08287   0.08614   0.09931   0.10451
  Beta virt. eigenvalues --    0.10822   0.11660   0.11871   0.12535   0.13015
  Beta virt. eigenvalues --    0.13995   0.14326   0.14903   0.16190   0.16680

 Mulliken charges and spin densities:
               1          2
     1  C    0.872579  -1.319601
     2  C   -1.968906   2.051311
     3  C    0.261652  -0.286077
     4  O   -0.354748   0.008836
     5  N   -0.445800   0.376814
     6  C    1.476389  -1.649504
     7  O   -0.135614   0.023516
     8  O   -0.201228   0.020677
     9  C    1.167686  -1.430049
    10  C    0.968970  -1.416500
    11  H    0.015168   0.143445
    12  H   -0.581477   0.740552
    13  H   -0.120009   0.281359
    14  H   -0.160634   0.386876
    15  H   -0.181655   0.460405
    16  H   -0.538339   0.705948
    17  H   -0.114807   0.287702
    18  H   -0.394968   0.561694
    19  H   -0.137128   0.302302
    20  H   -0.021784   0.181569
    21  H   -0.405349   0.568727
 Sum of Mulliken charges =  -1.00000   1.00000

 Dipole moment (field-independent basis, Debye):
    X=              2.0585    Y=             -0.1820    Z=              0.4580  Tot=              2.1167
 Quadrupole moment (field-independent basis, Debye-Ang):
   XX=           -108.2980   YY=            -98.0001   ZZ=            -98.8427
   XY=              0.6782   XZ=             -0.1071   YZ=             -3.1167

 Summary of Natural Population Analysis:

                                       Natural Population
                Natural  -----------------------------------------------
    Atom  No    Charge         Core      Valence    Rydberg      Total
 -----------------------------------------------------------------------
      C    1   -0.28943      0.99961     2.28188    0.00794     3.28943
      C    2    0.09723      0.99951     1.88753    0.01574     2.90277
      C    3    0.34574      0.99955     1.63109    0.02361     2.65426
      O    4   -0.31994      0.99988     3.31383    0.00623     4.31994
      N    5   -0.26312      0.99962     2.75240    0.01109     3.76312
      C    6    0.31307      0.99963     1.66675    0.02055     2.68693
      O    7   -0.30607      0.99987     3.29665    0.00955     4.30607
      O    8   -0.36177      0.99989     3.35498    0.00690     4.36177
      C    9   -0.17898      0.99964     2.17128    0.00806     3.17898
      C   10   -0.28813      0.99961     2.28219    0.00633     3.28813
      H   11    0.10722      0.00000     0.39171    0.00108     0.39278
      H   12    0.10642      0.00000     0.39124    0.00235     0.39358
      H   13    0.10292      0.00000     0.39590    0.00118     0.39708
      H   14    0.07463      0.00000     0.42349    0.00189     0.42537
      H   15    0.23425      0.00000     0.25831    0.00744     0.26575
      H   16    0.09739      0.00000     0.39959    0.00302     0.40261
      H   17    0.11085      0.00000     0.38758    0.00157     0.38915
      H   18    0.10333      0.00000     0.39401    0.00267     0.39667
      H   19    0.10318      0.00000     0.39535    0.00147     0.39682
      H   20    0.10667      0.00000     0.39203    0.00130     0.39333
      H   21    0.10454      0.00000     0.39358    0.00188     0.39546
 =======================================================================
   * Total *   -0.00000      9.99681    28.86136    0.14183    39.00000

 Normal termination of Gaussian 16 at Tue Dec  8 10:31:37 2020.
