 Gaussian 16, Revision A.03,

 -----------------------------------------------------------
 # opt freq B3LYP/6-31G(d) empiricaldispersion=gd3bj scf=xqc
 -----------------------------------------------------------

 -------------------------------
 CID_104394506_JID_4076_neutraal
 -------------------------------
 Symbolic Z-matrix:
 Charge =  0 Multiplicity = 1

 SCF Done:  E(RB3LYP) =  -612.140175522     A.U. after   14 cycles
 SCF Done:  E(RB3LYP) =  -612.144903410     A.U. after   12 cycles
 SCF Done:  E(RB3LYP) =  -612.145718129     A.U. after   11 cycles
 SCF Done:  E(RB3LYP) =  -612.146113593     A.U. after   11 cycles
 SCF Done:  E(RB3LYP) =  -612.146286828     A.U. after   11 cycles
 SCF Done:  E(RB3LYP) =  -612.146388920     A.U. after   10 cycles
 SCF Done:  E(RB3LYP) =  -612.146462644     A.U. after   11 cycles
 SCF Done:  E(RB3LYP) =  -612.146496218     A.U. after   10 cycles
 SCF Done:  E(RB3LYP) =  -612.146518760     A.U. after   10 cycles
 SCF Done:  E(RB3LYP) =  -612.146530112     A.U. after   10 cycles
 SCF Done:  E(RB3LYP) =  -612.146533887     A.U. after    9 cycles
 SCF Done:  E(RB3LYP) =  -612.146536599     A.U. after    9 cycles
 SCF Done:  E(RB3LYP) =  -612.146538263     A.U. after    9 cycles
 SCF Done:  E(RB3LYP) =  -612.146538784     A.U. after    7 cycles
 SCF Done:  E(RB3LYP) =  -612.146538860     A.U. after    7 cycles
 SCF Done:  E(RB3LYP) =  -612.146538875     A.U. after    6 cycles
 Optimization completed.
    -- Stationary point found.
 Normal termination of Gaussian 16 at Thu Dec 10 09:18:22 2020.

 --------------------------------------------------------------------
 #N Geom=AllCheck Guess=TCheck SCRF=Check GenChk RB3LYP/6-31G(d) Freq
 --------------------------------------------------------------------

 Structure from the checkpoint file:  "JID_4076.chk"
 -------------------------------
 CID_104394506_JID_4076_neutraal
 -------------------------------
 Charge =  0 Multiplicity = 1

 SCF Done:  E(RB3LYP) =  -612.146538875     A.U. after    1 cycles

  Exact polarizability: 173.748   1.727 123.070   5.915  -3.241  97.287
 Approx polarizability: 206.594   4.855 192.850  14.036  -8.924 146.082

                      1                      2                      3
                      A                      A                      A
 Frequencies --     20.5821                32.6134                38.0097
 Red. masses --      3.3416                 3.6693                 4.1345
 Frc consts  --      0.0008                 0.0023                 0.0035
 IR Inten    --      0.2766                 0.6699                 0.9887

                      4                      5                      6
                      A                      A                      A
 Frequencies --     68.8938                82.2036               110.6132
 Red. masses --      3.7310                 2.8944                 2.9567
 Frc consts  --      0.0104                 0.0115                 0.0213
 IR Inten    --      0.2042                 0.5038                 0.5833

                      7                      8                      9
                      A                      A                      A
 Frequencies --    134.3146               160.6719               205.8542
 Red. masses --      1.9207                 2.3720                 1.4437
 Frc consts  --      0.0204                 0.0361                 0.0360
 IR Inten    --      0.5623                 2.2420                 3.8594

                     10                     11                     12
                      A                      A                      A
 Frequencies --    211.6254               231.5877               242.4768
 Red. masses --      2.9911                 1.2172                 2.6053
 Frc consts  --      0.0789                 0.0385                 0.0902
 IR Inten    --      7.4910                 6.5212                 3.2834

                     13                     14                     15
                      A                      A                      A
 Frequencies --    253.7862               310.5256               333.0067
 Red. masses --      1.4593                 1.5169                 3.5829
 Frc consts  --      0.0554                 0.0862                 0.2341
 IR Inten    --      6.8498                44.4828                 0.3724

                     16                     17                     18
                      A                      A                      A
 Frequencies --    347.6910               403.6925               410.1476
 Red. masses --      2.0875                 2.7010                 2.7546
 Frc consts  --      0.1487                 0.2593                 0.2730
 IR Inten    --     21.2078                 0.4353                 0.8678

                     19                     20                     21
                      A                      A                      A
 Frequencies --    457.1832               486.8163               513.1635
 Red. masses --      2.9381                 2.2453                 3.1356
 Frc consts  --      0.3618                 0.3135                 0.4865
 IR Inten    --      0.1724                10.8858                11.8025

                     22                     23                     24
                      A                      A                      A
 Frequencies --    545.8289               649.1854               679.6600
 Red. masses --      1.7563                 2.5786                 2.6888
 Frc consts  --      0.3083                 0.6403                 0.7318
 IR Inten    --     27.1658                 7.9308                23.3088

                     25                     26                     27
                      A                      A                      A
 Frequencies --    719.4872               758.7048               800.6095
 Red. masses --      2.6362                 3.0072                 1.2238
 Frc consts  --      0.8040                 1.0199                 0.4622
 IR Inten    --      2.4076                 2.3804                28.8510

                     28                     29                     30
                      A                      A                      A
 Frequencies --    816.8712               830.5966               876.4323
 Red. masses --      1.7493                 1.7123                 1.9904
 Frc consts  --      0.6877                 0.6960                 0.9008
 IR Inten    --     42.6756                28.8943                16.3340

                     31                     32                     33
                      A                      A                      A
 Frequencies --    878.1267               896.5981               909.0404
 Red. masses --      1.6423                 1.2549                 1.4642
 Frc consts  --      0.7461                 0.5944                 0.7129
 IR Inten    --     38.1078                61.9119                 2.9318

                     34                     35                     36
                      A                      A                      A
 Frequencies --    941.8376               951.1472              1005.2961
 Red. masses --      1.9684                 1.3616                 3.6296
 Frc consts  --      1.0288                 0.7258                 2.1612
 IR Inten    --      8.3134                40.5489                31.5562

                     37                     38                     39
                      A                      A                      A
 Frequencies --   1014.0172              1046.1457              1061.5124
 Red. masses --      1.6717                 2.0559                 3.2784
 Frc consts  --      1.0127                 1.3257                 2.1765
 IR Inten    --     10.7996                 2.0533                 7.2965

                     40                     41                     42
                      A                      A                      A
 Frequencies --   1070.3755              1092.0434              1093.3102
 Red. masses --      2.6386                 2.2728                 1.5599
 Frc consts  --      1.7811                 1.5969                 1.0986
 IR Inten    --      8.2530                 8.6797                15.2974

                     43                     44                     45
                      A                      A                      A
 Frequencies --   1111.5255              1120.9859              1162.3385
 Red. masses --      1.8595                 2.8267                 1.6826
 Frc consts  --      1.3535                 2.0928                 1.3393
 IR Inten    --      1.6962                28.6941                23.0283

                     46                     47                     48
                      A                      A                      A
 Frequencies --   1174.4933              1182.7913              1187.6559
 Red. masses --      1.7747                 2.5612                 1.8946
 Frc consts  --      1.4424                 2.1111                 1.5745
 IR Inten    --     22.0886                10.0228                16.5002

                     49                     50                     51
                      A                      A                      A
 Frequencies --   1223.0516              1253.0023              1271.5628
 Red. masses --      1.2784                 1.5947                 1.4763
 Frc consts  --      1.1267                 1.4751                 1.4064
 IR Inten    --     15.0628                 3.6506                 2.6556

                     52                     53                     54
                      A                      A                      A
 Frequencies --   1305.9317              1307.0591              1326.2483
 Red. masses --      1.3551                 1.4007                 1.6373
 Frc consts  --      1.3616                 1.4099                 1.6967
 IR Inten    --      7.5977                16.9632                31.3744

                     55                     56                     57
                      A                      A                      A
 Frequencies --   1353.9952              1359.8201              1376.6222
 Red. masses --      1.3226                 1.3098                 1.3856
 Frc consts  --      1.4286                 1.4269                 1.5471
 IR Inten    --      3.5424                21.1477                12.2386

                     58                     59                     60
                      A                      A                      A
 Frequencies --   1391.0096              1410.5583              1434.8143
 Red. masses --      1.4098                 1.4137                 1.2949
 Frc consts  --      1.6072                 1.6573                 1.5706
 IR Inten    --      9.7941                 7.8612                 5.4178

                     61                     62                     63
                      A                      A                      A
 Frequencies --   1443.5193              1453.3156              1456.3617
 Red. masses --      1.2729                 2.1798                 1.6252
 Frc consts  --      1.5628                 2.7126                 2.0309
 IR Inten    --      5.6771                 4.9105                 6.4284

                     64                     65                     66
                      A                      A                      A
 Frequencies --   1494.6390              1502.7268              1505.2954
 Red. masses --      2.6318                 1.3771                 1.4966
 Frc consts  --      3.4639                 1.8322                 1.9980
 IR Inten    --      3.6453                33.4193                24.7535

                     67                     68                     69
                      A                      A                      A
 Frequencies --   1513.3095              1521.7919              1523.5541
 Red. masses --      1.4907                 1.3304                 1.0696
 Frc consts  --      2.0114                 1.8152                 1.4627
 IR Inten    --      1.1281                 1.5794                 0.2900

                     70                     71                     72
                      A                      A                      A
 Frequencies --   1529.7840              1531.0702              1536.7356
 Red. masses --      1.0571                 1.0811                 1.0991
 Frc consts  --      1.4575                 1.4931                 1.5293
 IR Inten    --      3.5738                13.1485                 3.8715

                     73                     74                     75
                      A                      A                      A
 Frequencies --   1540.6885              1545.9110              1625.5028
 Red. masses --      1.1205                 1.0973                 4.9153
 Frc consts  --      1.5671                 1.5451                 7.6521
 IR Inten    --      4.0578                 8.4558                24.0148

                     76                     77                     78
                      A                      A                      A
 Frequencies --   1676.7004              2918.5886              2989.2064
 Red. masses --      1.0893                 1.0740                 1.0685
 Frc consts  --      1.8043                 5.3903                 5.6251
 IR Inten    --     38.0425                86.0833                45.4234

                     79                     80                     81
                      A                      A                      A
 Frequencies --   3032.4079              3041.9669              3042.2366
 Red. masses --      1.0615                 1.0679                 1.0641
 Frc consts  --      5.7511                 5.8221                 5.8025
 IR Inten    --     21.0243                19.3839                36.0345

                     82                     83                     84
                      A                      A                      A
 Frequencies --   3043.1889              3048.6449              3059.9583
 Red. masses --      1.0622                 1.0375                 1.0813
 Frc consts  --      5.7960                 5.6813                 5.9651
 IR Inten    --     28.2623                20.9774                27.3399

                     85                     86                     87
                      A                      A                      A
 Frequencies --   3066.7803              3070.8136              3094.2259
 Red. masses --      1.1012                 1.0877                 1.0993
 Frc consts  --      6.1022                 6.0429                 6.2013
 IR Inten    --     39.5690                37.1910                21.3097

                     88                     89                     90
                      A                      A                      A
 Frequencies --   3109.8082              3112.5109              3124.2563
 Red. masses --      1.0991                 1.1022                 1.1015
 Frc consts  --      6.2626                 6.2915                 6.3348
 IR Inten    --     42.2214                46.6709                38.9865

                     91                     92                     93
                      A                      A                      A
 Frequencies --   3125.5088              3264.4941              3459.4693
 Red. masses --      1.1018                 1.0968                 1.0733
 Frc consts  --      6.3416                 6.8866                 7.5684
 IR Inten    --     45.2394                 2.4467                 0.2397

                     94                     95                     96
                      A                      A                      A
 Frequencies --   3472.2250              3560.0958              3671.3100
 Red. masses --      1.0492                 1.0922                 1.0806
 Frc consts  --      7.4532                 8.1561                 8.5810
 IR Inten    --      6.8793                 0.6654                73.2264

 - Thermochemistry -
 -------------------
 Temperature   298.150 Kelvin.  Pressure   1.00000 Atm.
 Atom     1 has atomic number  6 and mass  12.00000

 Molecular mass:   196.16880 amu.
 Principal axes and moments of inertia in atomic units:
                           1         2         3
     Eigenvalues --  1018.582527534.813228013.49831
           X            0.99997  -0.00311  -0.00651
           Y            0.00313   0.99999   0.00273
           Z            0.00651  -0.00275   0.99998
 This molecule is an asymmetric top.
 Rotational symmetry number  1.
 Warning -- assumption of classical behavior for rotation
           may cause significant error
 Rotational temperatures (Kelvin)      0.08503     0.01150     0.01081
 Rotational constants (GHZ):           1.77182     0.23952     0.22521
 Zero-point vibrational energy     803617.5 (Joules/Mol)
                                  192.06919 (Kcal/Mol)
 Warning -- explicit consideration of  22 degrees of freedom as
           vibrations may cause significant error
 Vibrational temperatures:     29.61    46.92    54.69    99.12   118.27
          (Kelvin)            159.15   193.25   231.17   296.18   304.48
                              333.20   348.87   365.14   446.78   479.12
                              500.25   580.82   590.11   657.78   700.42
                              738.33   785.33   934.03   977.88  1035.18
                             1091.61  1151.90  1175.30  1195.04  1260.99
                             1263.43  1290.00  1307.91  1355.09  1368.49
                             1446.40  1458.94  1505.17  1527.28  1540.03
                             1571.21  1573.03  1599.24  1612.85  1672.35
                             1689.83  1701.77  1708.77  1759.70  1802.79
                             1829.50  1878.94  1880.57  1908.18  1948.10
                             1956.48  1980.65  2001.35  2029.48  2064.38
                             2076.90  2091.00  2095.38  2150.45  2162.09
                             2165.78  2177.31  2189.52  2192.05  2201.02
                             2202.87  2211.02  2216.71  2224.22  2338.74
                             2412.40  4199.20  4300.80  4362.96  4376.71
                             4377.10  4378.47  4386.32  4402.60  4412.41
                             4418.22  4451.90  4474.32  4478.21  4495.11
                             4496.91  4696.88  4977.40  4995.76  5122.18
                             5282.20

 Zero-point correction=                           0.306082 (Hartree/Particle)
 Thermal correction to Energy=                    0.321874
 Thermal correction to Enthalpy=                  0.322818
 Thermal correction to Gibbs Free Energy=         0.260950
 Sum of electronic and zero-point Energies=           -611.840457
 Sum of electronic and thermal Energies=              -611.824665
 Sum of electronic and thermal Enthalpies=            -611.823721
 Sum of electronic and thermal Free Energies=         -611.885588

                     E (Thermal)             CV                S
                      KCal/Mol        Cal/Mol-Kelvin    Cal/Mol-Kelvin
 Total                  201.979             57.848            130.212
 Electronic               0.000              0.000              0.000
 Translational            0.889              2.981             41.726
 Rotational               0.889              2.981             32.486
 Vibrational            200.202             51.886             55.999
 Vibration     1          0.593              1.986              6.577
 Vibration     2          0.594              1.983              5.664
 Vibration     3          0.594              1.982              5.360
 Vibration     4          0.598              1.969              4.185
 Vibration     5          0.600              1.961              3.838
 Vibration     6          0.606              1.941              3.258
 Vibration     7          0.613              1.919              2.883
 Vibration     8          0.622              1.891              2.542
 Vibration     9          0.640              1.832              2.080
 Vibration    10          0.643              1.823              2.030
 Vibration    11          0.653              1.793              1.867
 Vibration    12          0.659              1.775              1.785
 Vibration    13          0.665              1.756              1.704
 Vibration    14          0.699              1.654              1.360
 Vibration    15          0.715              1.610              1.245
 Vibration    16          0.725              1.580              1.177
 Vibration    17          0.769              1.462              0.949
 Vibration    18          0.774              1.448              0.926
 Vibration    19          0.815              1.345              0.774
 Vibration    20          0.843              1.279              0.692
 Vibration    21          0.868              1.221              0.626
 Vibration    22          0.901              1.149              0.553

 Optimization completed.
    -- Stationary point found.
 Normal termination of Gaussian 16 at Thu Dec 10 09:26:28 2020.

 ----------------------------------------------------------------------
 # B3LYP/6-311++G(d,p) empiricaldispersion=gd3bj scf=xqc pop=npa geom=c
 heck
 ----------------------------------------------------------------------

 ---------------------------------------
 CID_104394506_JID_4076_Energie_neutraal
 ---------------------------------------
 Structure from the checkpoint file:  "JID_4076.chk"
 Charge =  0 Multiplicity = 1

 SCF Done:  E(RB3LYP) =  -612.329229490     A.U. after   14 cycles
 Normal termination of Gaussian 16 at Thu Dec 10 09:30:06 2020.

 ----------------------------------------------------------------------
 # B3LYP/6-311++G(d,p) empiricaldispersion=gd3bj scf=xqc pop=npa geom=c
 heck
 ----------------------------------------------------------------------

 -------------------------------------
 CID_104394506_JID_4076_Energie_kation
 -------------------------------------
 Structure from the checkpoint file:  "JID_4076.chk"
 Charge =  1 Multiplicity = 2

 SCF Done:  E(UB3LYP) =  -612.030589845     A.U. after   26 cycles
 Normal termination of Gaussian 16 at Thu Dec 10 09:40:33 2020.
 Gaussian 16:  ES64L-G16RevA.03 25-Dec-2016

 ----------------------------------------------------------------------
 # B3LYP/6-311++G(d,p) empiricaldispersion=gd3bj scf=xqc pop=npa geom=c
 heck
 ----------------------------------------------------------------------

 ------------------------------------
 CID_104394506_JID_4076_Energie_anion
 ------------------------------------
 Structure from the checkpoint file:  "JID_4076.chk"
 Charge = -1 Multiplicity = 2

                         Standard orientation:
 ---------------------------------------------------------------------
 Center     Atomic      Atomic             Coordinates (Angstroms)
 Number     Number       Type             X           Y           Z
 ---------------------------------------------------------------------
      1          6           0       -4.737853    0.623663    1.293153
      2          6           0       -4.759719   -0.477142    0.231202
      3          6           0       -3.868742   -0.158144   -0.985469
      4          6           0       -2.417334   -0.025809   -0.632599
      5          7           0       -1.805651    1.161605   -0.685504
      6          7           0       -0.543763    0.910081   -0.267449
      7          6           0       -0.322434   -0.395461    0.037800
      8          6           0       -1.526543   -1.038327   -0.186205
      9          6           0        1.010846   -0.862813    0.530863
     10          7           0        2.084087   -0.126474   -0.143372
     11          6           0        3.442472   -0.418721    0.346936
     12          6           0        3.941005   -1.825011   -0.008626
     13          6           0        4.386531    0.663264   -0.184650
     14          7           0        3.995647    1.967670    0.344762
     15          1           0       -3.722585    0.784789    1.670182
     16          1           0       -5.381753    0.369061    2.142486
     17          1           0       -5.087358    1.576028    0.876801
     18          1           0       -4.432537   -1.426354    0.676726
     19          1           0       -5.788025   -0.637055   -0.118756
     20          1           0       -3.994499   -0.946941   -1.739031
     21          1           0       -4.194637    0.782012   -1.444964
     22          1           0        0.152152    1.640059   -0.266343
     23          1           0       -1.735196   -2.089961   -0.048128
     24          1           0        1.111187   -0.661142    1.606372
     25          1           0        1.065957   -1.957400    0.413526
     26          1           0        2.042127   -0.328832   -1.143313
     27          1           0        3.405743   -0.307838    1.437920
     28          1           0        4.014560   -1.946780   -1.097214
     29          1           0        4.933863   -2.008967    0.416895
     30          1           0        3.267988   -2.600065    0.371965
     31          1           0        5.407501    0.438008    0.146839
     32          1           0        4.392817    0.599887   -1.291547
     33          1           0        4.525905    2.706684   -0.112245
     34          1           0        3.015164    2.111630    0.108338
 ---------------------------------------------------------------------

 SCF Done:  E(UB3LYP) =  -612.316489456     A.U. after   31 cycles

 The electronic state is 2-A.
 Alpha  occ. eigenvalues --  -14.28154 -14.22926 -14.21296 -14.19142 -10.11639
 Alpha  occ. eigenvalues --  -10.11605 -10.10566 -10.09773 -10.09238 -10.08074
 Alpha  occ. eigenvalues --  -10.08032 -10.06923 -10.06601 -10.06443  -0.94676
 Alpha  occ. eigenvalues --   -0.82893  -0.77941  -0.73871  -0.70354  -0.68095
 Alpha  occ. eigenvalues --   -0.65830  -0.60504  -0.59010  -0.56348  -0.51814
 Alpha  occ. eigenvalues --   -0.50367  -0.49457  -0.45772  -0.43074  -0.39394
 Alpha  occ. eigenvalues --   -0.38505  -0.37837  -0.37030  -0.36083  -0.35579
 Alpha  occ. eigenvalues --   -0.34032  -0.33106  -0.32354  -0.31560  -0.31081
 Alpha  occ. eigenvalues --   -0.30778  -0.29282  -0.28613  -0.27541  -0.26090
 Alpha  occ. eigenvalues --   -0.25670  -0.25230  -0.24542  -0.23933  -0.19785
 Alpha  occ. eigenvalues --   -0.15798  -0.15454  -0.14867  -0.13899   0.04165
 Alpha virt. eigenvalues --    0.05675   0.06430   0.07469   0.07562   0.08060
 Alpha virt. eigenvalues --    0.08378   0.09335   0.09463   0.09888   0.10545
 Alpha virt. eigenvalues --    0.10830   0.11081   0.11446   0.11980   0.12087

  Beta  occ. eigenvalues --  -14.28136 -14.22913 -14.21273 -14.19114 -10.11626
  Beta  occ. eigenvalues --  -10.11599 -10.10559 -10.09775 -10.09208 -10.08068
  Beta  occ. eigenvalues --  -10.08018 -10.06912 -10.06587 -10.06403  -0.94656
  Beta  occ. eigenvalues --   -0.82861  -0.77894  -0.73846  -0.70332  -0.68070
  Beta  occ. eigenvalues --   -0.65788  -0.60482  -0.58947  -0.56263  -0.51776
  Beta  occ. eigenvalues --   -0.50330  -0.49387  -0.45747  -0.43045  -0.39355
  Beta  occ. eigenvalues --   -0.38444  -0.37807  -0.36999  -0.36035  -0.35546
  Beta  occ. eigenvalues --   -0.33987  -0.33074  -0.32321  -0.31521  -0.31054
  Beta  occ. eigenvalues --   -0.30730  -0.29249  -0.28584  -0.27494  -0.26065
  Beta  occ. eigenvalues --   -0.25626  -0.25204  -0.24515  -0.23897  -0.19762
  Beta  occ. eigenvalues --   -0.15767  -0.15427  -0.14830  -0.13866
  Beta virt. eigenvalues --    0.06008   0.06636   0.07257   0.07683   0.08116
  Beta virt. eigenvalues --    0.08502   0.08584   0.09606   0.09912   0.10267
  Beta virt. eigenvalues --    0.10760   0.11089   0.11367   0.11601   0.12167

 Mulliken charges and spin densities:
               1          2
     1  C   -0.116542  -0.551081
     2  C   -0.070325  -0.037623
     3  C   -0.926890   0.331386
     4  C    1.236629  -1.037964
     5  N   -0.064884   0.116736
     6  N   -0.214215   0.006009
     7  C    2.005016  -1.844316
     8  C   -1.519888   1.293166
     9  C   -0.316378  -0.215288
    10  N   -0.131016   0.069679
    11  C   -0.901362   0.836412
    12  C    1.304472  -1.857755
    13  C    0.558694  -1.046585
    14  N   -0.440418   0.113956
    15  H    0.081243   0.084188
    16  H   -0.072082   0.192196
    17  H    0.117185   0.006445
    18  H    0.027764   0.086569
    19  H   -0.221743   0.369062
    20  H    0.055978   0.088709
    21  H    0.070216   0.090695
    22  H    0.164447   0.168307
    23  H   -0.621948   0.787554
    24  H    0.005422   0.168825
    25  H    0.068072   0.105780
    26  H    0.103175   0.123673
    27  H    0.153353   0.028865
    28  H   -0.185238   0.335601
    29  H   -0.163934   0.300393
    30  H   -0.473272   0.623020
    31  H   -0.166104   0.332954
    32  H   -0.376814   0.499965
    33  H   -0.142022   0.373911
    34  H    0.173411   0.056553
 Sum of Mulliken charges =  -1.00000   1.00000

 Dipole moment (field-independent basis, Debye):
    X=             -4.2248    Y=              0.9147    Z=              0.8950  Tot=              4.4144
 Quadrupole moment (field-independent basis, Debye-Ang):
   XX=           -194.9214   YY=           -133.6117   ZZ=           -119.1245
   XY=             -2.7255   XZ=              4.8063   YZ=             -0.4039

 Summary of Natural Population Analysis:

                                       Natural Population
                Natural  -----------------------------------------------
    Atom  No    Charge         Core      Valence    Rydberg      Total
 -----------------------------------------------------------------------
      C    1   -0.28746      0.99967     2.28302    0.00478     3.28746
      C    2   -0.18573      0.99964     2.17789    0.00819     3.18573
      C    3   -0.20211      0.99959     2.19441    0.00811     3.20211
      C    4    0.07288      0.99959     1.91199    0.01554     2.92712
      N    5   -0.16303      0.99970     2.65072    0.01260     3.66303
      N    6   -0.16849      0.99964     2.65713    0.01171     3.66849
      C    7    0.07935      0.99955     1.90880    0.01230     2.92065
      C    8   -0.16236      0.99945     2.15423    0.00867     3.16236
      C    9   -0.09939      0.99959     2.08977    0.01004     3.09939
      N   10   -0.34883      0.99974     2.83741    0.01168     3.84883
      C   11   -0.01443      0.99960     2.00260    0.01222     3.01443
      C   12   -0.29505      0.99965     2.28985    0.00556     3.29505
      C   13   -0.08722      0.99961     2.07595    0.01166     3.08722
      N   14   -0.42412      0.99977     2.91373    0.01062     3.92412
      H   15    0.10260      0.00000     0.39625    0.00115     0.39740
      H   16    0.09572      0.00000     0.40331    0.00096     0.40428
      H   17    0.09442      0.00000     0.40435    0.00123     0.40558
      H   18    0.09466      0.00000     0.40399    0.00135     0.40534
      H   19    0.09284      0.00000     0.40596    0.00120     0.40716
      H   20    0.10228      0.00000     0.39653    0.00118     0.39772
      H   21    0.10374      0.00000     0.39481    0.00145     0.39626
      H   22    0.20335      0.00000     0.29382    0.00283     0.29665
      H   23    0.11015      0.00000     0.38869    0.00116     0.38985
      H   24    0.09978      0.00000     0.39861    0.00162     0.40022
      H   25    0.09341      0.00000     0.40487    0.00172     0.40659
      H   26    0.17564      0.00000     0.32138    0.00299     0.32436
      H   27    0.09283      0.00000     0.40505    0.00212     0.40717
      H   28    0.09945      0.00000     0.39896    0.00160     0.40055
      H   29    0.10209      0.00000     0.39672    0.00119     0.39791
      H   30    0.10101      0.00000     0.39779    0.00120     0.39899
      H   31    0.09158      0.00000     0.40713    0.00129     0.40842
      H   32    0.07856      0.00000     0.41896    0.00249     0.42144
      H   33    0.17424      0.00000     0.32393    0.00183     0.32576
      H   34    0.17762      0.00000     0.31975    0.00263     0.32238
 =======================================================================
   * Total *   -0.00000     13.99479    39.82836    0.17686    54.00000

 Normal termination of Gaussian 16 at Thu Dec 10 09:52:12 2020.
