 Gaussian 16, Revision A.03,

 -----------------------------------------------------------
 # opt freq B3LYP/6-31G(d) empiricaldispersion=gd3bj scf=xqc
 -----------------------------------------------------------

 ------------------------------
 CID_57075344_JID_1668_neutraal
 ------------------------------
 Symbolic Z-matrix:
 Charge =  0 Multiplicity = 1

 SCF Done:  E(RB3LYP) =  -547.488303295     A.U. after   16 cycles
 SCF Done:  E(RB3LYP) =  -547.533453727     A.U. after   13 cycles
 SCF Done:  E(RB3LYP) =  -547.535208768     A.U. after   13 cycles
 SCF Done:  E(RB3LYP) =  -547.533578096     A.U. after   13 cycles
 SCF Done:  E(RB3LYP) =  -547.535550773     A.U. after   12 cycles
 SCF Done:  E(RB3LYP) =  -547.535599314     A.U. after   11 cycles
 SCF Done:  E(RB3LYP) =  -547.535605383     A.U. after   11 cycles
 SCF Done:  E(RB3LYP) =  -547.535606306     A.U. after   10 cycles
 SCF Done:  E(RB3LYP) =  -547.535606540     A.U. after    8 cycles
 Optimization completed.
    -- Stationary point found.
 Normal termination of Gaussian 16 at Tue Dec  8 20:38:12 2020.

 --------------------------------------------------------------------
 #N Geom=AllCheck Guess=TCheck SCRF=Check GenChk RB3LYP/6-31G(d) Freq
 --------------------------------------------------------------------

 Structure from the checkpoint file:  "JID_1668.chk"
 ------------------------------
 CID_57075344_JID_1668_neutraal
 ------------------------------
 Charge =  0 Multiplicity = 1

 SCF Done:  E(RB3LYP) =  -547.535606540     A.U. after    1 cycles

  Exact polarizability:  91.630  -8.284  77.132   2.157   0.457  64.505
 Approx polarizability: 121.390 -26.817 128.475   3.224   4.016  99.960

                      1                      2                      3
                      A                      A                      A
 Frequencies --     28.1426                51.7164                63.5551
 Red. masses --      6.4227                 7.8460                11.4158
 Frc consts  --      0.0030                 0.0124                 0.0272
 IR Inten    --      6.5942                 4.9887                 2.0385

                      4                      5                      6
                      A                      A                      A
 Frequencies --    123.6621               180.2159               202.0593
 Red. masses --      9.2767                 4.2924                 3.0309
 Frc consts  --      0.0836                 0.0821                 0.0729
 IR Inten    --      3.3984                 4.7685                 6.7593

                      7                      8                      9
                      A                      A                      A
 Frequencies --    234.7721               251.2263               274.0858
 Red. masses --      1.7807                 1.9523                 1.1978
 Frc consts  --      0.0578                 0.0726                 0.0530
 IR Inten    --      2.4683                25.3168                33.6933

                     10                     11                     12
                      A                      A                      A
 Frequencies --    313.1437               342.8779               365.4462
 Red. masses --      3.5863                 6.5632                 2.7012
 Frc consts  --      0.2072                 0.4546                 0.2125
 IR Inten    --     12.0355                 4.2822                 3.9544

                     13                     14                     15
                      A                      A                      A
 Frequencies --    383.3702               419.2852               475.9068
 Red. masses --      4.1163                 4.0130                 9.1447
 Frc consts  --      0.3564                 0.4157                 1.2203
 IR Inten    --     10.7086                 4.1657                 3.7580

                     16                     17                     18
                      A                      A                      A
 Frequencies --    584.2062               600.3400               632.3203
 Red. masses --      6.9842                 5.5017                 5.8386
 Frc consts  --      1.4044                 1.1683                 1.3754
 IR Inten    --      9.1697                11.4780                 1.0166

                     19                     20                     21
                      A                      A                      A
 Frequencies --    764.2777               788.2127               858.6361
 Red. masses --      9.4025                 4.1229                 1.9148
 Frc consts  --      3.2359                 1.5092                 0.8318
 IR Inten    --      9.7248                 6.8043               118.4597

                     22                     23                     24
                      A                      A                      A
 Frequencies --    907.1894               937.5558               978.8345
 Red. masses --      2.0679                 5.1366                 2.2284
 Frc consts  --      1.0027                 2.6603                 1.2579
 IR Inten    --     53.0388                20.0946                 5.1171

                     25                     26                     27
                      A                      A                      A
 Frequencies --   1027.0016              1052.2261              1074.4834
 Red. masses --      3.7811                 1.9368                 1.9100
 Frc consts  --      2.3497                 1.2635                 1.2992
 IR Inten    --     30.7546                 4.2995                31.5281

                     28                     29                     30
                      A                      A                      A
 Frequencies --   1168.5397              1205.0829              1261.5312
 Red. masses --      2.6138                 3.7867                 3.2287
 Frc consts  --      2.1028                 3.2400                 3.0275
 IR Inten    --    101.5461               255.2560                84.6638

                     31                     32                     33
                      A                      A                      A
 Frequencies --   1313.0589              1355.3034              1413.2955
 Red. masses --      1.1652                 1.7971                 1.3275
 Frc consts  --      1.1837                 1.9449                 1.5623
 IR Inten    --     30.9955                11.4544                 8.6652

                     34                     35                     36
                      A                      A                      A
 Frequencies --   1435.8658              1488.3415              1519.1426
 Red. masses --      1.2228                 1.0909                 1.0598
 Frc consts  --      1.4854                 1.4237                 1.4410
 IR Inten    --      5.0228                17.0971                10.5038

                     37                     38                     39
                      A                      A                      A
 Frequencies --   1519.6558              1677.4852              1852.7780
 Red. masses --      1.0477                 1.1102                10.5584
 Frc consts  --      1.4256                 1.8406                21.3547
 IR Inten    --      8.0546                67.1216               180.8003

                     40                     41                     42
                      A                      A                      A
 Frequencies --   2347.0298              2383.1495              3079.7588
 Red. masses --     12.7172                12.6032                 1.0347
 Frc consts  --     41.2742                42.1730                 5.7824
 IR Inten    --      2.6732                 0.1550                 8.0347

                     43                     44                     45
                      A                      A                      A
 Frequencies --   3105.0226              3155.6428              3163.4612
 Red. masses --      1.0578                 1.1033                 1.1078
 Frc consts  --      6.0087                 6.4730                 6.5317
 IR Inten    --      6.2297                11.2460                 0.0357

                     46                     47                     48
                      A                      A                      A
 Frequencies --   3178.9804              3499.8887              3593.1585
 Red. masses --      1.1046                 1.0491                 1.0948
 Frc consts  --      6.5772                 7.5711                 8.3277
 IR Inten    --      5.8334                 5.2801                 8.3804

 - Thermochemistry -
 -------------------
 Temperature   298.150 Kelvin.  Pressure   1.00000 Atm.
 Atom     1 has atomic number  6 and mass  12.00000

 Molecular mass:   153.05383 amu.
 Principal axes and moments of inertia in atomic units:
                           1         2         3
     Eigenvalues --   863.114592714.401272881.63638
           X            0.99938   0.03348  -0.01085
           Y           -0.03413   0.99713  -0.06765
           Z            0.00855   0.06798   0.99765
 This molecule is an asymmetric top.
 Rotational symmetry number  1.
 Warning -- assumption of classical behavior for rotation
           may cause significant error
 Rotational temperatures (Kelvin)      0.10035     0.03191     0.03006
 Rotational constants (GHZ):           2.09096     0.66488     0.62629
 Zero-point vibrational energy     350690.8 (Joules/Mol)
                                   83.81711 (Kcal/Mol)
 Warning -- explicit consideration of  17 degrees of freedom as
           vibrations may cause significant error
 Vibrational temperatures:     40.49    74.41    91.44   177.92   259.29
          (Kelvin)            290.72   337.78   361.46   394.35   450.54
                              493.32   525.80   551.58   603.26   684.72
                              840.54   863.76   909.77  1099.63  1134.06
                             1235.39  1305.24  1348.93  1408.32  1477.63
                             1513.92  1545.94  1681.27  1733.85  1815.06
                             1889.20  1949.98  2033.42  2065.89  2141.39
                             2185.71  2186.45  2413.53  2665.73  3376.85
                             3428.82  4431.09  4467.43  4540.27  4551.52
                             4573.84  5035.56  5169.75

 Zero-point correction=                           0.133571 (Hartree/Particle)
 Thermal correction to Energy=                    0.145223
 Thermal correction to Enthalpy=                  0.146167
 Thermal correction to Gibbs Free Energy=         0.094851
 Sum of electronic and zero-point Energies=           -547.402035
 Sum of electronic and thermal Energies=              -547.390384
 Sum of electronic and thermal Enthalpies=            -547.389440
 Sum of electronic and thermal Free Energies=         -547.440755

                     E (Thermal)             CV                S
                      KCal/Mol        Cal/Mol-Kelvin    Cal/Mol-Kelvin
 Total                   91.129             40.474            108.003
 Electronic               0.000              0.000              0.000
 Translational            0.889              2.981             40.987
 Rotational               0.889              2.981             30.291
 Vibrational             89.351             34.513             36.725
 Vibration     1          0.593              1.984              5.956
 Vibration     2          0.596              1.977              4.751
 Vibration     3          0.597              1.972              4.344
 Vibration     4          0.610              1.929              3.042
 Vibration     5          0.629              1.867              2.326
 Vibration     6          0.639              1.837              2.114
 Vibration     7          0.655              1.788              1.842
 Vibration     8          0.663              1.761              1.722
 Vibration     9          0.676              1.721              1.570
 Vibration    10          0.701              1.649              1.346
 Vibration    11          0.722              1.590              1.199
 Vibration    12          0.739              1.543              1.099
 Vibration    13          0.753              1.506              1.026
 Vibration    14          0.782              1.428              0.894
 Vibration    15          0.833              1.303              0.721
 Vibration    16          0.941              1.066              0.478
 Vibration    17          0.958              1.031              0.449

 Optimization completed.
    -- Stationary point found.
 Normal termination of Gaussian 16 at Tue Dec  8 20:41:31 2020.

 ----------------------------------------------------------------------
 # B3LYP/6-311++G(d,p) empiricaldispersion=gd3bj scf=xqc pop=npa geom=c
 heck
 ----------------------------------------------------------------------

 --------------------------------------
 CID_57075344_JID_1668_Energie_neutraal
 --------------------------------------
 Structure from the checkpoint file:  "JID_1668.chk"
 Charge =  0 Multiplicity = 1

 SCF Done:  E(RB3LYP) =  -547.702784793     A.U. after   14 cycles
 Normal termination of Gaussian 16 at Tue Dec  8 20:42:38 2020.

 ----------------------------------------------------------------------
 # B3LYP/6-311++G(d,p) empiricaldispersion=gd3bj scf=xqc pop=npa geom=c
 heck
 ----------------------------------------------------------------------

 ------------------------------------
 CID_57075344_JID_1668_Energie_kation
 ------------------------------------
 Structure from the checkpoint file:  "JID_1668.chk"
 Charge =  1 Multiplicity = 2

 SCF Done:  E(UB3LYP) =  -547.319190984     A.U. after   30 cycles
 Normal termination of Gaussian 16 at Tue Dec  8 20:48:20 2020.
 Gaussian 16:  ES64L-G16RevA.03 25-Dec-2016

 ----------------------------------------------------------------------
 # B3LYP/6-311++G(d,p) empiricaldispersion=gd3bj scf=xqc pop=npa geom=c
 heck
 ----------------------------------------------------------------------

 -----------------------------------
 CID_57075344_JID_1668_Energie_anion
 -----------------------------------
 Structure from the checkpoint file:  "JID_1668.chk"
 Charge = -1 Multiplicity = 2

                         Standard orientation:
 ---------------------------------------------------------------------
 Center     Atomic      Atomic             Coordinates (Angstroms)
 Number     Number       Type             X           Y           Z
 ---------------------------------------------------------------------
      1          6           0       -1.255379   -0.814642    1.635190
      2          6           0       -1.365018   -0.418767    0.150173
      3          6           0       -2.160344    0.834653    0.027856
      4          7           0       -2.829068    1.776130   -0.095064
      5          6           0        0.022427   -0.110522   -0.449642
      6          8           0        0.418861   -0.526648   -1.507969
      7          8           0        0.720782    0.724276    0.355379
      8          6           0        2.013828    1.111343   -0.137535
      9          6           0        3.020532    0.083771    0.154027
     10          7           0        3.819776   -0.720432    0.395918
     11          7           0       -1.927737   -1.524334   -0.611615
     12          1           0       -0.839221   -0.001647    2.232079
     13          1           0       -0.619491   -1.699591    1.715061
     14          1           0       -2.250652   -1.061464    2.015793
     15          1           0        1.969118    1.288579   -1.215141
     16          1           0        2.260237    2.036770    0.385880
     17          1           0       -2.919787   -1.618357   -0.408798
     18          1           0       -1.814435   -1.359871   -1.609237
 ---------------------------------------------------------------------

 SCF Done:  E(UB3LYP) =  -547.701134361     A.U. after   31 cycles

 The electronic state is 2-A.
 Alpha  occ. eigenvalues --  -19.07594 -19.00573 -14.22682 -14.20155 -14.19862
 Alpha  occ. eigenvalues --  -10.18603 -10.17527 -10.15287 -10.12314 -10.09610
 Alpha  occ. eigenvalues --  -10.06595  -1.01616  -0.92662  -0.82089  -0.81755
 Alpha  occ. eigenvalues --   -0.78540  -0.69221  -0.65010  -0.56644  -0.50874
 Alpha  occ. eigenvalues --   -0.45783  -0.44042  -0.41823  -0.39315  -0.37032
 Alpha  occ. eigenvalues --   -0.34464  -0.33199  -0.30476  -0.30053  -0.28805
 Alpha  occ. eigenvalues --   -0.28412  -0.27606  -0.25902  -0.25145  -0.24169
 Alpha  occ. eigenvalues --   -0.23508  -0.22518  -0.22072  -0.17958  -0.15853
 Alpha  occ. eigenvalues --    0.04444
 Alpha virt. eigenvalues --    0.06800   0.08152   0.08582   0.09043   0.09872
 Alpha virt. eigenvalues --    0.10983   0.11722   0.12160   0.12884   0.13192
 Alpha virt. eigenvalues --    0.13440   0.13998   0.15067   0.15919   0.16637

  Beta  occ. eigenvalues --  -19.07522 -19.00370 -14.22672 -14.20103 -14.19759
  Beta  occ. eigenvalues --  -10.18319 -10.17474 -10.15301 -10.12297 -10.09583
  Beta  occ. eigenvalues --  -10.06516  -1.01356  -0.92345  -0.82032  -0.81639
  Beta  occ. eigenvalues --   -0.78381  -0.69026  -0.64878  -0.56408  -0.50612
  Beta  occ. eigenvalues --   -0.45529  -0.43851  -0.41700  -0.39204  -0.36737
  Beta  occ. eigenvalues --   -0.34205  -0.32723  -0.30322  -0.29828  -0.28682
  Beta  occ. eigenvalues --   -0.28279  -0.27465  -0.25753  -0.25052  -0.24086
  Beta  occ. eigenvalues --   -0.23195  -0.22169  -0.21551  -0.17757  -0.15772
  Beta virt. eigenvalues --    0.07322   0.08099   0.08687   0.09401   0.10218
  Beta virt. eigenvalues --    0.10398   0.11331   0.11987   0.12352   0.13032
  Beta virt. eigenvalues --    0.13231   0.13668   0.14352   0.15849   0.15936

 Mulliken charges and spin densities:
               1          2
     1  C    1.046114  -1.605389
     2  C   -0.518321   0.932990
     3  C    0.123048  -0.456257
     4  N   -0.269144  -0.008590
     5  C   -0.108998   0.126403
     6  O   -0.290786   0.063668
     7  O   -0.010396   0.077905
     8  C    0.871616  -0.943309
     9  C   -0.060474   0.210537
    10  N   -0.308996  -0.010225
    11  N   -0.302213   0.026688
    12  H   -0.084254   0.243304
    13  H   -0.079144   0.272146
    14  H   -0.377642   0.530733
    15  H    0.024576   0.180067
    16  H   -0.658388   0.872409
    17  H   -0.047987   0.292062
    18  H    0.051389   0.194858
 Sum of Mulliken charges =  -1.00000   1.00000

 Dipole moment (field-independent basis, Debye):
    X=              1.0266    Y=             -0.3362    Z=             -1.1134  Tot=              1.5513
 Quadrupole moment (field-independent basis, Debye-Ang):
   XX=           -119.6612   YY=            -97.9864   ZZ=            -86.5816
   XY=              6.2552   XZ=             -0.7218   YZ=             -1.3516

 Summary of Natural Population Analysis:

                                       Natural Population
                Natural  -----------------------------------------------
    Atom  No    Charge         Core      Valence    Rydberg      Total
 -----------------------------------------------------------------------
      C    1   -0.27314      0.99963     2.26558    0.00793     3.27314
      C    2   -0.02886      0.99949     2.01483    0.01454     3.02886
      C    3    0.15491      0.99961     1.82551    0.01997     2.84509
      N    4   -0.17655      0.99979     2.66376    0.01300     3.67655
      C    5    0.45185      0.99964     1.52166    0.02685     2.54815
      O    6   -0.28408      0.99987     3.27833    0.00589     4.28408
      O    7   -0.27150      0.99986     3.26088    0.01076     4.27150
      C    8   -0.06665      0.99947     2.05475    0.01243     3.06665
      C    9    0.15221      0.99965     1.83279    0.01535     2.84779
      N   10   -0.17557      0.99979     2.66418    0.01159     3.67557
      N   11   -0.40474      0.99976     2.89438    0.01061     3.90474
      H   12    0.10914      0.00000     0.38891    0.00195     0.39086
      H   13    0.10798      0.00000     0.39059    0.00143     0.39202
      H   14    0.10390      0.00000     0.39393    0.00217     0.39610
      H   15    0.11715      0.00000     0.38138    0.00146     0.38285
      H   16    0.11642      0.00000     0.38040    0.00317     0.38358
      H   17    0.18046      0.00000     0.31668    0.00287     0.31954
      H   18    0.18708      0.00000     0.31098    0.00194     0.31292
 =======================================================================
   * Total *   -0.00000     10.99656    28.83954    0.16391    40.00000

 Normal termination of Gaussian 16 at Tue Dec  8 20:54:19 2020.
