 Gaussian 16, Revision A.03,

 -----------------------------------------------------------
 # opt freq B3LYP/6-31G(d) empiricaldispersion=gd3bj scf=xqc
 -----------------------------------------------------------

 ------------------------------
 CID_68350333_JID_5979_neutraal
 ------------------------------
 Symbolic Z-matrix:
 Charge =  0 Multiplicity = 1

 SCF Done:  E(RB3LYP) =  -646.607687787     A.U. after   15 cycles
 SCF Done:  E(RB3LYP) =  -646.616276390     A.U. after   13 cycles
 SCF Done:  E(RB3LYP) =  -646.617692482     A.U. after   13 cycles
 SCF Done:  E(RB3LYP) =  -646.618366738     A.U. after   13 cycles
 SCF Done:  E(RB3LYP) =  -646.618766606     A.U. after   12 cycles
 SCF Done:  E(RB3LYP) =  -646.618955898     A.U. after   12 cycles
 SCF Done:  E(RB3LYP) =  -646.619009449     A.U. after   11 cycles
 SCF Done:  E(RB3LYP) =  -646.619015187     A.U. after   10 cycles
 SCF Done:  E(RB3LYP) =  -646.619017895     A.U. after   10 cycles
 SCF Done:  E(RB3LYP) =  -646.619018185     A.U. after    8 cycles
 SCF Done:  E(RB3LYP) =  -646.619018247     A.U. after    7 cycles
 Optimization completed.
    -- Stationary point found.
 Normal termination of Gaussian 16 at Thu Dec 10 17:37:16 2020.

 --------------------------------------------------------------------
 #N Geom=AllCheck Guess=TCheck SCRF=Check GenChk RB3LYP/6-31G(d) Freq
 --------------------------------------------------------------------

 Structure from the checkpoint file:  "JID_5979.chk"
 ------------------------------
 CID_68350333_JID_5979_neutraal
 ------------------------------
 Charge =  0 Multiplicity = 1

 SCF Done:  E(RB3LYP) =  -646.619018248     A.U. after    1 cycles

  Exact polarizability: 232.927   0.822 119.343   7.022   6.239  84.028
 Approx polarizability: 326.598   2.631 199.003  15.681  18.021 129.817

                      1                      2                      3
                      A                      A                      A
 Frequencies --     27.3731                79.5863                84.6978
 Red. masses --      4.5705                 3.7957                 6.1676
 Frc consts  --      0.0020                 0.0142                 0.0261
 IR Inten    --      0.6524                 4.6256                 0.2000

                      4                      5                      6
                      A                      A                      A
 Frequencies --     99.2913               154.3109               175.1854
 Red. masses --      5.5800                 3.0242                 3.9711
 Frc consts  --      0.0324                 0.0424                 0.0718
 IR Inten    --      1.7185                 1.9870                 4.4331

                      7                      8                      9
                      A                      A                      A
 Frequencies --    184.4525               225.0185               237.9073
 Red. masses --      3.3856                 1.0573                 1.8629
 Frc consts  --      0.0679                 0.0315                 0.0621
 IR Inten    --      2.6618                 0.0344                 1.3575

                     10                     11                     12
                      A                      A                      A
 Frequencies --    253.2679               277.7614               294.1796
 Red. masses --      4.9217                 2.8649                 1.6517
 Frc consts  --      0.1860                 0.1302                 0.0842
 IR Inten    --      1.1633                 0.5969                 0.2137

                     13                     14                     15
                      A                      A                      A
 Frequencies --    342.3645               381.6369               403.4695
 Red. masses --      2.8968                 2.2298                 4.4697
 Frc consts  --      0.2001                 0.1913                 0.4287
 IR Inten    --      1.3343                 0.6055                 0.5616

                     16                     17                     18
                      A                      A                      A
 Frequencies --    475.1457               507.3780               509.3107
 Red. masses --      3.8419                 3.7097                 5.4111
 Frc consts  --      0.5110                 0.5627                 0.8270
 IR Inten    --      7.3420                 0.5866                 5.1267

                     19                     20                     21
                      A                      A                      A
 Frequencies --    559.1657               573.2618               576.3017
 Red. masses --      5.1565                 6.3852                 4.1395
 Frc consts  --      0.9499                 1.2363                 0.8100
 IR Inten    --      1.6770                 0.6715                 0.6318

                     22                     23                     24
                      A                      A                      A
 Frequencies --    640.3478               676.8107               771.3433
 Red. masses --      3.2378                 6.7343                 6.6453
 Frc consts  --      0.7822                 1.8175                 2.3295
 IR Inten    --      1.7778                 0.1971                 0.6212

                     25                     26                     27
                      A                      A                      A
 Frequencies --    774.2658               786.3608               835.0984
 Red. masses --      6.2349                 2.5977                 4.4386
 Frc consts  --      2.2022                 0.9464                 1.8238
 IR Inten    --      1.6983                 0.2614                18.1530

                     28                     29                     30
                      A                      A                      A
 Frequencies --    837.6374               887.9331               928.9042
 Red. masses --      1.7488                 2.2967                 1.6023
 Frc consts  --      0.7229                 1.0669                 0.8146
 IR Inten    --     29.0027                 2.2037                 1.8688

                     31                     32                     33
                      A                      A                      A
 Frequencies --    963.1265               975.5101               983.7241
 Red. masses --      1.5621                 1.5233                 1.3263
 Frc consts  --      0.8538                 0.8541                 0.7562
 IR Inten    --      0.2395                 5.4620                 1.1275

                     34                     35                     36
                      A                      A                      A
 Frequencies --   1013.3436              1035.2759              1041.7446
 Red. masses --      2.0106                 3.9928                 1.9685
 Frc consts  --      1.2164                 2.5214                 1.2587
 IR Inten    --      3.7491                18.3481                 0.2199

                     37                     38                     39
                      A                      A                      A
 Frequencies --   1046.9864              1109.9436              1123.3467
 Red. masses --      1.4155                 2.3990                 1.7138
 Frc consts  --      0.9142                 1.7413                 1.2742
 IR Inten    --      5.0727                 2.5832                 2.6788

                     40                     41                     42
                      A                      A                      A
 Frequencies --   1158.3886              1170.5722              1192.5264
 Red. masses --      1.4670                 1.7162                 1.7154
 Frc consts  --      1.1598                 1.3855                 1.4373
 IR Inten    --     37.7994                 4.0316                 3.6568

                     43                     44                     45
                      A                      A                      A
 Frequencies --   1215.7319              1230.0834              1238.9386
 Red. masses --      3.2649                 5.3209                 1.3595
 Frc consts  --      2.8431                 4.7436                 1.2295
 IR Inten    --     39.4802                60.1513                 5.9355

                     46                     47                     48
                      A                      A                      A
 Frequencies --   1252.8762              1271.2867              1307.2191
 Red. masses --      1.3984                 3.5126                 1.5432
 Frc consts  --      1.2933                 3.3447                 1.5537
 IR Inten    --      0.7530                 3.3182                 3.8732

                     49                     50                     51
                      A                      A                      A
 Frequencies --   1342.9189              1357.3558              1361.2629
 Red. masses --      1.4152                 1.3383                 1.9929
 Frc consts  --      1.5037                 1.4527                 2.1758
 IR Inten    --      7.6654                 4.9539                32.6919

                     52                     53                     54
                      A                      A                      A
 Frequencies --   1394.1661              1399.5116              1415.3655
 Red. masses --      1.9327                 1.4852                 1.7250
 Frc consts  --      2.2133                 1.7139                 2.0360
 IR Inten    --     11.0958                 5.9367                 6.1163

                     55                     56                     57
                      A                      A                      A
 Frequencies --   1428.1440              1443.5625              1447.4511
 Red. masses --      2.4378                 1.3234                 1.2402
 Frc consts  --      2.9295                 1.6248                 1.5309
 IR Inten    --     21.7952                 4.7831                12.1990

                     58                     59                     60
                      A                      A                      A
 Frequencies --   1506.9248              1524.1669              1526.4363
 Red. masses --      7.6654                 1.0482                 1.0639
 Frc consts  --     10.2558                 1.4346                 1.4605
 IR Inten    --    288.8245                 8.3091                 5.0021

                     61                     62                     63
                      A                      A                      A
 Frequencies --   1530.8467              1540.2851              1547.2997
 Red. masses --      1.0492                 1.0574                 1.0732
 Frc consts  --      1.4486                 1.4781                 1.5139
 IR Inten    --      9.9376                 3.8354                 7.3031

                     64                     65                     66
                      A                      A                      A
 Frequencies --   1553.9087              1598.2174              1647.3600
 Red. masses --      1.1020                 5.4188                 6.0795
 Frc consts  --      1.5677                 8.1550                 9.7206
 IR Inten    --     54.6653               167.4716               483.9460

                     67                     68                     69
                      A                      A                      A
 Frequencies --   2353.1210              3004.0045              3033.8740
 Red. masses --     12.6806                 1.0679                 1.0827
 Frc consts  --     41.3693                 5.6778                 5.8714
 IR Inten    --     52.2218                40.0541                13.5087

                     70                     71                     72
                      A                      A                      A
 Frequencies --   3042.2835              3051.7668              3054.7916
 Red. masses --      1.0718                 1.0360                 1.0370
 Frc consts  --      5.8450                 5.6850                 5.7014
 IR Inten    --     27.6802                15.5825                27.4373

                     73                     74                     75
                      A                      A                      A
 Frequencies --   3062.3152              3074.6556              3115.8969
 Red. masses --      1.0967                 1.0862                 1.1023
 Frc consts  --      6.0593                 6.0499                 6.3056
 IR Inten    --     34.4949                41.4940                23.3735

                     76                     77                     78
                      A                      A                      A
 Frequencies --   3118.8038              3124.1315              3128.1964
 Red. masses --      1.1013                 1.1019                 1.0983
 Frc consts  --      6.3115                 6.3363                 6.3325
 IR Inten    --     30.7645                49.0589                23.3464

                     79                     80                     81
                      A                      A                      A
 Frequencies --   3131.6629              3216.4854              3233.3430
 Red. masses --      1.0982                 1.0892                 1.0962
 Frc consts  --      6.3457                 6.6390                 6.7524
 IR Inten    --     14.8314                 5.5993                 5.0521

 - Thermochemistry -
 -------------------
 Temperature   298.150 Kelvin.  Pressure   1.00000 Atm.
 Atom     1 has atomic number  6 and mass  12.00000

 Molecular mass:   202.12185 amu.
 Principal axes and moments of inertia in atomic units:
                           1         2         3
     Eigenvalues --   900.154256735.398147259.50474
           X            0.99999   0.00234  -0.00366
           Y           -0.00237   0.99995  -0.00949
           Z            0.00364   0.00950   0.99995
 This molecule is an asymmetric top.
 Rotational symmetry number  1.
 Warning -- assumption of classical behavior for rotation
           may cause significant error
 Rotational temperatures (Kelvin)      0.09622     0.01286     0.01193
 Rotational constants (GHZ):           2.00492     0.26795     0.24860
 Zero-point vibrational energy     635222.5 (Joules/Mol)
                                  151.82182 (Kcal/Mol)
 Warning -- explicit consideration of  21 degrees of freedom as
           vibrations may cause significant error
 Vibrational temperatures:     39.38   114.51   121.86   142.86   222.02
          (Kelvin)            252.05   265.39   323.75   342.30   364.40
                              399.64   423.26   492.59   549.09   580.50
                              683.63   730.00   732.78   804.51   824.80
                              829.17   921.32   973.78  1109.79  1114.00
                             1131.40  1201.52  1205.17  1277.54  1336.49
                             1385.72  1403.54  1415.36  1457.98  1489.53
                             1498.84  1506.38  1596.96  1616.25  1666.66
                             1684.19  1715.78  1749.17  1769.82  1782.56
                             1802.61  1829.10  1880.80  1932.16  1952.93
                             1958.55  2005.89  2013.58  2036.40  2054.78
                             2076.96  2082.56  2168.13  2192.94  2196.20
                             2202.55  2216.13  2226.22  2235.73  2299.48
                             2370.18  3385.62  4322.09  4365.07  4377.17
                             4390.81  4395.16  4405.99  4423.74  4483.08
                             4487.26  4494.93  4500.78  4505.76  4627.81
                             4652.06

 Zero-point correction=                           0.241943 (Hartree/Particle)
 Thermal correction to Energy=                    0.255655
 Thermal correction to Enthalpy=                  0.256599
 Thermal correction to Gibbs Free Energy=         0.201045
 Sum of electronic and zero-point Energies=           -646.377075
 Sum of electronic and thermal Energies=              -646.363364
 Sum of electronic and thermal Enthalpies=            -646.362419
 Sum of electronic and thermal Free Energies=         -646.417973

                     E (Thermal)             CV                S
                      KCal/Mol        Cal/Mol-Kelvin    Cal/Mol-Kelvin
 Total                  160.426             52.227            116.923
 Electronic               0.000              0.000              0.000
 Translational            0.889              2.981             41.816
 Rotational               0.889              2.981             32.154
 Vibrational            158.648             46.265             42.954
 Vibration     1          0.593              1.984              6.011
 Vibration     2          0.600              1.963              3.901
 Vibration     3          0.601              1.960              3.779
 Vibration     4          0.604              1.950              3.468
 Vibration     5          0.620              1.898              2.618
 Vibration     6          0.627              1.873              2.379
 Vibration     7          0.631              1.861              2.283
 Vibration     8          0.650              1.803              1.918
 Vibration     9          0.656              1.783              1.818
 Vibration    10          0.664              1.757              1.708
 Vibration    11          0.679              1.715              1.547
 Vibration    12          0.689              1.685              1.450
 Vibration    13          0.721              1.591              1.201
 Vibration    14          0.751              1.509              1.033
 Vibration    15          0.769              1.463              0.950
 Vibration    16          0.832              1.305              0.723
 Vibration    17          0.863              1.234              0.640
 Vibration    18          0.864              1.229              0.635
 Vibration    19          0.915              1.120              0.525
 Vibration    20          0.930              1.089              0.498
 Vibration    21          0.933              1.083              0.492

 Optimization completed.
    -- Stationary point found.
 Normal termination of Gaussian 16 at Thu Dec 10 17:46:17 2020.

 ----------------------------------------------------------------------
 # B3LYP/6-311++G(d,p) empiricaldispersion=gd3bj scf=xqc pop=npa geom=c
 heck
 ----------------------------------------------------------------------

 --------------------------------------
 CID_68350333_JID_5979_Energie_neutraal
 --------------------------------------
 Structure from the checkpoint file:  "JID_5979.chk"
 Charge =  0 Multiplicity = 1

 SCF Done:  E(RB3LYP) =  -646.786959471     A.U. after   16 cycles
 Normal termination of Gaussian 16 at Thu Dec 10 17:51:31 2020.

 ----------------------------------------------------------------------
 # B3LYP/6-311++G(d,p) empiricaldispersion=gd3bj scf=xqc pop=npa geom=c
 heck
 ----------------------------------------------------------------------

 ------------------------------------
 CID_68350333_JID_5979_Energie_kation
 ------------------------------------
 Structure from the checkpoint file:  "JID_5979.chk"
 Charge =  1 Multiplicity = 2

 SCF Done:  E(UB3LYP) =  -646.490520264     A.U. after   26 cycles
 Normal termination of Gaussian 16 at Thu Dec 10 18:02:11 2020.
 Gaussian 16:  ES64L-G16RevA.03 25-Dec-2016

 ----------------------------------------------------------------------
 # B3LYP/6-311++G(d,p) empiricaldispersion=gd3bj scf=xqc pop=npa geom=c
 heck
 ----------------------------------------------------------------------

 -----------------------------------
 CID_68350333_JID_5979_Energie_anion
 -----------------------------------
 Structure from the checkpoint file:  "JID_5979.chk"
 Charge = -1 Multiplicity = 2

                         Standard orientation:
 ---------------------------------------------------------------------
 Center     Atomic      Atomic             Coordinates (Angstroms)
 Number     Number       Type             X           Y           Z
 ---------------------------------------------------------------------
      1          6           0       -4.294118    1.279598   -0.001921
      2          6           0       -3.089879    0.527647   -0.560220
      3          6           0       -1.735890    1.109100   -0.117365
      4          7           0       -0.817292   -0.015400   -0.260238
      5          6           0       -1.510515   -1.276486   -0.558755
      6          6           0       -2.969174   -0.970827   -0.183629
      7          6           0       -3.240335   -1.262248    1.296729
      8          6           0        0.525350    0.078144   -0.141470
      9          7           0        1.222360   -1.069140   -0.369939
     10          7           0        2.534830   -1.082052   -0.273367
     11          6           0        3.198077    0.042707    0.044532
     12          6           0        2.544053    1.265736    0.294439
     13          6           0        1.174833    1.291416    0.203689
     14          6           0        4.626481   -0.051873    0.123983
     15          7           0        5.786500   -0.082799    0.199840
     16          1           0       -4.307700    2.315656   -0.358785
     17          1           0       -4.281247    1.304962    1.092757
     18          1           0       -5.230857    0.807528   -0.317802
     19          1           0       -3.123977    0.579498   -1.656899
     20          1           0       -1.429123    1.957512   -0.741652
     21          1           0       -1.771683    1.459569    0.925650
     22          1           0       -1.069984   -2.092713    0.017755
     23          1           0       -1.400253   -1.528684   -1.621719
     24          1           0       -3.652226   -1.569894   -0.796230
     25          1           0       -4.271979   -1.023351    1.573022
     26          1           0       -3.074387   -2.323129    1.511488
     27          1           0       -2.573447   -0.686649    1.949470
     28          1           0        3.116192    2.150241    0.553892
     29          1           0        0.612590    2.197705    0.394907
 ---------------------------------------------------------------------

 SCF Done:  E(UB3LYP) =  -646.797751967     A.U. after   33 cycles
 SCF Done:  E(UB3LYP) =  -646.797751967     a.u. after    1 cycles

 The electronic state is 2-A.
 Alpha  occ. eigenvalues --  -14.22526 -14.18512 -14.18419 -14.18033 -10.11939
 Alpha  occ. eigenvalues --  -10.10718 -10.09706 -10.09083 -10.08936 -10.08730
 Alpha  occ. eigenvalues --  -10.08512 -10.07650 -10.07474 -10.06210 -10.04665
 Alpha  occ. eigenvalues --   -0.88508  -0.84731  -0.78139  -0.73472  -0.69237
 Alpha  occ. eigenvalues --   -0.67063  -0.66606  -0.60474  -0.59599  -0.54156
 Alpha  occ. eigenvalues --   -0.53124  -0.48554  -0.46315  -0.43069  -0.42867
 Alpha  occ. eigenvalues --   -0.40390  -0.38400  -0.36370  -0.34087  -0.33470
 Alpha  occ. eigenvalues --   -0.32411  -0.31167  -0.30621  -0.30126  -0.29802
 Alpha  occ. eigenvalues --   -0.29034  -0.28453  -0.27064  -0.24791  -0.24450
 Alpha  occ. eigenvalues --   -0.23779  -0.23514  -0.22983  -0.21589  -0.19023
 Alpha  occ. eigenvalues --   -0.18711  -0.17308  -0.09700  -0.09200   0.03624
 Alpha virt. eigenvalues --    0.05144   0.07165   0.07387   0.07968   0.08812
 Alpha virt. eigenvalues --    0.09420   0.10146   0.10419   0.10931   0.11377
 Alpha virt. eigenvalues --    0.12107   0.13207   0.13621   0.14325   0.14555

  Beta  occ. eigenvalues --  -14.22533 -14.18420 -14.17876 -14.17663 -10.11994
  Beta  occ. eigenvalues --  -10.10703 -10.09701 -10.09163 -10.08928 -10.08724
  Beta  occ. eigenvalues --  -10.08497 -10.07623 -10.07465 -10.06069 -10.04405
  Beta  occ. eigenvalues --   -0.87978  -0.84366  -0.78123  -0.73354  -0.68832
  Beta  occ. eigenvalues --   -0.66750  -0.66475  -0.60421  -0.59515  -0.53817
  Beta  occ. eigenvalues --   -0.52691  -0.48433  -0.46228  -0.42962  -0.42656
  Beta  occ. eigenvalues --   -0.40306  -0.38211  -0.36337  -0.34001  -0.33404
  Beta  occ. eigenvalues --   -0.32336  -0.31108  -0.30126  -0.29953  -0.29530
  Beta  occ. eigenvalues --   -0.28903  -0.27933  -0.27017  -0.24766  -0.24421
  Beta  occ. eigenvalues --   -0.23565  -0.23397  -0.22936  -0.21550  -0.18207
  Beta  occ. eigenvalues --   -0.17893  -0.15662  -0.08908  -0.08508
  Beta virt. eigenvalues --    0.05620   0.07407   0.07526   0.08130   0.09155
  Beta virt. eigenvalues --    0.09518   0.09854   0.10319   0.10499   0.11020
  Beta virt. eigenvalues --    0.11373   0.12240   0.13187   0.13659   0.14256

 Mulliken charges and spin densities:
               1          2
     1  C    0.315595  -1.051239
     2  C   -0.907378   1.119143
     3  C    0.228414  -0.765764
     4  N    0.117661   0.016791
     5  C   -0.369244  -0.004387
     6  C    0.228504  -0.147110
     7  C   -0.341903  -0.346086
     8  C    0.079232  -0.014182
     9  N   -0.310600   0.140418
    10  N    0.065583   0.307967
    11  C    1.042927  -0.104256
    12  C   -0.159143   0.081800
    13  C    0.279187   0.133956
    14  C   -1.617486  -0.023164
    15  N   -0.285478  -0.002347
    16  H   -0.142761   0.283610
    17  H    0.058186   0.094540
    18  H   -0.280746   0.435284
    19  H   -0.104924   0.297576
    20  H    0.026862   0.137458
    21  H    0.171089  -0.004193
    22  H    0.198027   0.018121
    23  H    0.152816   0.026161
    24  H    0.020617   0.190044
    25  H    0.030017   0.106790
    26  H    0.115141   0.009616
    27  H    0.137832   0.046206
    28  H    0.176939  -0.003578
    29  H    0.075032   0.020824
 Sum of Mulliken charges =  -1.00000   1.00000

 Dipole moment (field-independent basis, Debye):
    X=             -7.4627    Y=              1.8003    Z=              1.5331  Tot=              7.8283
 Quadrupole moment (field-independent basis, Debye-Ang):
   XX=           -198.4203   YY=           -109.9928   ZZ=           -104.0055
   XY=             13.5637   XZ=             -3.6200   YZ=              1.0509

 Summary of Natural Population Analysis:

                                       Natural Population
                Natural  -----------------------------------------------
    Atom  No    Charge         Core      Valence    Rydberg      Total
 -----------------------------------------------------------------------
      C    1   -0.28670      0.99965     2.28069    0.00637     3.28670
      C    2   -0.11292      0.99959     2.10207    0.01126     3.11292
      C    3   -0.07881      0.99961     2.06865    0.01055     3.07881
      N    4   -0.24830      0.99963     2.73940    0.00927     3.74830
      C    5   -0.07786      0.99961     2.06749    0.01075     3.07786
      C    6   -0.11495      0.99959     2.10386    0.01150     3.11495
      C    7   -0.28904      0.99965     2.28413    0.00526     3.28904
      C    8    0.19354      0.99953     1.79363    0.01329     2.80646
      N    9   -0.11101      0.99970     2.59840    0.01291     3.61101
      N   10   -0.01640      0.99969     2.49974    0.01696     3.51640
      C   11   -0.03773      0.99945     2.02335    0.01493     3.03773
      C   12   -0.05554      0.99954     2.04856    0.00744     3.05554
      C   13   -0.09711      0.99953     2.08981    0.00777     3.09711
      C   14    0.16366      0.99963     1.81849    0.01823     2.83634
      N   15   -0.21132      0.99979     2.70051    0.01102     3.71132
      H   16    0.10136      0.00000     0.39775    0.00089     0.39864
      H   17    0.09740      0.00000     0.40174    0.00086     0.40260
      H   18    0.10142      0.00000     0.39751    0.00107     0.39858
      H   19    0.09935      0.00000     0.39928    0.00137     0.40065
      H   20    0.09891      0.00000     0.39982    0.00127     0.40109
      H   21    0.08758      0.00000     0.41119    0.00123     0.41242
      H   22    0.10821      0.00000     0.39007    0.00172     0.39179
      H   23    0.09412      0.00000     0.40438    0.00150     0.40588
      H   24    0.09917      0.00000     0.39993    0.00090     0.40083
      H   25    0.09857      0.00000     0.40066    0.00077     0.40143
      H   26    0.09996      0.00000     0.39915    0.00089     0.40004
      H   27    0.09955      0.00000     0.39946    0.00099     0.40045
      H   28    0.09806      0.00000     0.40099    0.00096     0.40194
      H   29    0.09682      0.00000     0.40177    0.00141     0.40318
 =======================================================================
   * Total *    0.00000     14.99421    38.82246    0.18333    54.00000

 Normal termination of Gaussian 16 at Thu Dec 10 18:11:50 2020.
