 Gaussian 16, Revision A.03,

 -----------------------------------------------------------
 # opt freq B3LYP/6-31G(d) empiricaldispersion=gd3bj scf=xqc
 -----------------------------------------------------------

 -------------------------------
 CID_130528033_JID_2206_neutraal
 -------------------------------
 Symbolic Z-matrix:
 Charge =  0 Multiplicity = 1

 SCF Done:  E(RB3LYP) =  -856.665530832     A.U. after   14 cycles
 SCF Done:  E(RB3LYP) =  -856.668826824     A.U. after   12 cycles
 SCF Done:  E(RB3LYP) =  -856.669713287     A.U. after   12 cycles
 SCF Done:  E(RB3LYP) =  -856.672314208     A.U. after   15 cycles
 SCF Done:  E(RB3LYP) =  -856.673899707     A.U. after   14 cycles
 SCF Done:  E(RB3LYP) =  -856.675774400     A.U. after   12 cycles
 SCF Done:  E(RB3LYP) =  -856.676379180     A.U. after   12 cycles
 SCF Done:  E(RB3LYP) =  -856.676498768     A.U. after   12 cycles
 SCF Done:  E(RB3LYP) =  -856.676561373     A.U. after   11 cycles
 SCF Done:  E(RB3LYP) =  -856.676591693     A.U. after   10 cycles
 SCF Done:  E(RB3LYP) =  -856.676625606     A.U. after    8 cycles
 SCF Done:  E(RB3LYP) =  -856.676626021     A.U. after    8 cycles
 SCF Done:  E(RB3LYP) =  -856.676626196     A.U. after    8 cycles
 SCF Done:  E(RB3LYP) =  -856.676626266     A.U. after    7 cycles
 SCF Done:  E(RB3LYP) =  -856.676626311     A.U. after    7 cycles
 Optimization completed.
    -- Stationary point found.
 Normal termination of Gaussian 16 at Wed Dec  9 16:57:43 2020.

 --------------------------------------------------------------------
 #N Geom=AllCheck Guess=TCheck SCRF=Check GenChk RB3LYP/6-31G(d) Freq
 --------------------------------------------------------------------

 Structure from the checkpoint file:  "JID_2206.chk"
 -------------------------------
 CID_130528033_JID_2206_neutraal
 -------------------------------
 Charge =  0 Multiplicity = 1

 SCF Done:  E(RB3LYP) =  -856.676626311     A.U. after    1 cycles

  Exact polarizability: 148.500   1.158 100.975 -14.667  -1.425  90.776
 Approx polarizability: 215.581   8.145 163.570 -36.196  -2.324 161.681

                      1                      2                      3
                      A                      A                      A
 Frequencies --     30.1282                36.1324                73.7380
 Red. masses --      3.8693                 4.8207                 5.4398
 Frc consts  --      0.0021                 0.0037                 0.0174
 IR Inten    --      0.9754                 0.1093                 0.1640

                      4                      5                      6
                      A                      A                      A
 Frequencies --    149.8704               208.5370               243.9776
 Red. masses --      4.1860                 4.6886                 3.9951
 Frc consts  --      0.0554                 0.1201                 0.1401
 IR Inten    --      0.1858                 3.7471                 0.2526

                      7                      8                      9
                      A                      A                      A
 Frequencies --    317.7631               319.1789               358.9742
 Red. masses --      1.2842                 5.5406                 3.2510
 Frc consts  --      0.0764                 0.3326                 0.2468
 IR Inten    --     37.9908                 3.9271                23.5766

                     10                     11                     12
                      A                      A                      A
 Frequencies --    458.5544               471.7151               514.6499
 Red. masses --      4.8597                 3.1940                 1.5756
 Frc consts  --      0.6021                 0.4187                 0.2459
 IR Inten    --      0.0876                29.4715                24.4990

                     13                     14                     15
                      A                      A                      A
 Frequencies --    597.2210               626.3389               634.3993
 Red. masses --      4.4025                 4.9165                 3.1358
 Frc consts  --      0.9252                 1.1364                 0.7436
 IR Inten    --      8.0897                 1.2857                 0.9286

                     16                     17                     18
                      A                      A                      A
 Frequencies --    685.0721               694.1982               703.1890
 Red. masses --      2.4522                 1.3440                 1.6005
 Frc consts  --      0.6781                 0.3816                 0.4663
 IR Inten    --      1.7933                 9.0127                46.1045

                     19                     20                     21
                      A                      A                      A
 Frequencies --    717.0248               740.6157               799.5672
 Red. masses --      2.5341                 1.8935                 1.2515
 Frc consts  --      0.7676                 0.6119                 0.4714
 IR Inten    --      2.9816                53.3830                40.9358

                     22                     23                     24
                      A                      A                      A
 Frequencies --    815.9379               831.6051               860.2640
 Red. masses --      1.6558                 3.7266                 3.2064
 Frc consts  --      0.6495                 1.5184                 1.3981
 IR Inten    --     27.7479                22.2534                89.5903

                     25                     26                     27
                      A                      A                      A
 Frequencies --    864.4721               898.9337               904.2656
 Red. masses --      1.3071                 1.3227                 3.0862
 Frc consts  --      0.5755                 0.6298                 1.4868
 IR Inten    --      2.2039                 7.0867                83.0088

                     28                     29                     30
                      A                      A                      A
 Frequencies --    908.3790               968.2035               993.0544
 Red. masses --      4.0646                 2.8795                 2.6968
 Frc consts  --      1.9761                 1.5904                 1.5669
 IR Inten    --     47.9661                26.6235                20.4958

                     31                     32                     33
                      A                      A                      A
 Frequencies --   1059.7376              1078.5846              1116.9068
 Red. masses --      1.3726                 2.1740                 1.1207
 Frc consts  --      0.9082                 1.4901                 0.8237
 IR Inten    --     15.5171                 3.4094                 4.0696

                     34                     35                     36
                      A                      A                      A
 Frequencies --   1125.8858              1148.9217              1167.5043
 Red. masses --      1.8101                 1.4544                 1.5442
 Frc consts  --      1.3519                 1.1312                 1.2401
 IR Inten    --     29.8485                 3.5218                 4.0094

                     37                     38                     39
                      A                      A                      A
 Frequencies --   1201.8678              1240.7751              1269.5076
 Red. masses --      1.3992                 1.5589                 1.9500
 Frc consts  --      1.1908                 1.4141                 1.8516
 IR Inten    --      3.0306                11.2210                 4.9541

                     40                     41                     42
                      A                      A                      A
 Frequencies --   1300.2850              1337.6447              1394.6576
 Red. masses --      2.0441                 1.5065                 1.6138
 Frc consts  --      2.0363                 1.5882                 1.8494
 IR Inten    --     38.8360                34.0502                 5.2490

                     43                     44                     45
                      A                      A                      A
 Frequencies --   1424.1782              1460.0435              1477.0344
 Red. masses --      2.0667                 3.1950                 4.1591
 Frc consts  --      2.4698                 4.0128                 5.3460
 IR Inten    --      3.3768                10.3969                18.4729

                     46                     47                     48
                      A                      A                      A
 Frequencies --   1482.0378              1503.5224              1600.1360
 Red. masses --      4.8264                 3.8892                 5.7532
 Frc consts  --      6.2459                 5.1800                 8.6790
 IR Inten    --      8.3098                 6.1911                 0.2838

                     49                     50                     51
                      A                      A                      A
 Frequencies --   1622.3836              1686.4904              3035.7055
 Red. masses --      3.7392                 1.1039                 1.0837
 Frc consts  --      5.7987                 1.8499                 5.8841
 IR Inten    --      3.1604                18.7843                20.9628

                     52                     53                     54
                      A                      A                      A
 Frequencies --   3221.2681              3251.5371              3264.5465
 Red. masses --      1.0908                 1.0897                 1.0965
 Frc consts  --      6.6689                 6.7878                 6.8848
 IR Inten    --      2.2727                 5.5052                 7.2354

                     55                     56                     57
                      A                      A                      A
 Frequencies --   3269.3947              3270.4182              3282.2120
 Red. masses --      1.0923                 1.0974                 1.1030
 Frc consts  --      6.8792                 6.9154                 7.0010
 IR Inten    --      0.6595                 0.8861                 5.4125

                     58                     59                     60
                      A                      A                      A
 Frequencies --   3453.5593              3550.6404              3652.5555
 Red. masses --      1.0487                 1.0932                 1.0800
 Frc consts  --      7.3692                 8.1200                 8.4892
 IR Inten    --      6.2759                 1.3935                52.3608

 - Thermochemistry -
 -------------------
 Temperature   298.150 Kelvin.  Pressure   1.00000 Atm.
 Atom     1 has atomic number  6 and mass  12.00000

 Molecular mass:   178.05647 amu.
 Principal axes and moments of inertia in atomic units:
                           1         2         3
     Eigenvalues --  1040.353113608.881614038.56929
           X            0.99999  -0.00434   0.00302
           Y            0.00429   0.99987   0.01571
           Z           -0.00308  -0.01570   0.99987
 This molecule is an asymmetric top.
 Rotational symmetry number  1.
 Warning -- assumption of classical behavior for rotation
           may cause significant error
 Rotational temperatures (Kelvin)      0.08325     0.02400     0.02145
 Rotational constants (GHZ):           1.73474     0.50008     0.44688
 Zero-point vibrational energy     462810.7 (Joules/Mol)
                                  110.61441 (Kcal/Mol)
 Warning -- explicit consideration of  13 degrees of freedom as
           vibrations may cause significant error
 Vibrational temperatures:     43.35    51.99   106.09   215.63   300.04
          (Kelvin)            351.03   457.19   459.23   516.48   659.76
                              678.69   740.47   859.27   901.16   912.76
                              985.67   998.80  1011.73  1031.64  1065.58
                             1150.40  1173.95  1196.49  1237.73  1243.78
                             1293.37  1301.04  1306.95  1393.03  1428.78
                             1524.73  1551.84  1606.98  1619.90  1653.04
                             1679.78  1729.22  1785.20  1826.54  1870.82
                             1924.57  2006.60  2049.07  2100.68  2125.12
                             2132.32  2163.23  2302.24  2334.25  2426.48
                             4367.70  4634.69  4678.24  4696.95  4703.93
                             4705.40  4722.37  4968.90  5108.58  5255.21

 Zero-point correction=                           0.176275 (Hartree/Particle)
 Thermal correction to Energy=                    0.187018
 Thermal correction to Enthalpy=                  0.187962
 Thermal correction to Gibbs Free Energy=         0.138006
 Sum of electronic and zero-point Energies=           -856.500351
 Sum of electronic and thermal Energies=              -856.489608
 Sum of electronic and thermal Enthalpies=            -856.488664
 Sum of electronic and thermal Free Energies=         -856.538621

                     E (Thermal)             CV                S
                      KCal/Mol        Cal/Mol-Kelvin    Cal/Mol-Kelvin
 Total                  117.356             41.514            105.142
 Electronic               0.000              0.000              0.000
 Translational            0.889              2.981             41.438
 Rotational               0.889              2.981             31.095
 Vibrational            115.578             35.552             32.610
 Vibration     1          0.594              1.984              5.821
 Vibration     2          0.594              1.982              5.461
 Vibration     3          0.599              1.966              4.051
 Vibration     4          0.618              1.903              2.674
 Vibration     5          0.642              1.828              2.056
 Vibration     6          0.659              1.773              1.774
 Vibration     7          0.704              1.640              1.322
 Vibration     8          0.705              1.637              1.314
 Vibration     9          0.734              1.557              1.127
 Vibration    10          0.817              1.342              0.770
 Vibration    11          0.829              1.313              0.733
 Vibration    12          0.870              1.218              0.622
 Vibration    13          0.955              1.038              0.454

 Optimization completed.
    -- Stationary point found.
 Normal termination of Gaussian 16 at Wed Dec  9 17:02:34 2020.

 ----------------------------------------------------------------------
 # B3LYP/6-311++G(d,p) empiricaldispersion=gd3bj scf=xqc pop=npa geom=c
 heck
 ----------------------------------------------------------------------

 ---------------------------------------
 CID_130528033_JID_2206_Energie_neutraal
 ---------------------------------------
 Structure from the checkpoint file:  "JID_2206.chk"
 Charge =  0 Multiplicity = 1

 SCF Done:  E(RB3LYP) =  -856.837353837     A.U. after   17 cycles
 Normal termination of Gaussian 16 at Wed Dec  9 17:05:06 2020.

 ----------------------------------------------------------------------
 # B3LYP/6-311++G(d,p) empiricaldispersion=gd3bj scf=xqc pop=npa geom=c
 heck
 ----------------------------------------------------------------------

 -------------------------------------
 CID_130528033_JID_2206_Energie_kation
 -------------------------------------
 Structure from the checkpoint file:  "JID_2206.chk"
 Charge =  1 Multiplicity = 2

 SCF Done:  E(UB3LYP) =  -856.554567869     A.U. after   28 cycles
 Normal termination of Gaussian 16 at Wed Dec  9 17:11:58 2020.
 Gaussian 16:  ES64L-G16RevA.03 25-Dec-2016

 ----------------------------------------------------------------------
 # B3LYP/6-311++G(d,p) empiricaldispersion=gd3bj scf=xqc pop=npa geom=c
 heck
 ----------------------------------------------------------------------

 ------------------------------------
 CID_130528033_JID_2206_Energie_anion
 ------------------------------------
 Structure from the checkpoint file:  "JID_2206.chk"
 Charge = -1 Multiplicity = 2

                         Standard orientation:
 ---------------------------------------------------------------------
 Center     Atomic      Atomic             Coordinates (Angstroms)
 Number     Number       Type             X           Y           Z
 ---------------------------------------------------------------------
      1          6           0        3.591416   -0.815173   -0.008385
      2          6           0        2.680013   -1.437329    0.820418
      3          7           0        1.484162   -0.773695    0.694779
      4          6           0        1.605515    0.257180   -0.214468
      5          6           0        2.912855    0.253007   -0.660427
      6          6           0        0.458885    1.188146   -0.506208
      7          6           0       -0.866259    0.452571   -0.352467
      8          6           0       -1.777067    0.672726    0.646505
      9         16           0       -3.152753   -0.383628    0.529268
     10          6           0       -2.488336   -1.147975   -0.883238
     11          6           0       -1.283699   -0.607003   -1.228216
     12          7           0        0.596434    2.420093    0.286194
     13          1           0        4.628269   -1.096271   -0.133111
     14          1           0        2.778760   -2.291481    1.474189
     15          1           0        0.610282   -1.040440    1.123572
     16          1           0        3.332241    0.958656   -1.364559
     17          1           0        0.545051    1.489957   -1.558545
     18          1           0       -1.726344    1.409672    1.435717
     19          1           0       -3.028325   -1.948205   -1.371074
     20          1           0       -0.692190   -0.944582   -2.072499
     21          1           0       -0.238542    2.995465    0.175757
     22          1           0        0.670733    2.183596    1.274377
 ---------------------------------------------------------------------

 SCF Done:  E(UB3LYP) =  -856.823481089     A.U. after   33 cycles
 SCF Done:  E(UB3LYP) =  -856.823481088     a.u. after    1 cycles

 The electronic state is 2-A.
 Alpha  occ. eigenvalues --  -88.77780 -14.25237 -14.19232 -10.11789 -10.10115
 Alpha  occ. eigenvalues --  -10.09636 -10.09465 -10.09028 -10.08436 -10.07838
 Alpha  occ. eigenvalues --  -10.05746 -10.05435  -7.86376  -5.82659  -5.82295
 Alpha  occ. eigenvalues --   -5.81988  -0.87694  -0.79829  -0.77356  -0.67366
 Alpha  occ. eigenvalues --   -0.66124  -0.62949  -0.62356  -0.55421  -0.48832
 Alpha  occ. eigenvalues --   -0.47196  -0.46956  -0.44851  -0.42937  -0.40264
 Alpha  occ. eigenvalues --   -0.37916  -0.33807  -0.33354  -0.32421  -0.30497
 Alpha  occ. eigenvalues --   -0.29919  -0.29680  -0.29076  -0.28680  -0.27144
 Alpha  occ. eigenvalues --   -0.26661  -0.24617  -0.15908  -0.15021  -0.14715
 Alpha  occ. eigenvalues --   -0.13999  -0.11205   0.04512
 Alpha virt. eigenvalues --    0.06614   0.07086   0.07614   0.07970   0.09025
 Alpha virt. eigenvalues --    0.09811   0.10040   0.10570   0.11461   0.12096
 Alpha virt. eigenvalues --    0.12376   0.12534   0.13210   0.13660   0.14033

  Beta  occ. eigenvalues --  -88.77773 -14.25203 -14.19192 -10.11779 -10.10092
  Beta  occ. eigenvalues --  -10.09591 -10.09467 -10.09012 -10.08438 -10.07826
  Beta  occ. eigenvalues --  -10.05745 -10.05426  -7.86370  -5.82654  -5.82286
  Beta  occ. eigenvalues --   -5.81978  -0.87656  -0.79777  -0.77307  -0.67327
  Beta  occ. eigenvalues --   -0.66078  -0.62899  -0.62319  -0.55369  -0.48783
  Beta  occ. eigenvalues --   -0.47167  -0.46889  -0.44797  -0.42889  -0.40219
  Beta  occ. eigenvalues --   -0.37864  -0.33757  -0.33322  -0.32390  -0.30449
  Beta  occ. eigenvalues --   -0.29881  -0.29639  -0.29040  -0.28653  -0.27110
  Beta  occ. eigenvalues --   -0.26622  -0.24575  -0.15871  -0.14975  -0.14672
  Beta  occ. eigenvalues --   -0.13942  -0.11183
  Beta virt. eigenvalues --    0.06908   0.07692   0.07765   0.07933   0.08479
  Beta virt. eigenvalues --    0.09477   0.10181   0.10333   0.10855   0.11893
  Beta virt. eigenvalues --    0.12266   0.12633   0.12917   0.13433   0.13637

 Mulliken charges and spin densities:
               1          2
     1  C    0.602407  -1.121944
     2  C   -0.054267   0.113696
     3  N   -0.013693   0.049368
     4  C   -0.539381   0.003641
     5  C   -0.171059   0.874905
     6  C    5.265576  -6.416122
     7  C    0.390558  -0.585045
     8  C   -1.979877   2.630042
     9  S    1.333447  -1.738481
    10  C    0.830552  -1.145347
    11  C   -2.866186   2.559935
    12  N   -0.171377  -0.055587
    13  H    0.013697   0.118213
    14  H   -0.680436   0.839050
    15  H   -0.004984   0.313872
    16  H   -0.010670   0.166591
    17  H   -0.104907   0.322002
    18  H   -1.604946   1.910447
    19  H   -0.969009   1.233469
    20  H   -0.298238   0.474733
    21  H    0.004584   0.230162
    22  H    0.028209   0.222400
 Sum of Mulliken charges =  -1.00000   1.00000

 Dipole moment (field-independent basis, Debye):
    X=              1.1795    Y=             -0.2078    Z=             -2.1268  Tot=              2.4409
 Quadrupole moment (field-independent basis, Debye-Ang):
   XX=           -129.2758   YY=           -126.1798   ZZ=           -115.4851
   XY=             -0.4370   XZ=             -4.6264   YZ=             -7.3562

 Summary of Natural Population Analysis:

                                       Natural Population
                Natural  -----------------------------------------------
    Atom  No    Charge         Core      Valence    Rydberg      Total
 -----------------------------------------------------------------------
      C    1   -0.14906      0.99957     2.14074    0.00875     3.14906
      C    2   -0.02315      0.99958     2.00981    0.01376     3.02315
      N    3   -0.26466      0.99965     2.75456    0.01045     3.76466
      C    4    0.06744      0.99952     1.91737    0.01567     2.93256
      C    5   -0.13742      0.99950     2.13012    0.00780     3.13742
      C    6   -0.03067      0.99951     2.01686    0.01430     3.03067
      C    7   -0.05594      0.99947     2.04191    0.01456     3.05594
      C    8   -0.19523      0.99943     2.18110    0.01471     3.19523
      S    9    0.20156      4.99946     2.77792    0.02106     7.79844
      C   10   -0.18529      0.99953     2.17515    0.01061     3.18529
      C   11   -0.12397      0.99947     2.11310    0.01140     3.12397
      N   12   -0.41310      0.99978     2.90332    0.00999     3.91310
      H   13    0.10098      0.00000     0.39837    0.00065     0.39902
      H   14    0.10011      0.00000     0.39859    0.00131     0.39989
      H   15    0.20972      0.00000     0.28611    0.00416     0.29028
      H   16    0.10389      0.00000     0.39533    0.00078     0.39611
      H   17    0.10298      0.00000     0.39522    0.00180     0.39702
      H   18    0.11746      0.00000     0.37629    0.00625     0.38254
      H   19    0.11167      0.00000     0.38593    0.00240     0.38833
      H   20    0.11046      0.00000     0.38824    0.00130     0.38954
      H   21    0.17578      0.00000     0.32184    0.00238     0.32422
      H   22    0.17643      0.00000     0.32100    0.00257     0.32357
 =======================================================================
   * Total *    0.00000     15.99448    30.82887    0.17666    47.00000

 Normal termination of Gaussian 16 at Wed Dec  9 17:19:06 2020.
