 Gaussian 16, Revision A.03,

 -----------------------------------------------------------
 # opt freq B3LYP/6-31G(d) empiricaldispersion=gd3bj scf=xqc
 -----------------------------------------------------------

 -------------------------------
 CID_79544972_JID_10243_neutraal
 -------------------------------
 Symbolic Z-matrix:
 Charge =  0 Multiplicity = 1

 SCF Done:  E(RB3LYP) =  -1213.27488526     A.U. after   16 cycles
 SCF Done:  E(RB3LYP) =  -1213.27969005     A.U. after   14 cycles
 SCF Done:  E(RB3LYP) =  -1213.28048564     A.U. after   13 cycles
 SCF Done:  E(RB3LYP) =  -1213.28049514     A.U. after   14 cycles
 SCF Done:  E(RB3LYP) =  -1213.28097474     A.U. after   13 cycles
 SCF Done:  E(RB3LYP) =  -1213.28118324     A.U. after   13 cycles
 SCF Done:  E(RB3LYP) =  -1213.28134541     A.U. after   13 cycles
 SCF Done:  E(RB3LYP) =  -1213.28158096     A.U. after   13 cycles
 SCF Done:  E(RB3LYP) =  -1213.28153124     A.U. after   14 cycles
 SCF Done:  E(RB3LYP) =  -1213.28255579     A.U. after   13 cycles
 SCF Done:  E(RB3LYP) =  -1213.28856935     A.U. after   12 cycles
 SCF Done:  E(RB3LYP) =  -1213.28859158     A.U. after   11 cycles
 SCF Done:  E(RB3LYP) =  -1213.28859539     A.U. after    9 cycles
 SCF Done:  E(RB3LYP) =  -1213.28859637     A.U. after    8 cycles
 SCF Done:  E(RB3LYP) =  -1213.28859652     A.U. after    7 cycles
 SCF Done:  E(RB3LYP) =  -1213.28859656     A.U. after    7 cycles
 Optimization completed.
    -- Stationary point found.
 Normal termination of Gaussian 16 at Mon Dec 14 18:05:11 2020.

 --------------------------------------------------------------------
 #N Geom=AllCheck Guess=TCheck SCRF=Check GenChk RB3LYP/6-31G(d) Freq
 --------------------------------------------------------------------

 Structure from the checkpoint file:  "JID_10243.chk"
 -------------------------------
 CID_79544972_JID_10243_neutraal
 -------------------------------
 Charge =  0 Multiplicity = 1

 SCF Done:  E(RB3LYP) =  -1213.28859656     A.U. after    1 cycles

  Exact polarizability: 227.591  -0.319 115.391  -8.650  11.155 171.860
 Approx polarizability: 413.972  -7.346 166.310 -48.614  35.448 352.362

                      1                      2                      3
                      A                      A                      A
 Frequencies --     28.0397                53.0688                59.4440
 Red. masses --      7.0740                 6.9271                 7.4053
 Frc consts  --      0.0033                 0.0115                 0.0154
 IR Inten    --      1.6652                 1.6901                 0.6463

                      4                      5                      6
                      A                      A                      A
 Frequencies --     78.8830                83.7766               111.0710
 Red. masses --      8.2667                 7.5702                 4.4276
 Frc consts  --      0.0303                 0.0313                 0.0322
 IR Inten    --      2.8070                10.3864                 0.3393

                      7                      8                      9
                      A                      A                      A
 Frequencies --    133.9777               165.0753               181.2918
 Red. masses --      6.4701                 7.0907                 3.9920
 Frc consts  --      0.0684                 0.1138                 0.0773
 IR Inten    --      3.2217                 1.5283                 1.4948

                     10                     11                     12
                      A                      A                      A
 Frequencies --    198.0198               215.1470               265.0209
 Red. masses --      4.5404                 5.9913                 3.9437
 Frc consts  --      0.1049                 0.1634                 0.1632
 IR Inten    --      1.9395                 2.3632                 3.2743

                     13                     14                     15
                      A                      A                      A
 Frequencies --    283.1833               326.6611               338.7928
 Red. masses --      2.6472                 2.2177                 3.6953
 Frc consts  --      0.1251                 0.1394                 0.2499
 IR Inten    --      2.1721                 2.8689                 1.3928

                     16                     17                     18
                      A                      A                      A
 Frequencies --    395.8162               431.7078               457.9056
 Red. masses --      3.3147                 2.9845                 7.4721
 Frc consts  --      0.3060                 0.3277                 0.9231
 IR Inten    --      2.4068                 7.4911                 8.1702

                     19                     20                     21
                      A                      A                      A
 Frequencies --    479.3453               491.8752               499.1248
 Red. masses --      3.5050                 8.4352                 5.0576
 Frc consts  --      0.4745                 1.2024                 0.7424
 IR Inten    --      1.9925                 0.8410                 1.7795

                     22                     23                     24
                      A                      A                      A
 Frequencies --    525.0824               553.9277               563.3049
 Red. masses --      6.0913                 5.4571                 7.4001
 Frc consts  --      0.9895                 0.9865                 1.3835
 IR Inten    --      0.8223                 2.0620                 0.6213

                     25                     26                     27
                      A                      A                      A
 Frequencies --    586.8947               611.3339               637.7372
 Red. masses --      4.1301                 5.0032                 3.5289
 Frc consts  --      0.8382                 1.1017                 0.8456
 IR Inten    --      0.3020                 1.5702                 5.5994

                     28                     29                     30
                      A                      A                      A
 Frequencies --    660.6767               673.9436               703.1633
 Red. masses --      3.0649                 4.6094                 6.4482
 Frc consts  --      0.7882                 1.2335                 1.8784
 IR Inten    --     17.5123                12.0611                 5.6008

                     31                     32                     33
                      A                      A                      A
 Frequencies --    714.0243               749.8122               758.4876
 Red. masses --      3.6938                 1.5868                 2.8733
 Frc consts  --      1.1095                 0.5256                 0.9739
 IR Inten    --      4.2362                47.0804                24.4638

                     34                     35                     36
                      A                      A                      A
 Frequencies --    766.9061               770.3436               793.3758
 Red. masses --      1.5658                 2.0297                 4.6444
 Frc consts  --      0.5426                 0.7097                 1.7224
 IR Inten    --     61.6076                73.3462                33.2432

                     37                     38                     39
                      A                      A                      A
 Frequencies --    846.1504               851.2502               871.5448
 Red. masses --      1.4366                 1.4458                 1.8101
 Frc consts  --      0.6060                 0.6173                 0.8101
 IR Inten    --      1.8405                20.3491                29.5052

                     40                     41                     42
                      A                      A                      A
 Frequencies --    879.7612               930.6061               934.7484
 Red. masses --      4.1303                 2.7625                 1.7414
 Frc consts  --      1.8835                 1.4096                 0.8965
 IR Inten    --     11.2767                 1.1043                 0.3719

                     43                     44                     45
                      A                      A                      A
 Frequencies --    954.3976               971.8294               982.4730
 Red. masses --      2.1597                 4.3932                 2.3098
 Frc consts  --      1.1590                 2.4446                 1.3136
 IR Inten    --      1.2849                 0.7474                 1.0083

                     46                     47                     48
                      A                      A                      A
 Frequencies --    986.9229              1028.9747              1060.8803
 Red. masses --      1.2652                 2.2432                 2.7364
 Frc consts  --      0.7261                 1.3993                 1.8145
 IR Inten    --      0.1303                 0.9908                11.2032

                     49                     50                     51
                      A                      A                      A
 Frequencies --   1079.3086              1107.4985              1108.5772
 Red. masses --      2.6049                 7.0954                 4.0056
 Frc consts  --      1.7879                 5.1276                 2.9003
 IR Inten    --      2.8612                22.5867                 8.2427

                     52                     53                     54
                      A                      A                      A
 Frequencies --   1131.0527              1156.4518              1169.2984
 Red. masses --      2.1037                 3.0041                 1.2968
 Frc consts  --      1.5856                 2.3671                 1.0447
 IR Inten    --     25.5980                30.0163                 2.5496

                     55                     56                     57
                      A                      A                      A
 Frequencies --   1185.5884              1196.7892              1216.2898
 Red. masses --      1.7618                 1.3913                 1.2744
 Frc consts  --      1.4591                 1.1741                 1.1108
 IR Inten    --      3.2670                 1.6722                 0.8419

                     58                     59                     60
                      A                      A                      A
 Frequencies --   1244.6284              1269.0593              1309.2490
 Red. masses --      1.4787                 1.2322                 1.9234
 Frc consts  --      1.3496                 1.1692                 1.9425
 IR Inten    --      2.2317                 0.7953                 1.4367

                     61                     62                     63
                      A                      A                      A
 Frequencies --   1321.7444              1352.7155              1371.8340
 Red. masses --      1.4982                 2.5205                 1.4498
 Frc consts  --      1.5421                 2.7174                 1.6075
 IR Inten    --      3.4961                13.3329                 3.2999

                     64                     65                     66
                      A                      A                      A
 Frequencies --   1381.0861              1390.2564              1398.7132
 Red. masses --      1.3626                 2.4499                 3.6291
 Frc consts  --      1.5313                 2.7899                 4.1831
 IR Inten    --     12.0362                 5.2864                 1.7880

                     67                     68                     69
                      A                      A                      A
 Frequencies --   1413.5138              1429.4769              1492.7084
 Red. masses --      1.6075                 2.3132                 2.5323
 Frc consts  --      1.8924                 2.7850                 3.3244
 IR Inten    --     21.4239                 8.2652                 2.4583

                     70                     71                     72
                      A                      A                      A
 Frequencies --   1497.8112              1499.9373              1504.9459
 Red. masses --      2.6140                 1.3182                 1.2735
 Frc consts  --      3.4552                 1.7473                 1.6993
 IR Inten    --      2.7952                10.3359                 5.3765

                     73                     74                     75
                      A                      A                      A
 Frequencies --   1539.9870              1550.8566              1555.7649
 Red. masses --      2.4135                 1.8866                 1.3922
 Frc consts  --      3.3723                 2.6735                 1.9854
 IR Inten    --      4.7533                 7.4478                15.1192

                     76                     77                     78
                      A                      A                      A
 Frequencies --   1557.3975              1581.7014              1593.7706
 Red. masses --      2.0899                 5.5480                 6.1309
 Frc consts  --      2.9866                 8.1778                 9.1754
 IR Inten    --     22.8811                 0.2020                 1.0724

                     79                     80                     81
                      A                      A                      A
 Frequencies --   1697.5444              2347.2691              3006.8951
 Red. masses --      5.9426                12.6702                 1.0649
 Frc consts  --     10.0895                41.1302                 5.6728
 IR Inten    --     11.5633                42.9596                25.2928

                     82                     83                     84
                      A                      A                      A
 Frequencies --   3046.4781              3060.3820              3063.7369
 Red. masses --      1.0918                 1.0706                 1.0597
 Frc consts  --      5.9700                 5.9080                 5.8607
 IR Inten    --     41.9878                53.2598                39.4279

                     85                     86                     87
                      A                      A                      A
 Frequencies --   3107.2887              3118.3893              3219.4300
 Red. masses --      1.1066                 1.0982                 1.0880
 Frc consts  --      6.2950                 6.2922                 6.6444
 IR Inten    --     10.6958                 6.3778                 1.8223

                     88                     89                     90
                      A                      A                      A
 Frequencies --   3230.6524              3237.1037              3241.0045
 Red. masses --      1.0936                 1.0922                 1.0920
 Frc consts  --      6.7252                 6.7429                 6.7582
 IR Inten    --      1.4489                 1.7621                 1.2851

                     91                     92                     93
                      A                      A                      A
 Frequencies --   3256.2670              3288.8129              3488.4186
 Red. masses --      1.0980                 1.0943                 1.0749
 Frc consts  --      6.8598                 6.9739                 7.7065
 IR Inten    --      1.5712                 3.2441                11.5765

 - Thermochemistry -
 -------------------
 Temperature   298.150 Kelvin.  Pressure   1.00000 Atm.
 Atom     1 has atomic number  6 and mass  12.00000

 Molecular mass:   283.08917 amu.
 Principal axes and moments of inertia in atomic units:
                           1         2         3
     Eigenvalues --  4145.206834995.318126452.76453
           X            0.99699   0.07094   0.03135
           Y           -0.07073   0.99746  -0.00793
           Z           -0.03184   0.00569   0.99948
 This molecule is an asymmetric top.
 Rotational symmetry number  1.
 Warning -- assumption of classical behavior for rotation
           may cause significant error
 Rotational temperatures (Kelvin)      0.02089     0.01734     0.01342
 Rotational constants (GHZ):           0.43538     0.36129     0.27968
 Zero-point vibrational energy     673877.2 (Joules/Mol)
                                  161.06051 (Kcal/Mol)
 Warning -- explicit consideration of  26 degrees of freedom as
           vibrations may cause significant error
 Vibrational temperatures:     40.34    76.35    85.53   113.50   120.54
          (Kelvin)            159.81   192.76   237.51   260.84   284.91
                              309.55   381.31   407.44   469.99   487.45
                              569.49   621.13   658.82   689.67   707.70
                              718.13   755.48   796.98   810.47   844.41
                              879.57   917.56   950.57   969.65  1011.70
                             1027.32  1078.81  1091.29  1103.41  1108.35
                             1141.49  1217.42  1224.76  1253.96  1265.78
                             1338.93  1344.89  1373.17  1398.25  1413.56
                             1419.96  1480.47  1526.37  1552.88  1593.44
                             1595.00  1627.33  1663.88  1682.36  1705.80
                             1721.91  1749.97  1790.74  1825.89  1883.72
                             1901.70  1946.26  1973.76  1987.07  2000.27
                             2012.44  2033.73  2056.70  2147.67  2155.02
                             2158.08  2165.28  2215.70  2231.34  2238.40
                             2240.75  2275.72  2293.08  2442.39  3377.20
                             4326.25  4383.20  4403.21  4408.03  4470.70
                             4486.67  4632.04  4648.19  4657.47  4663.08
                             4685.04  4731.87  5019.06

 Zero-point correction=                           0.256666 (Hartree/Particle)
 Thermal correction to Energy=                    0.273328
 Thermal correction to Enthalpy=                  0.274272
 Thermal correction to Gibbs Free Energy=         0.211547
 Sum of electronic and zero-point Energies=          -1213.031930
 Sum of electronic and thermal Energies=             -1213.015269
 Sum of electronic and thermal Enthalpies=           -1213.014325
 Sum of electronic and thermal Free Energies=        -1213.077050

                     E (Thermal)             CV                S
                      KCal/Mol        Cal/Mol-Kelvin    Cal/Mol-Kelvin
 Total                  171.516             64.875            132.017
 Electronic               0.000              0.000              0.000
 Translational            0.889              2.981             42.820
 Rotational               0.889              2.981             33.257
 Vibrational            169.738             58.913             55.940
 Vibration     1          0.593              1.984              5.963
 Vibration     2          0.596              1.976              4.700
 Vibration     3          0.597              1.974              4.476
 Vibration     4          0.600              1.963              3.918
 Vibration     5          0.601              1.960              3.800
 Vibration     6          0.607              1.940              3.250
 Vibration     7          0.613              1.919              2.888
 Vibration     8          0.623              1.885              2.491
 Vibration     9          0.630              1.865              2.315
 Vibration    10          0.637              1.843              2.151
 Vibration    11          0.645              1.818              2.000
 Vibration    12          0.671              1.737              1.628
 Vibration    13          0.682              1.705              1.514
 Vibration    14          0.710              1.622              1.277
 Vibration    15          0.719              1.598              1.218
 Vibration    16          0.763              1.479              0.978
 Vibration    17          0.793              1.401              0.853
 Vibration    18          0.816              1.343              0.772
 Vibration    19          0.836              1.296              0.712
 Vibration    20          0.848              1.268              0.679
 Vibration    21          0.855              1.252              0.660
 Vibration    22          0.880              1.194              0.598
 Vibration    23          0.909              1.131              0.536
 Vibration    24          0.919              1.111              0.517
 Vibration    25          0.944              1.060              0.473
 Vibration    26          0.970              1.008              0.431

 Optimization completed.
    -- Stationary point found.
 Normal termination of Gaussian 16 at Mon Dec 14 18:26:18 2020.

 ----------------------------------------------------------------------
 # B3LYP/6-311++G(d,p) empiricaldispersion=gd3bj scf=xqc pop=npa geom=c
 heck
 ----------------------------------------------------------------------

 ---------------------------------------
 CID_79544972_JID_10243_Energie_neutraal
 ---------------------------------------
 Structure from the checkpoint file:  "JID_10243.chk"
 Charge =  0 Multiplicity = 1

 SCF Done:  E(RB3LYP) =  -1213.52762980     A.U. after   16 cycles
 Normal termination of Gaussian 16 at Mon Dec 14 18:35:27 2020.

 ----------------------------------------------------------------------
 # B3LYP/6-311++G(d,p) empiricaldispersion=gd3bj scf=xqc pop=npa geom=c
 heck
 ----------------------------------------------------------------------

 -------------------------------------
 CID_79544972_JID_10243_Energie_kation
 -------------------------------------
 Structure from the checkpoint file:  "JID_10243.chk"
 Charge =  1 Multiplicity = 2

 SCF Done:  E(UB3LYP) =  -1213.23212489     A.U. after   25 cycles
 Normal termination of Gaussian 16 at Mon Dec 14 18:56:09 2020.
 Gaussian 16:  ES64L-G16RevA.03 25-Dec-2016

 ----------------------------------------------------------------------
 # B3LYP/6-311++G(d,p) empiricaldispersion=gd3bj scf=xqc pop=npa geom=c
 heck
 ----------------------------------------------------------------------

 ------------------------------------
 CID_79544972_JID_10243_Energie_anion
 ------------------------------------
 Structure from the checkpoint file:  "JID_10243.chk"
 Charge = -1 Multiplicity = 2

                         Standard orientation:
 ---------------------------------------------------------------------
 Center     Atomic      Atomic             Coordinates (Angstroms)
 Number     Number       Type             X           Y           Z
 ---------------------------------------------------------------------
      1          6           0        2.767354    1.593554   -0.014797
      2          6           0        1.980752    1.829296    1.080960
      3          6           0        0.571686    1.856544    0.924008
      4          7           0       -0.413695    2.030844    1.795585
      5          7           0       -1.587507    1.952469    1.094417
      6          6           0       -1.326402    1.740568   -0.183854
      7          7           0        0.038612    1.654944   -0.356274
      8          6           0        0.829512    1.415733   -1.458792
      9          6           0        2.181312    1.383346   -1.301947
     10          6           0       -2.337307    1.520527   -1.257217
     11          6           0       -2.526210    0.026135   -1.574593
     12          7           0       -3.050497   -0.695586   -0.415345
     13          6           0       -2.444000   -2.009487   -0.187707
     14          6           0       -0.970922   -1.961806    0.142452
     15          6           0        0.100344   -2.077378   -0.701746
     16          6           0        1.354996   -1.800590   -0.058556
     17          6           0        1.207680   -1.482575    1.273898
     18         16           0       -0.444287   -1.511307    1.749836
     19          6           0        2.613868   -1.804591   -0.723901
     20          7           0        3.636415   -1.782103   -1.279532
     21          1           0        3.846553    1.550454    0.083688
     22          1           0        2.389656    1.991518    2.071534
     23          1           0        0.318007    1.257183   -2.399239
     24          1           0        2.810373    1.170258   -2.157363
     25          1           0       -3.283653    1.942613   -0.905131
     26          1           0       -2.060656    2.058887   -2.172280
     27          1           0       -3.218678   -0.076675   -2.420720
     28          1           0       -1.557310   -0.382299   -1.900664
     29          1           0       -2.937527   -0.127285    0.422937
     30          1           0       -2.999788   -2.503017    0.616703
     31          1           0       -2.581646   -2.618403   -1.088185
     32          1           0        0.016153   -2.350472   -1.747110
     33          1           0        1.987841   -1.231476    1.977264
 ---------------------------------------------------------------------

 SCF Done:  E(UB3LYP) =  -1213.54221321     A.U. after   27 cycles

 The electronic state is 2-A.
 Alpha  occ. eigenvalues --  -88.75609 -14.25890 -14.19794 -14.19691 -14.18385
 Alpha  occ. eigenvalues --  -14.17632 -10.10932 -10.10835 -10.10479 -10.09956
 Alpha  occ. eigenvalues --  -10.08730 -10.08722 -10.08131 -10.08073 -10.07843
 Alpha  occ. eigenvalues --  -10.07532 -10.07110 -10.05273 -10.04725 -10.04442
 Alpha  occ. eigenvalues --   -7.84256  -5.80544  -5.80169  -5.79875  -0.93581
 Alpha  occ. eigenvalues --   -0.81508  -0.81431  -0.78196  -0.76298  -0.72112
 Alpha  occ. eigenvalues --   -0.67927  -0.65887  -0.64040  -0.62961  -0.61805
 Alpha  occ. eigenvalues --   -0.56864  -0.52994  -0.52601  -0.50308  -0.48698
 Alpha  occ. eigenvalues --   -0.47413  -0.43967  -0.41896  -0.40194  -0.38747
 Alpha  occ. eigenvalues --   -0.38404  -0.37055  -0.36142  -0.35140  -0.33823
 Alpha  occ. eigenvalues --   -0.33376  -0.32222  -0.31098  -0.30143  -0.29166
 Alpha  occ. eigenvalues --   -0.28201  -0.27495  -0.26601  -0.26487  -0.26099
 Alpha  occ. eigenvalues --   -0.24249  -0.24106  -0.23716  -0.23118  -0.21983
 Alpha  occ. eigenvalues --   -0.20563  -0.19570  -0.18897  -0.14611  -0.14050
 Alpha  occ. eigenvalues --   -0.13495  -0.13262  -0.12010  -0.09532   0.03850
 Alpha virt. eigenvalues --    0.06803   0.07354   0.08387   0.09196   0.09528
 Alpha virt. eigenvalues --    0.10093   0.10798   0.11236   0.11582   0.11738
 Alpha virt. eigenvalues --    0.11962   0.12200   0.12427   0.13500   0.13615

  Beta  occ. eigenvalues --  -88.75577 -14.25778 -14.19787 -14.19555 -14.18327
  Beta  occ. eigenvalues --  -14.17458 -10.10976 -10.10838 -10.10514 -10.09954
  Beta  occ. eigenvalues --  -10.08720 -10.08663 -10.08136 -10.07768 -10.07702
  Beta  occ. eigenvalues --  -10.07201 -10.07141 -10.05332 -10.04539 -10.04251
  Beta  occ. eigenvalues --   -7.84227  -5.80532  -5.80158  -5.79764  -0.93397
  Beta  occ. eigenvalues --   -0.81418  -0.81207  -0.77958  -0.76086  -0.71986
  Beta  occ. eigenvalues --   -0.67702  -0.65658  -0.63786  -0.62705  -0.61497
  Beta  occ. eigenvalues --   -0.56773  -0.52686  -0.52467  -0.50174  -0.48263
  Beta  occ. eigenvalues --   -0.47207  -0.43859  -0.41746  -0.40060  -0.38594
  Beta  occ. eigenvalues --   -0.38338  -0.36933  -0.35981  -0.34971  -0.33527
  Beta  occ. eigenvalues --   -0.33200  -0.32114  -0.31021  -0.30016  -0.29064
  Beta  occ. eigenvalues --   -0.28081  -0.26952  -0.26506  -0.26354  -0.26007
  Beta  occ. eigenvalues --   -0.24052  -0.23935  -0.23151  -0.22739  -0.21310
  Beta  occ. eigenvalues --   -0.20401  -0.18756  -0.18656  -0.13948  -0.13634
  Beta  occ. eigenvalues --   -0.13129  -0.13062  -0.11060  -0.08536
  Beta virt. eigenvalues --    0.07116   0.08129   0.08906   0.08954   0.09314
  Beta virt. eigenvalues --    0.09625   0.10097   0.10827   0.11271   0.11668
  Beta virt. eigenvalues --    0.11869   0.12135   0.12225   0.12458   0.13520

 Mulliken charges and spin densities:
               1          2
     1  C   -0.521555   0.110555
     2  C   -0.273123   0.169734
     3  C    0.231879  -0.037737
     4  N   -0.050519   0.021791
     5  N   -0.090201   0.059378
     6  C    0.016778   0.000506
     7  N    0.275482   0.011945
     8  C   -0.504013   0.282518
     9  C    0.031649  -0.023161
    10  C   -0.639569   0.001282
    11  C   -0.084447  -0.034062
    12  N    0.023332  -0.011832
    13  C   -0.502574  -0.043984
    14  C    0.332604   0.126662
    15  C   -0.375092  -0.066526
    16  C    1.098172   0.004472
    17  C   -0.081771   0.318544
    18  S   -0.137896   0.028874
    19  C   -1.526463  -0.066761
    20  N   -0.272385   0.087820
    21  H    0.134098  -0.002247
    22  H    0.163466  -0.014989
    23  H    0.100681  -0.020621
    24  H    0.164048   0.011376
    25  H    0.219652   0.000621
    26  H    0.129183   0.003280
    27  H    0.172294   0.008735
    28  H    0.035280   0.022041
    29  H    0.203092   0.008653
    30  H    0.122318   0.046850
    31  H    0.154887   0.005250
    32  H    0.177153   0.009077
    33  H    0.273559  -0.018044
 Sum of Mulliken charges =  -1.00000   1.00000

 Dipole moment (field-independent basis, Debye):
    X=             -3.6718    Y=             -1.0197    Z=             -2.7947  Tot=              4.7257
 Quadrupole moment (field-independent basis, Debye-Ang):
   XX=           -169.2880   YY=           -156.0259   ZZ=           -139.8996
   XY=             11.6691   XZ=             16.1017   YZ=            -10.1259

 Summary of Natural Population Analysis:

                                       Natural Population
                Natural  -----------------------------------------------
    Atom  No    Charge         Core      Valence    Rydberg      Total
 -----------------------------------------------------------------------
      C    1   -0.06091      0.99958     2.05240    0.00894     3.06091
      C    2   -0.08668      0.99952     2.07932    0.00784     3.08668
      C    3    0.16609      0.99958     1.81513    0.01920     2.83391
      N    4   -0.17205      0.99969     2.65730    0.01506     3.67205
      N    5   -0.14214      0.99968     2.63032    0.01214     3.64214
      C    6    0.14841      0.99960     1.83117    0.02081     2.85159
      N    7   -0.18691      0.99957     2.67518    0.01216     3.68691
      C    8    0.07513      0.99956     1.91356    0.01176     2.92487
      C    9   -0.13631      0.99958     2.12834    0.00839     3.13631
      C   10   -0.21365      0.99960     2.20730    0.00676     3.21365
      C   11   -0.08434      0.99963     2.07585    0.00886     3.08434
      N   12   -0.34892      0.99976     2.83447    0.01469     3.84892
      C   13   -0.09974      0.99957     2.08790    0.01227     3.09974
      C   14   -0.10733      0.99949     2.09661    0.01123     3.10733
      C   15   -0.12046      0.99943     2.11078    0.01025     3.12046
      C   16   -0.11777      0.99939     2.10653    0.01185     3.11777
      C   17   -0.09685      0.99951     2.08616    0.01117     3.09685
      S   18    0.23082      4.99938     2.74850    0.02130     7.76918
      C   19    0.15514      0.99963     1.82777    0.01746     2.84486
      N   20   -0.17704      0.99979     2.66685    0.01040     3.67704
      H   21    0.09569      0.00000     0.40309    0.00122     0.40431
      H   22    0.10237      0.00000     0.39678    0.00085     0.39763
      H   23    0.09026      0.00000     0.40861    0.00112     0.40974
      H   24    0.10470      0.00000     0.39408    0.00122     0.39530
      H   25    0.11110      0.00000     0.38767    0.00122     0.38890
      H   26    0.10314      0.00000     0.39583    0.00103     0.39686
      H   27    0.08372      0.00000     0.41510    0.00118     0.41628
      H   28    0.09127      0.00000     0.40726    0.00148     0.40873
      H   29    0.18451      0.00000     0.31305    0.00244     0.31549
      H   30    0.09844      0.00000     0.40015    0.00142     0.40156
      H   31    0.09532      0.00000     0.40365    0.00102     0.40468
      H   32    0.10469      0.00000     0.39435    0.00096     0.39531
      H   33    0.11029      0.00000     0.38892    0.00078     0.38971
 =======================================================================
   * Total *    0.00000     23.99153    49.73999    0.26848    74.00000

 Normal termination of Gaussian 16 at Mon Dec 14 19:17:10 2020.
