 Gaussian 16, Revision A.03,

 -----------------------------------------------------------
 # opt freq B3LYP/6-31G(d) empiricaldispersion=gd3bj scf=xqc
 -----------------------------------------------------------

 -------------------------------
 CID_101687910_JID_5116_neutraal
 -------------------------------
 Symbolic Z-matrix:
 Charge =  0 Multiplicity = 1

 SCF Done:  E(RB3LYP) =  -695.069212480     A.U. after   14 cycles
 SCF Done:  E(RB3LYP) =  -695.071889488     A.U. after   13 cycles
 SCF Done:  E(RB3LYP) =  -695.070775694     A.U. after   13 cycles
 SCF Done:  E(RB3LYP) =  -695.072231696     A.U. after   12 cycles
 SCF Done:  E(RB3LYP) =  -695.072647485     A.U. after   12 cycles
 SCF Done:  E(RB3LYP) =  -695.072699784     A.U. after   12 cycles
 SCF Done:  E(RB3LYP) =  -695.072783206     A.U. after   11 cycles
 SCF Done:  E(RB3LYP) =  -695.072888325     A.U. after   12 cycles
 SCF Done:  E(RB3LYP) =  -695.072981628     A.U. after   11 cycles
 SCF Done:  E(RB3LYP) =  -695.073107320     A.U. after   12 cycles
 SCF Done:  E(RB3LYP) =  -695.073320201     A.U. after   12 cycles
 SCF Done:  E(RB3LYP) =  -695.073334682     A.U. after   12 cycles
 SCF Done:  E(RB3LYP) =  -695.073336804     A.U. after   10 cycles
 SCF Done:  E(RB3LYP) =  -695.073336925     A.U. after    8 cycles
 SCF Done:  E(RB3LYP) =  -695.073336940     A.U. after    7 cycles
 Optimization completed.
    -- Stationary point found.
 Normal termination of Gaussian 16 at Thu Dec 10 14:54:23 2020.

 --------------------------------------------------------------------
 #N Geom=AllCheck Guess=TCheck SCRF=Check GenChk RB3LYP/6-31G(d) Freq
 --------------------------------------------------------------------

 Structure from the checkpoint file:  "JID_5116.chk"
 -------------------------------
 CID_101687910_JID_5116_neutraal
 -------------------------------
 Charge =  0 Multiplicity = 1

 SCF Done:  E(RB3LYP) =  -695.073336940     A.U. after    1 cycles

  Exact polarizability: 145.487  -1.065 129.749  -3.715  -3.002 109.977
 Approx polarizability: 181.373  -7.534 195.485  -1.734  -6.277 166.693

                      1                      2                      3
                      A                      A                      A
 Frequencies --     30.4100                53.8553                68.1577
 Red. masses --      5.2255                 3.7696                 4.3829
 Frc consts  --      0.0028                 0.0064                 0.0120
 IR Inten    --      2.0228                 0.6401                 4.5137

                      4                      5                      6
                      A                      A                      A
 Frequencies --     81.1936               107.1320               124.1594
 Red. masses --      3.6481                 2.3910                 1.8095
 Frc consts  --      0.0142                 0.0162                 0.0164
 IR Inten    --      0.7988                 0.0608                 0.3369

                      7                      8                      9
                      A                      A                      A
 Frequencies --    140.4861               142.4696               146.3819
 Red. masses --      1.6500                 2.1074                 1.6976
 Frc consts  --      0.0192                 0.0252                 0.0214
 IR Inten    --      0.0519                 0.0487                 0.7924

                     10                     11                     12
                      A                      A                      A
 Frequencies --    161.3176               226.8108               247.1883
 Red. masses --      3.2185                 3.4976                 2.7567
 Frc consts  --      0.0493                 0.1060                 0.0992
 IR Inten    --      1.0766                 4.2636                 7.2996

                     13                     14                     15
                      A                      A                      A
 Frequencies --    280.4935               299.5778               318.4762
 Red. masses --      2.8252                 2.0300                 2.7591
 Frc consts  --      0.1310                 0.1073                 0.1649
 IR Inten    --      1.5315                 0.6823                10.3110

                     16                     17                     18
                      A                      A                      A
 Frequencies --    357.8945               404.3755               422.6026
 Red. masses --      2.6906                 2.1779                 4.6042
 Frc consts  --      0.2031                 0.2098                 0.4845
 IR Inten    --      8.2196                 0.6925                 4.1356

                     19                     20                     21
                      A                      A                      A
 Frequencies --    446.6884               472.3629               482.0089
 Red. masses --      3.8584                 2.3772                 3.0342
 Frc consts  --      0.4536                 0.3125                 0.4153
 IR Inten    --      0.9356                 1.8315                10.5919

                     22                     23                     24
                      A                      A                      A
 Frequencies --    510.3158               608.1283               623.9442
 Red. masses --      2.4357                 1.9733                 4.2181
 Frc consts  --      0.3737                 0.4300                 0.9675
 IR Inten    --      1.9420                 3.1727                 7.4644

                     25                     26                     27
                      A                      A                      A
 Frequencies --    661.3076               747.9564               774.6419
 Red. masses --      2.9763                 3.4255                 3.7016
 Frc consts  --      0.7669                 1.1291                 1.3087
 IR Inten    --      3.6865                 3.2234                 1.7468

                     28                     29                     30
                      A                      A                      A
 Frequencies --    802.4697               826.5340               840.4240
 Red. masses --      1.5146                 3.3058                 2.7209
 Frc consts  --      0.5747                 1.3306                 1.1323
 IR Inten    --      0.4881                 1.2889                 1.9671

                     31                     32                     33
                      A                      A                      A
 Frequencies --    851.1159               884.7575               894.1615
 Red. masses --      1.6707                 2.5033                 2.3503
 Frc consts  --      0.7131                 1.1545                 1.1071
 IR Inten    --     10.8782                 1.6487                 1.9879

                     34                     35                     36
                      A                      A                      A
 Frequencies --    941.1042               954.0574               988.4425
 Red. masses --      2.3806                 1.4120                 2.1495
 Frc consts  --      1.2422                 0.7572                 1.2374
 IR Inten    --      6.1285                 3.0766                 9.3670

                     37                     38                     39
                      A                      A                      A
 Frequencies --   1007.2509              1013.5948              1038.6612
 Red. masses --      2.0802                 3.0712                 1.9458
 Frc consts  --      1.2434                 1.8591                 1.2368
 IR Inten    --      3.5502                 8.3695                 5.1948

                     40                     41                     42
                      A                      A                      A
 Frequencies --   1053.3335              1060.7771              1071.4584
 Red. masses --      2.0781                 1.6271                 2.0368
 Frc consts  --      1.3585                 1.0787                 1.3777
 IR Inten    --      4.3494                 2.9651                 1.3986

                     43                     44                     45
                      A                      A                      A
 Frequencies --   1100.7541              1108.1152              1148.9220
 Red. masses --      2.2568                 1.8528                 1.0765
 Frc consts  --      1.6111                 1.3405                 0.8372
 IR Inten    --     15.8869                 1.6499                 0.5081

                     46                     47                     48
                      A                      A                      A
 Frequencies --   1167.8509              1177.7736              1186.2705
 Red. masses --      1.6543                 1.9166                 1.2759
 Frc consts  --      1.3293                 1.5664                 1.0579
 IR Inten    --     20.5638                46.4216                 0.9274

                     49                     50                     51
                      A                      A                      A
 Frequencies --   1205.3567              1220.0210              1247.5730
 Red. masses --      2.6688                 1.5580                 1.8153
 Frc consts  --      2.2845                 1.3663                 1.6647
 IR Inten    --    100.3419                 6.8377               191.2494

                     52                     53                     54
                      A                      A                      A
 Frequencies --   1256.8773              1281.0920              1299.0165
 Red. masses --      1.7574                 1.4543                 1.2851
 Frc consts  --      1.6357                 1.4062                 1.2776
 IR Inten    --     50.9789                38.0030                30.2945

                     55                     56                     57
                      A                      A                      A
 Frequencies --   1309.3750              1316.9406              1341.6554
 Red. masses --      1.2600                 1.2407                 1.4635
 Frc consts  --      1.2728                 1.2678                 1.5521
 IR Inten    --      3.5492                 0.8199                10.7851

                     58                     59                     60
                      A                      A                      A
 Frequencies --   1359.3010              1371.1334              1392.3707
 Red. masses --      1.7002                 1.3314                 1.4026
 Frc consts  --      1.8508                 1.4747                 1.6022
 IR Inten    --     52.5631                 1.6176                 4.5746

                     61                     62                     63
                      A                      A                      A
 Frequencies --   1398.6267              1400.8759              1406.3022
 Red. masses --      1.4506                 1.4849                 1.4034
 Frc consts  --      1.6718                 1.7169                 1.6353
 IR Inten    --      2.0112                 0.3394                 7.3383

                     64                     65                     66
                      A                      A                      A
 Frequencies --   1411.5094              1417.2942              1435.6127
 Red. masses --      1.3215                 1.4053                 1.4187
 Frc consts  --      1.5512                 1.6632                 1.7228
 IR Inten    --     27.7469                10.2866                 3.2490

                     67                     68                     69
                      A                      A                      A
 Frequencies --   1491.2813              1499.3648              1503.3707
 Red. masses --      1.1801                 1.0633                 1.0723
 Frc consts  --      1.5463                 1.4083                 1.4279
 IR Inten    --      3.0132                17.1671                 5.0536

                     70                     71                     72
                      A                      A                      A
 Frequencies --   1504.6404              1512.9595              1513.7465
 Red. masses --      1.0792                 1.0484                 1.0857
 Frc consts  --      1.4395                 1.4139                 1.4658
 IR Inten    --      5.8477                 5.6834                 5.0614

                     73                     74                     75
                      A                      A                      A
 Frequencies --   1516.4373              1524.4786              1524.8060
 Red. masses --      1.0941                 1.0652                 1.0743
 Frc consts  --      1.4824                 1.4585                 1.4716
 IR Inten    --      1.1445                 9.3488                 5.6177

                     76                     77                     78
                      A                      A                      A
 Frequencies --   1528.8202              1541.2850              1801.7228
 Red. masses --      1.0854                 1.0965                11.2040
 Frc consts  --      1.4948                 1.5347                21.4289
 IR Inten    --      9.6203                 2.8789               306.2966

                     79                     80                     81
                      A                      A                      A
 Frequencies --   1828.6537              3017.2495              3018.8085
 Red. masses --     10.9073                 1.0730                 1.0707
 Frc consts  --     21.4898                 5.7556                 5.7488
 IR Inten    --     68.1883                 1.0291                45.0037

                     82                     83                     84
                      A                      A                      A
 Frequencies --   3024.0834              3034.2663              3037.1240
 Red. masses --      1.0678                 1.0630                 1.0749
 Frc consts  --      5.7535                 5.7663                 5.8419
 IR Inten    --     13.3160                16.4860                72.2363

                     85                     86                     87
                      A                      A                      A
 Frequencies --   3051.9793              3052.9820              3066.9006
 Red. masses --      1.0671                 1.0798                 1.0947
 Frc consts  --      5.8562                 5.9300                 6.0667
 IR Inten    --     31.6266                 6.7192                30.7291

                     88                     89                     90
                      A                      A                      A
 Frequencies --   3068.8295              3070.2403              3073.0591
 Red. masses --      1.0352                 1.0913                 1.0760
 Frc consts  --      5.7442                 6.0608                 5.9871
 IR Inten    --      1.7548                61.2273                46.4678

                     91                     92                     93
                      A                      A                      A
 Frequencies --   3078.1119              3078.4049              3098.5978
 Red. masses --      1.0970                 1.0309                 1.0965
 Frc consts  --      6.1241                 5.7560                 6.2028
 IR Inten    --     54.7988                25.0904                43.0434

                     94                     95                     96
                      A                      A                      A
 Frequencies --   3106.2267              3125.5523              3134.9191
 Red. masses --      1.0927                 1.0990                 1.0992
 Frc consts  --      6.2117                 6.3254                 6.3647
 IR Inten    --     59.5043                17.4003                 2.8336

                     97                     98                     99
                      A                      A                      A
 Frequencies --   3154.0431              3171.0268              3187.1150
 Red. masses --      1.1075                 1.1043                 1.1074
 Frc consts  --      6.4915                 6.5423                 6.6273
 IR Inten    --     18.9412                 8.7243                15.6981

 - Thermochemistry -
 -------------------
 Temperature   298.150 Kelvin.  Pressure   1.00000 Atm.
 Atom     1 has atomic number  6 and mass  12.00000

 Molecular mass:   212.14124 amu.
 Principal axes and moments of inertia in atomic units:
                           1         2         3
     Eigenvalues --  2028.894284440.578435580.40793
           X            0.99988   0.01257  -0.00905
           Y           -0.01256   0.99992   0.00132
           Z            0.00907  -0.00120   0.99996
 This molecule is an asymmetric top.
 Rotational symmetry number  1.
 Warning -- assumption of classical behavior for rotation
           may cause significant error
 Rotational temperatures (Kelvin)      0.04269     0.01951     0.01552
 Rotational constants (GHZ):           0.88952     0.40642     0.32341
 Zero-point vibrational energy     813880.5 (Joules/Mol)
                                  194.52210 (Kcal/Mol)
 Warning -- explicit consideration of  23 degrees of freedom as
           vibrations may cause significant error
 Vibrational temperatures:     43.75    77.49    98.06   116.82   154.14
          (Kelvin)            178.64   202.13   204.98   210.61   232.10
                              326.33   355.65   403.57   431.03   458.22
                              514.93   581.81   608.03   642.69   679.62
                              693.50   734.23   874.96   897.72   951.47
                             1076.14  1114.54  1154.57  1189.20  1209.18
                             1224.57  1272.97  1286.50  1354.04  1372.68
                             1422.15  1449.21  1458.34  1494.40  1515.51
                             1526.22  1541.59  1583.74  1594.33  1653.04
                             1680.28  1694.55  1706.78  1734.24  1755.34
                             1794.98  1808.37  1843.21  1869.00  1883.90
                             1894.78  1930.34  1955.73  1972.76  2003.31
                             2012.31  2015.55  2023.36  2030.85  2039.17
                             2065.53  2145.62  2157.25  2163.02  2164.84
                             2176.81  2177.94  2181.82  2193.38  2193.86
                             2199.63  2217.57  2592.28  2631.02  4341.15
                             4343.39  4350.98  4365.63  4369.74  4391.12
                             4392.56  4412.59  4415.36  4417.39  4421.45
                             4428.72  4429.14  4458.19  4469.17  4496.97
                             4510.45  4537.96  4562.40  4585.55

 Zero-point correction=                           0.309991 (Hartree/Particle)
 Thermal correction to Energy=                    0.325965
 Thermal correction to Enthalpy=                  0.326909
 Thermal correction to Gibbs Free Energy=         0.266036
 Sum of electronic and zero-point Energies=           -694.763346
 Sum of electronic and thermal Energies=              -694.747372
 Sum of electronic and thermal Enthalpies=            -694.746428
 Sum of electronic and thermal Free Energies=         -694.807301

                     E (Thermal)             CV                S
                      KCal/Mol        Cal/Mol-Kelvin    Cal/Mol-Kelvin
 Total                  204.546             59.330            128.119
 Electronic               0.000              0.000              0.000
 Translational            0.889              2.981             41.960
 Rotational               0.889              2.981             32.286
 Vibrational            202.769             53.369             53.873
 Vibration     1          0.594              1.984              5.802
 Vibration     2          0.596              1.976              4.671
 Vibration     3          0.598              1.969              4.206
 Vibration     4          0.600              1.962              3.862
 Vibration     5          0.606              1.944              3.320
 Vibration     6          0.610              1.929              3.035
 Vibration     7          0.615              1.913              2.797
 Vibration     8          0.616              1.911              2.770
 Vibration     9          0.617              1.907              2.719
 Vibration    10          0.622              1.890              2.534
 Vibration    11          0.650              1.800              1.904
 Vibration    12          0.661              1.767              1.751
 Vibration    13          0.680              1.710              1.531
 Vibration    14          0.692              1.674              1.419
 Vibration    15          0.705              1.638              1.318
 Vibration    16          0.733              1.559              1.131
 Vibration    17          0.770              1.461              0.947
 Vibration    18          0.785              1.421              0.883
 Vibration    19          0.806              1.368              0.806
 Vibration    20          0.829              1.311              0.731
 Vibration    21          0.838              1.290              0.705
 Vibration    22          0.865              1.227              0.633
 Vibration    23          0.967              1.015              0.436

 Optimization completed.
    -- Stationary point found.
 Normal termination of Gaussian 16 at Thu Dec 10 15:06:01 2020.

 ----------------------------------------------------------------------
 # B3LYP/6-311++G(d,p) empiricaldispersion=gd3bj scf=xqc pop=npa geom=c
 heck
 ----------------------------------------------------------------------

 ---------------------------------------
 CID_101687910_JID_5116_Energie_neutraal
 ---------------------------------------
 Structure from the checkpoint file:  "JID_5116.chk"
 Charge =  0 Multiplicity = 1

 SCF Done:  E(RB3LYP) =  -695.272836291     A.U. after   14 cycles
 Normal termination of Gaussian 16 at Thu Dec 10 15:10:52 2020.

 ----------------------------------------------------------------------
 # B3LYP/6-311++G(d,p) empiricaldispersion=gd3bj scf=xqc pop=npa geom=c
 heck
 ----------------------------------------------------------------------

 -------------------------------------
 CID_101687910_JID_5116_Energie_kation
 -------------------------------------
 Structure from the checkpoint file:  "JID_5116.chk"
 Charge =  1 Multiplicity = 2

 SCF Done:  E(UB3LYP) =  -694.939541738     A.U. after   27 cycles
 Normal termination of Gaussian 16 at Thu Dec 10 15:23:43 2020.
 Gaussian 16:  ES64L-G16RevA.03 25-Dec-2016

 ----------------------------------------------------------------------
 # B3LYP/6-311++G(d,p) empiricaldispersion=gd3bj scf=xqc pop=npa geom=c
 heck
 ----------------------------------------------------------------------

 ------------------------------------
 CID_101687910_JID_5116_Energie_anion
 ------------------------------------
 Structure from the checkpoint file:  "JID_5116.chk"
 Charge = -1 Multiplicity = 2

                         Standard orientation:
 ---------------------------------------------------------------------
 Center     Atomic      Atomic             Coordinates (Angstroms)
 Number     Number       Type             X           Y           Z
 ---------------------------------------------------------------------
      1          6           0       -1.907501    1.421060    1.535674
      2          6           0       -1.548526    1.715832    0.094704
      3          8           0       -1.575495    2.844635   -0.353477
      4          6           0       -1.083133    0.568120   -0.826105
      5          6           0        0.453250    0.618531   -1.018496
      6          6           0        1.319833    0.805632    0.245261
      7          6           0        1.361608   -0.410178    1.195033
      8          6           0        2.152006   -1.592614    0.617339
      9          6           0        3.572468   -1.177161    0.213082
     10          6           0        3.550289    0.018327   -0.748367
     11          6           0        2.762600    1.191121   -0.147551
     12          6           0       -1.616471   -0.809204   -0.475128
     13          8           0       -0.977799   -1.837788   -0.417849
     14          8           0       -2.956886   -0.766628   -0.292721
     15          6           0       -3.578734   -2.030136   -0.003461
     16          1           0       -2.888563    0.935953    1.571377
     17          1           0       -1.944418    2.357630    2.094985
     18          1           0       -1.188612    0.734046    1.993864
     19          1           0       -1.537900    0.804884   -1.796556
     20          1           0        0.749087   -0.280870   -1.565113
     21          1           0        0.644597    1.473620   -1.675650
     22          1           0        0.905473    1.659085    0.799777
     23          1           0        1.837860   -0.087255    2.132230
     24          1           0        0.352356   -0.743238    1.454304
     25          1           0        1.616221   -1.994677   -0.249700
     26          1           0        2.190091   -2.402247    1.356745
     27          1           0        4.102726   -2.023480   -0.241249
     28          1           0        4.138867   -0.898548    1.114341
     29          1           0        3.096950   -0.287990   -1.701101
     30          1           0        4.572800    0.339696   -0.982627
     31          1           0        2.745201    2.039457   -0.843624
     32          1           0        3.285637    1.537696    0.754975
     33          1           0       -3.412458   -2.733176   -0.823264
     34          1           0       -3.169789   -2.454860    0.916948
     35          1           0       -4.640824   -1.813470    0.109799
 ---------------------------------------------------------------------

 SCF Done:  E(UB3LYP) =  -695.263107092     A.U. after   33 cycles
 SCF Done:  E(UB3LYP) =  -695.263107092     a.u. after    1 cycles

 The electronic state is 2-A.
 Alpha  occ. eigenvalues --  -19.07031 -19.01580 -18.99551 -10.20370 -10.14368
 Alpha  occ. eigenvalues --  -10.12057 -10.09064 -10.07473 -10.07151 -10.06890
 Alpha  occ. eigenvalues --  -10.06855 -10.06765 -10.06530 -10.06305 -10.06009
 Alpha  occ. eigenvalues --   -1.01112  -0.93258  -0.92399  -0.74258  -0.70395
 Alpha  occ. eigenvalues --   -0.65657  -0.64356  -0.63157  -0.61833  -0.55306
 Alpha  occ. eigenvalues --   -0.51148  -0.50048  -0.47502  -0.44917  -0.43036
 Alpha  occ. eigenvalues --   -0.40237  -0.39457  -0.38602  -0.38198  -0.35869
 Alpha  occ. eigenvalues --   -0.35196  -0.35078  -0.33578  -0.33060  -0.32432
 Alpha  occ. eigenvalues --   -0.30907  -0.30578  -0.29626  -0.29065  -0.28259
 Alpha  occ. eigenvalues --   -0.27633  -0.26591  -0.26345  -0.25769  -0.24880
 Alpha  occ. eigenvalues --   -0.23814  -0.23245  -0.21253  -0.21132  -0.20222
 Alpha  occ. eigenvalues --   -0.19990  -0.18701  -0.14106   0.04306
 Alpha virt. eigenvalues --    0.06055   0.06888   0.07629   0.08008   0.08338
 Alpha virt. eigenvalues --    0.08859   0.09323   0.09764   0.10285   0.10593
 Alpha virt. eigenvalues --    0.10918   0.11565   0.11765   0.12133   0.12703

  Beta  occ. eigenvalues --  -19.07029 -19.01573 -18.99389 -10.20368 -10.14162
  Beta  occ. eigenvalues --  -10.11994 -10.09075 -10.07469 -10.07118 -10.06884
  Beta  occ. eigenvalues --  -10.06840 -10.06754 -10.06532 -10.06299 -10.06002
  Beta  occ. eigenvalues --   -1.01098  -0.92929  -0.92383  -0.74230  -0.70303
  Beta  occ. eigenvalues --   -0.65605  -0.64334  -0.63023  -0.61769  -0.55243
  Beta  occ. eigenvalues --   -0.51122  -0.50000  -0.47349  -0.44766  -0.42994
  Beta  occ. eigenvalues --   -0.40172  -0.39339  -0.38505  -0.38143  -0.35765
  Beta  occ. eigenvalues --   -0.35167  -0.34999  -0.33331  -0.32980  -0.32343
  Beta  occ. eigenvalues --   -0.30828  -0.30509  -0.29575  -0.29024  -0.28211
  Beta  occ. eigenvalues --   -0.27581  -0.26556  -0.26142  -0.25737  -0.24646
  Beta  occ. eigenvalues --   -0.23790  -0.22848  -0.21222  -0.21104  -0.20196
  Beta  occ. eigenvalues --   -0.19970  -0.18683  -0.13979
  Beta virt. eigenvalues --    0.06253   0.07223   0.07574   0.08115   0.08676
  Beta virt. eigenvalues --    0.08912   0.09116   0.09628   0.10241   0.10600
  Beta virt. eigenvalues --    0.10742   0.11200   0.11838   0.12021   0.12193

 Mulliken charges and spin densities:
               1          2
     1  C    0.006703  -0.407814
     2  C   -0.309855   0.093203
     3  O   -0.269039   0.064145
     4  C    1.315147  -0.427527
     5  C   -0.004470  -0.806666
     6  C   -0.023297   0.476138
     7  C   -0.012690  -0.202627
     8  C   -0.437670   0.072294
     9  C    0.116594  -0.649932
    10  C   -0.061541  -0.184527
    11  C   -0.590255   0.111075
    12  C   -1.132019   0.273269
    13  O   -0.211970   0.018159
    14  O   -0.098959   0.081832
    15  C    1.317544  -1.521487
    16  H   -0.121134   0.313912
    17  H    0.115285   0.053661
    18  H   -0.005108   0.142040
    19  H   -0.160929   0.447265
    20  H    0.066820   0.111408
    21  H    0.249828  -0.049496
    22  H    0.328348  -0.088089
    23  H   -0.034056   0.186374
    24  H    0.318553  -0.164163
    25  H    0.137187   0.045952
    26  H   -0.043680   0.193522
    27  H   -0.078378   0.235811
    28  H    0.108265   0.008070
    29  H    0.028251   0.098551
    30  H   -0.234655   0.409333
    31  H    0.060260   0.078060
    32  H   -0.062772   0.200064
    33  H   -0.343033   0.518131
    34  H   -0.398025   0.577329
    35  H   -0.535249   0.692730
 Sum of Mulliken charges =  -1.00000   1.00000

 Dipole moment (field-independent basis, Debye):
    X=              4.8552    Y=              1.5145    Z=              0.7603  Tot=              5.1424
 Quadrupole moment (field-independent basis, Debye-Ang):
   XX=           -172.9502   YY=           -142.1388   ZZ=           -119.5439
   XY=             -4.8767   XZ=              3.3933   YZ=              3.3941

 Summary of Natural Population Analysis:

                                       Natural Population
                Natural  -----------------------------------------------
    Atom  No    Charge         Core      Valence    Rydberg      Total
 -----------------------------------------------------------------------
      C    1   -0.34053      0.99961     2.33548    0.00545     3.34053
      C    2    0.32491      0.99967     1.65328    0.02214     2.67509
      O    3   -0.27899      0.99987     3.27254    0.00658     4.27899
      C    4   -0.19782      0.99949     2.18518    0.01315     3.19782
      C    5   -0.18481      0.99959     2.17471    0.01051     3.18481
      C    6   -0.11180      0.99958     2.10352    0.00869     3.11180
      C    7   -0.19036      0.99961     2.18212    0.00864     3.19036
      C    8   -0.19298      0.99962     2.18593    0.00743     3.19298
      C    9   -0.18987      0.99963     2.18180    0.00844     3.18987
      C   10   -0.19218      0.99963     2.18441    0.00814     3.19218
      C   11   -0.18571      0.99962     2.17668    0.00941     3.18571
      C   12    0.41479      0.99965     1.55966    0.02589     2.58521
      O   13   -0.30632      0.99987     3.30045    0.00600     4.30632
      O   14   -0.28082      0.99986     3.27157    0.00939     4.28082
      C   15   -0.10335      0.99959     2.09467    0.00909     3.10335
      H   16    0.12180      0.00000     0.37629    0.00191     0.37820
      H   17    0.10680      0.00000     0.39227    0.00093     0.39320
      H   18    0.10514      0.00000     0.39364    0.00122     0.39486
      H   19    0.12838      0.00000     0.37008    0.00154     0.37162
      H   20    0.10663      0.00000     0.39191    0.00145     0.39337
      H   21    0.10386      0.00000     0.39506    0.00108     0.39614
      H   22    0.09900      0.00000     0.39939    0.00161     0.40100
      H   23    0.09158      0.00000     0.40734    0.00108     0.40842
      H   24    0.10288      0.00000     0.39580    0.00132     0.39712
      H   25    0.10450      0.00000     0.39397    0.00152     0.39550
      H   26    0.09655      0.00000     0.40252    0.00093     0.40345
      H   27    0.09662      0.00000     0.40251    0.00087     0.40338
      H   28    0.08939      0.00000     0.40945    0.00116     0.41061
      H   29    0.09435      0.00000     0.40446    0.00119     0.40565
      H   30    0.09676      0.00000     0.40220    0.00104     0.40324
      H   31    0.09807      0.00000     0.40108    0.00084     0.40193
      H   32    0.09377      0.00000     0.40522    0.00102     0.40623
      H   33    0.09265      0.00000     0.40561    0.00174     0.40735
      H   34    0.09246      0.00000     0.40568    0.00186     0.40754
      H   35    0.09466      0.00000     0.40315    0.00220     0.40534
 =======================================================================
   * Total *    0.00000     14.99491    42.81967    0.18542    58.00000

 Normal termination of Gaussian 16 at Thu Dec 10 15:38:35 2020.
