 Gaussian 16, Revision A.03,

 -----------------------------------------------------------
 # opt freq B3LYP/6-31G(d) empiricaldispersion=gd3bj scf=xqc
 -----------------------------------------------------------

 ------------------------------
 CID_91002871_JID_4088_neutraal
 ------------------------------
 Symbolic Z-matrix:
 Charge =  0 Multiplicity = 1

 SCF Done:  E(RB3LYP) =  -1023.22435017     A.U. after   15 cycles
 SCF Done:  E(RB3LYP) =  -1023.22865986     A.U. after   14 cycles
 SCF Done:  E(RB3LYP) =  -1023.23151225     A.U. after   14 cycles
 SCF Done:  E(RB3LYP) =  -1023.23299840     A.U. after   13 cycles
 SCF Done:  E(RB3LYP) =  -1023.22993719     A.U. after   14 cycles
 SCF Done:  E(RB3LYP) =  -1023.23163974     A.U. after   13 cycles
 SCF Done:  E(RB3LYP) =  -1023.23319298     A.U. after   10 cycles
 SCF Done:  E(RB3LYP) =  -1023.23329633     A.U. after   12 cycles
 SCF Done:  E(RB3LYP) =  -1023.23334222     A.U. after   12 cycles
 SCF Done:  E(RB3LYP) =  -1023.23337245     A.U. after   11 cycles
 SCF Done:  E(RB3LYP) =  -1023.23642882     A.U. after   11 cycles
 SCF Done:  E(RB3LYP) =  -1023.23644919     A.U. after   10 cycles
 SCF Done:  E(RB3LYP) =  -1023.23645275     A.U. after   10 cycles
 SCF Done:  E(RB3LYP) =  -1023.23645478     A.U. after    9 cycles
 SCF Done:  E(RB3LYP) =  -1023.23645489     A.U. after    8 cycles
 Optimization completed.
    -- Stationary point found.
 Normal termination of Gaussian 16 at Thu Dec 10 09:30:01 2020.

 --------------------------------------------------------------------
 #N Geom=AllCheck Guess=TCheck SCRF=Check GenChk RB3LYP/6-31G(d) Freq
 --------------------------------------------------------------------

 Structure from the checkpoint file:  "JID_4088.chk"
 ------------------------------
 CID_91002871_JID_4088_neutraal
 ------------------------------
 Charge =  0 Multiplicity = 1

 SCF Done:  E(RB3LYP) =  -1023.23645489     A.U. after    1 cycles

  Exact polarizability: 128.782   0.192 122.395 -13.680   7.465 103.706
 Approx polarizability: 187.801  -0.397 197.095 -32.956  14.193 190.052

                      1                      2                      3
                      A                      A                      A
 Frequencies --     26.3837                44.2641                64.0373
 Red. masses --      4.6725                 4.6316                 7.6106
 Frc consts  --      0.0019                 0.0053                 0.0184
 IR Inten    --      2.0656                 3.0952                 1.1791

                      4                      5                      6
                      A                      A                      A
 Frequencies --     90.6861               127.8639               154.1017
 Red. masses --      8.6198                 6.5711                 5.5833
 Frc consts  --      0.0418                 0.0633                 0.0781
 IR Inten    --      5.5567                 4.8867                 1.8406

                      7                      8                      9
                      A                      A                      A
 Frequencies --    178.3232               193.7146               208.5474
 Red. masses --      7.5710                 1.2672                 6.5515
 Frc consts  --      0.1418                 0.0280                 0.1679
 IR Inten    --      2.4293               237.0333                 4.4691

                     10                     11                     12
                      A                      A                      A
 Frequencies --    269.0978               318.1718               340.1889
 Red. masses --      5.5538                 4.4003                 7.1308
 Frc consts  --      0.2370                 0.2625                 0.4862
 IR Inten    --     11.9844                10.6367                 0.4842

                     13                     14                     15
                      A                      A                      A
 Frequencies --    416.7120               429.9259               471.4939
 Red. masses --      3.6116                 4.4626                 3.3336
 Frc consts  --      0.3695                 0.4860                 0.4366
 IR Inten    --      5.4524                 7.9086                51.1272

                     16                     17                     18
                      A                      A                      A
 Frequencies --    483.4512               496.6241               509.3787
 Red. masses --      2.4533                 1.4015                 1.8422
 Frc consts  --      0.3378                 0.2037                 0.2816
 IR Inten    --     16.8349                 2.5297               125.2880

                     19                     20                     21
                      A                      A                      A
 Frequencies --    569.9494               623.9632               635.8503
 Red. masses --      2.6492                 2.5102                 5.6624
 Frc consts  --      0.5070                 0.5758                 1.3488
 IR Inten    --     53.5149                48.6983                 2.2500

                     22                     23                     24
                      A                      A                      A
 Frequencies --    661.9801               673.9433               685.7211
 Red. masses --      1.9552                 3.5324                 4.3407
 Frc consts  --      0.5048                 0.9453                 1.2026
 IR Inten    --     16.8955                53.8997                37.8837

                     25                     26                     27
                      A                      A                      A
 Frequencies --    714.9807               756.4313               766.1228
 Red. masses --      3.9248                 4.0805                 1.6335
 Frc consts  --      1.1821                 1.3756                 0.5649
 IR Inten    --     24.1716                 2.6313                31.3152

                     28                     29                     30
                      A                      A                      A
 Frequencies --    817.7083               894.2924               909.0410
 Red. masses --      3.2053                 3.7840                 1.5084
 Frc consts  --      1.2627                 1.7830                 0.7344
 IR Inten    --      7.0956                 1.4206                 0.8638

                     31                     32                     33
                      A                      A                      A
 Frequencies --    921.0701               976.5196              1005.3997
 Red. masses --      3.7683                 1.4110                 1.2872
 Frc consts  --      1.8836                 0.7928                 0.7666
 IR Inten    --      1.0425                 0.1712                 0.0572

                     34                     35                     36
                      A                      A                      A
 Frequencies --   1015.5790              1081.0123              1107.2474
 Red. masses --      7.1635                 2.2682                 1.9034
 Frc consts  --      4.3531                 1.5617                 1.3749
 IR Inten    --      6.4088                 3.4915                 4.7879

                     37                     38                     39
                      A                      A                      A
 Frequencies --   1128.4450              1155.4181              1187.1349
 Red. masses --      1.5575                 1.6417                 1.1383
 Frc consts  --      1.1685                 1.2913                 0.9452
 IR Inten    --      1.5674                 2.5564                 2.6348

                     40                     41                     42
                      A                      A                      A
 Frequencies --   1224.1568              1252.3328              1281.9177
 Red. masses --      1.7736                 1.1907                 2.6654
 Frc consts  --      1.5660                 1.1002                 2.5806
 IR Inten    --      4.8200                14.6454                 6.1346

                     43                     44                     45
                      A                      A                      A
 Frequencies --   1305.6519              1324.4710              1341.4629
 Red. masses --      3.4598                 3.1041                 1.6825
 Frc consts  --      3.4750                 3.2083                 1.7839
 IR Inten    --    273.9060                 1.2723                 1.1294

                     46                     47                     48
                      A                      A                      A
 Frequencies --   1386.6596              1477.7372              1521.2461
 Red. masses --      3.1834                 2.1703                 2.2242
 Frc consts  --      3.6065                 2.7924                 3.0326
 IR Inten    --     80.2852                27.9857                22.9041

                     49                     50                     51
                      A                      A                      A
 Frequencies --   1633.2643              1638.4516              1648.5540
 Red. masses --      5.8146                 1.2514                 4.5601
 Frc consts  --      9.1387                 1.9794                 7.3019
 IR Inten    --     18.6666               100.7215                63.8295

                     52                     53                     54
                      A                      A                      A
 Frequencies --   1661.7142              1783.4126              1817.5409
 Red. masses --      1.2937                 7.6406                 9.1357
 Frc consts  --      2.1048                14.3180                17.7812
 IR Inten    --    172.6557               251.0077               314.0501

                     55                     56                     57
                      A                      A                      A
 Frequencies --   3098.4735              3177.7142              3194.5872
 Red. masses --      1.0842                 1.0890                 1.0882
 Frc consts  --      6.1325                 6.4790                 6.5433
 IR Inten    --      0.6616                21.2747                 9.8004

                     58                     59                     60
                      A                      A                      A
 Frequencies --   3213.3969              3219.8893              3522.3235
 Red. masses --      1.0923                 1.0978                 1.0516
 Frc consts  --      6.6453                 6.7060                 7.6874
 IR Inten    --     18.1565                12.3360               107.8291

                     61                     62                     63
                      A                      A                      A
 Frequencies --   3591.4431              3674.7504              3718.3356
 Red. masses --      1.0449                 1.0993                 1.1055
 Frc consts  --      7.9408                 8.7466                 9.0056
 IR Inten    --     69.9265                86.0370                46.0886

 - Thermochemistry -
 -------------------
 Temperature   298.150 Kelvin.  Pressure   1.00000 Atm.
 Atom     1 has atomic number  6 and mass  12.00000

 Molecular mass:   211.04155 amu.
 Principal axes and moments of inertia in atomic units:
                           1         2         3
     Eigenvalues --  2353.127533129.875734272.65786
           X            0.99999   0.00045   0.00483
           Y           -0.00055   0.99975   0.02232
           Z           -0.00482  -0.02232   0.99974
 This molecule is an asymmetric top.
 Rotational symmetry number  1.
 Warning -- assumption of classical behavior for rotation
           may cause significant error
 Rotational temperatures (Kelvin)      0.03681     0.02767     0.02027
 Rotational constants (GHZ):           0.76695     0.57662     0.42239
 Zero-point vibrational energy     453505.9 (Joules/Mol)
                                  108.39051 (Kcal/Mol)
 Warning -- explicit consideration of  19 degrees of freedom as
           vibrations may cause significant error
 Vibrational temperatures:     37.96    63.69    92.14   130.48   183.97
          (Kelvin)            221.72   256.57   278.71   300.05   387.17
                              457.78   489.46   599.56   618.57   678.37
                              695.58   714.53   732.88   820.03   897.74
                              914.85   952.44   969.65   986.60  1028.70
                             1088.34  1102.28  1176.50  1286.69  1307.91
                             1325.21  1404.99  1446.55  1461.19  1555.34
                             1593.08  1623.58  1662.39  1708.02  1761.29
                             1801.83  1844.39  1878.54  1905.62  1930.07
                             1995.09  2126.13  2188.73  2349.90  2357.37
                             2371.90  2390.84  2565.93  2615.04  4458.01
                             4572.02  4596.30  4623.36  4632.70  5067.84
                             5167.29  5287.15  5349.86

 Zero-point correction=                           0.172731 (Hartree/Particle)
 Thermal correction to Energy=                    0.186298
 Thermal correction to Enthalpy=                  0.187243
 Thermal correction to Gibbs Free Energy=         0.131079
 Sum of electronic and zero-point Energies=          -1023.063724
 Sum of electronic and thermal Energies=             -1023.050156
 Sum of electronic and thermal Enthalpies=           -1023.049212
 Sum of electronic and thermal Free Energies=        -1023.105376

                     E (Thermal)             CV                S
                      KCal/Mol        Cal/Mol-Kelvin    Cal/Mol-Kelvin
 Total                  116.904             49.944            118.207
 Electronic               0.000              0.000              0.000
 Translational            0.889              2.981             41.944
 Rotational               0.889              2.981             31.820
 Vibrational            115.127             43.982             44.442
 Vibration     1          0.593              1.985              6.084
 Vibration     2          0.595              1.980              5.058
 Vibration     3          0.597              1.971              4.329
 Vibration     4          0.602              1.956              3.645
 Vibration     5          0.611              1.925              2.978
 Vibration     6          0.620              1.898              2.621
 Vibration     7          0.629              1.869              2.346
 Vibration     8          0.635              1.849              2.192
 Vibration     9          0.642              1.828              2.056
 Vibration    10          0.673              1.730              1.602
 Vibration    11          0.705              1.639              1.319
 Vibration    12          0.720              1.595              1.211
 Vibration    13          0.780              1.434              0.903
 Vibration    14          0.791              1.405              0.859
 Vibration    15          0.828              1.313              0.733
 Vibration    16          0.840              1.287              0.701
 Vibration    17          0.852              1.258              0.667
 Vibration    18          0.865              1.229              0.635
 Vibration    19          0.926              1.096              0.504

                           ! Non-Optimized Parameters !
 Normal termination of Gaussian 16 at Thu Dec 10 09:36:23 2020.

 ----------------------------------------------------------------------
 # B3LYP/6-311++G(d,p) empiricaldispersion=gd3bj scf=xqc pop=npa geom=c
 heck
 ----------------------------------------------------------------------

 --------------------------------------
 CID_91002871_JID_4088_Energie_neutraal
 --------------------------------------
 Structure from the checkpoint file:  "JID_4088.chk"
 Charge =  0 Multiplicity = 1

 SCF Done:  E(RB3LYP) =  -1023.45602506     A.U. after   16 cycles
 Normal termination of Gaussian 16 at Thu Dec 10 09:38:56 2020.

 ----------------------------------------------------------------------
 # B3LYP/6-311++G(d,p) empiricaldispersion=gd3bj scf=xqc pop=npa geom=c
 heck
 ----------------------------------------------------------------------

 ------------------------------------
 CID_91002871_JID_4088_Energie_kation
 ------------------------------------
 Structure from the checkpoint file:  "JID_4088.chk"
 Charge =  1 Multiplicity = 2

 SCF Done:  E(UB3LYP) =  -1023.14434878     A.U. after   29 cycles
 Normal termination of Gaussian 16 at Thu Dec 10 09:45:22 2020.
 Gaussian 16:  ES64L-G16RevA.03 25-Dec-2016

 ----------------------------------------------------------------------
 # B3LYP/6-311++G(d,p) empiricaldispersion=gd3bj scf=xqc pop=npa geom=c
 heck
 ----------------------------------------------------------------------

 -----------------------------------
 CID_91002871_JID_4088_Energie_anion
 -----------------------------------
 Structure from the checkpoint file:  "JID_4088.chk"
 Charge = -1 Multiplicity = 2

                         Standard orientation:
 ---------------------------------------------------------------------
 Center     Atomic      Atomic             Coordinates (Angstroms)
 Number     Number       Type             X           Y           Z
 ---------------------------------------------------------------------
      1          6           0       -2.729014   -1.369264   -0.714242
      2          6           0       -3.402147   -0.717263    0.319380
      3          6           0       -2.787784    0.385799    0.907339
      4          7           0       -1.585656    0.845094    0.541481
      5          6           0       -0.940827    0.209120   -0.440398
      6          6           0       -1.479168   -0.900471   -1.103936
      7          6           0        0.400663    0.796275   -0.857470
      8          6           0        0.807115    2.055499   -0.060080
      9          8           0        0.747669    3.149664   -0.600090
     10          7           0        1.256695    1.841578    1.201064
     11         16           0        1.745059   -0.469215   -1.018292
     12          6           0        1.590394   -1.386508    0.535345
     13          8           0        0.961689   -1.006039    1.509606
     14          7           0        2.293971   -2.549342    0.505522
     15          1           0       -3.172132   -2.228315   -1.210195
     16          1           0       -4.377754   -1.050755    0.658488
     17          1           0       -3.278928    0.930818    1.711032
     18          1           0       -0.922767   -1.383461   -1.900397
     19          1           0        0.321917    1.150412   -1.889671
     20          1           0        1.055274    0.952489    1.648442
     21          1           0        1.367102    2.663192    1.778941
     22          1           0        2.652406   -2.934758   -0.355353
     23          1           0        2.248618   -3.141617    1.323175
 ---------------------------------------------------------------------

 SCF Done:  E(UB3LYP) =  -1023.45562372     A.U. after   33 cycles
 SCF Done:  E(UB3LYP) =  -1023.45562372     a.u. after    1 cycles

 The electronic state is 2-A.
 Alpha  occ. eigenvalues --  -88.74477 -19.00084 -18.98117 -14.22789 -14.21366
 Alpha  occ. eigenvalues --  -14.19383 -10.19535 -10.16613 -10.10506 -10.10114
 Alpha  occ. eigenvalues --  -10.09761 -10.08151 -10.06938 -10.06707  -7.83163
 Alpha  occ. eigenvalues --   -5.79544  -5.79139  -5.78565  -0.95104  -0.93034
 Alpha  occ. eigenvalues --   -0.83609  -0.80806  -0.79368  -0.70465  -0.69522
 Alpha  occ. eigenvalues --   -0.64492  -0.58819  -0.52612  -0.51298  -0.49113
 Alpha  occ. eigenvalues --   -0.46585  -0.43977  -0.42416  -0.41322  -0.38076
 Alpha  occ. eigenvalues --   -0.37090  -0.36151  -0.34127  -0.33052  -0.32303
 Alpha  occ. eigenvalues --   -0.30988  -0.30731  -0.29578  -0.28506  -0.27931
 Alpha  occ. eigenvalues --   -0.26764  -0.24006  -0.18558  -0.17899  -0.16933
 Alpha  occ. eigenvalues --   -0.16845  -0.16402  -0.15342  -0.14653  -0.12969
 Alpha  occ. eigenvalues --    0.04164
 Alpha virt. eigenvalues --    0.06832   0.07242   0.07633   0.08612   0.09140
 Alpha virt. eigenvalues --    0.09595   0.10202   0.10732   0.10997   0.11838
 Alpha virt. eigenvalues --    0.13079   0.13599   0.14093   0.14623   0.15340

  Beta  occ. eigenvalues --  -88.74435 -19.00081 -18.98100 -14.22656 -14.21365
  Beta  occ. eigenvalues --  -14.19307 -10.19521 -10.16603 -10.10439 -10.09940
  Beta  occ. eigenvalues --  -10.09771 -10.08126 -10.06920 -10.06561  -7.83113
  Beta  occ. eigenvalues --   -5.79482  -5.79091  -5.78529  -0.95086  -0.93001
  Beta  occ. eigenvalues --   -0.83399  -0.80643  -0.79352  -0.70214  -0.69341
  Beta  occ. eigenvalues --   -0.64276  -0.58628  -0.52555  -0.51035  -0.48949
  Beta  occ. eigenvalues --   -0.46478  -0.43875  -0.42341  -0.41227  -0.37980
  Beta  occ. eigenvalues --   -0.36964  -0.36060  -0.34050  -0.32952  -0.32142
  Beta  occ. eigenvalues --   -0.30826  -0.30591  -0.29421  -0.28402  -0.27792
  Beta  occ. eigenvalues --   -0.26531  -0.23812  -0.18206  -0.17656  -0.16812
  Beta  occ. eigenvalues --   -0.16700  -0.16306  -0.15167  -0.14194  -0.12829
  Beta virt. eigenvalues --    0.07030   0.07719   0.07839   0.08660   0.08680
  Beta virt. eigenvalues --    0.09268   0.10221   0.10374   0.11109   0.11257
  Beta virt. eigenvalues --    0.12395   0.13197   0.13793   0.14158   0.14889

 Mulliken charges and spin densities:
               1          2
     1  C   -0.445650  -0.189505
     2  C   -0.066396   0.120952
     3  C   -0.143117   0.057116
     4  N    0.103693   0.052806
     5  C   -0.237541  -0.446146
     6  C   -0.069074   0.446624
     7  C    0.625427  -0.033725
     8  C   -0.347554   0.050730
     9  O   -0.358661   0.005261
    10  N   -0.389942  -0.010209
    11  S    0.609183  -0.601093
    12  C    0.277427  -0.575487
    13  O   -0.220885  -0.031747
    14  N   -0.260769   0.015516
    15  H    0.031787   0.127610
    16  H    0.118794   0.012750
    17  H    0.146348   0.012955
    18  H   -0.227685   0.397726
    19  H    0.279924   0.033045
    20  H    0.300863  -0.010049
    21  H    0.259312   0.004246
    22  H   -0.600817   0.883318
    23  H   -0.384668   0.677307
 Sum of Mulliken charges =  -1.00000   1.00000

 Dipole moment (field-independent basis, Debye):
    X=             -4.9312    Y=              3.5261    Z=              1.2907  Tot=              6.1981
 Quadrupole moment (field-independent basis, Debye-Ang):
   XX=           -124.9571   YY=           -145.9809   ZZ=           -106.5891
   XY=             18.8390   XZ=              2.2960   YZ=              6.6912

 Summary of Natural Population Analysis:

                                       Natural Population
                Natural  -----------------------------------------------
    Atom  No    Charge         Core      Valence    Rydberg      Total
 -----------------------------------------------------------------------
      C    1   -0.08997      0.99960     2.07659    0.01378     3.08997
      C    2   -0.10640      0.99956     2.09802    0.00882     3.10640
      C    3    0.02549      0.99959     1.96155    0.01337     2.97451
      N    4   -0.22955      0.99967     2.71854    0.01133     3.72955
      C    5    0.12629      0.99953     1.85772    0.01645     2.87371
      C    6   -0.09950      0.99950     2.09448    0.00552     3.09950
      C    7   -0.20027      0.99946     2.18593    0.01488     3.20027
      C    8    0.34708      0.99967     1.62746    0.02580     2.65292
      O    9   -0.32374      0.99987     3.31758    0.00629     4.32374
      N   10   -0.40350      0.99968     2.89719    0.00663     3.90350
      S   11    0.10052      4.99956     2.88165    0.01827     7.89948
      C   12    0.26722      0.99973     1.70376    0.02929     2.73278
      O   13   -0.32961      0.99986     3.32130    0.00845     4.32961
      N   14   -0.39668      0.99970     2.88626    0.01073     3.89668
      H   15    0.09781      0.00000     0.40132    0.00087     0.40219
      H   16    0.09672      0.00000     0.40250    0.00078     0.40328
      H   17    0.08467      0.00000     0.41432    0.00101     0.41533
      H   18    0.10474      0.00000     0.39357    0.00169     0.39526
      H   19    0.12329      0.00000     0.37545    0.00126     0.37671
      H   20    0.21153      0.00000     0.28636    0.00211     0.28847
      H   21    0.18656      0.00000     0.31127    0.00217     0.31344
      H   22    0.20641      0.00000     0.27257    0.02103     0.29359
      H   23    0.20098      0.00000     0.29187    0.00715     0.29902
 =======================================================================
   * Total *    0.00008     17.99498    36.77726    0.22767    54.99992

 Normal termination of Gaussian 16 at Thu Dec 10 09:52:39 2020.
