 Gaussian 16, Revision A.03,

 -----------------------------------------------------------
 # opt freq B3LYP/6-31G(d) empiricaldispersion=gd3bj scf=xqc
 -----------------------------------------------------------

 -------------------------------
 CID_80056438_JID_10134_neutraal
 -------------------------------
 Symbolic Z-matrix:
 Charge =  0 Multiplicity = 1

 SCF Done:  E(RB3LYP) =  -1298.75557953     A.U. after   14 cycles
 SCF Done:  E(RB3LYP) =  -1298.71347215     A.U. after   16 cycles
 SCF Done:  E(RB3LYP) =  -1298.76650813     A.U. after   13 cycles
 SCF Done:  E(RB3LYP) =  -1298.76665285     A.U. after   14 cycles
 SCF Done:  E(RB3LYP) =  -1298.76752149     A.U. after   13 cycles
 SCF Done:  E(RB3LYP) =  -1298.76822504     A.U. after   13 cycles
 SCF Done:  E(RB3LYP) =  -1298.76794346     A.U. after   13 cycles
 SCF Done:  E(RB3LYP) =  -1298.76842250     A.U. after   13 cycles
 SCF Done:  E(RB3LYP) =  -1298.76833763     A.U. after   12 cycles
 SCF Done:  E(RB3LYP) =  -1298.76843834     A.U. after   12 cycles
 SCF Done:  E(RB3LYP) =  -1298.76852868     A.U. after    7 cycles
 SCF Done:  E(RB3LYP) =  -1298.76852910     A.U. after    9 cycles
 SCF Done:  E(RB3LYP) =  -1298.76852906     A.U. after    9 cycles
 SCF Done:  E(RB3LYP) =  -1298.76852914     A.U. after    8 cycles
 SCF Done:  E(RB3LYP) =  -1298.76852914     A.U. after    6 cycles
 Optimization completed.
    -- Stationary point found.
 Normal termination of Gaussian 16 at Mon Dec 14 17:56:11 2020.

 --------------------------------------------------------------------
 #N Geom=AllCheck Guess=TCheck SCRF=Check GenChk RB3LYP/6-31G(d) Freq
 --------------------------------------------------------------------

 Structure from the checkpoint file:  "JID_10134.chk"
 -------------------------------
 CID_80056438_JID_10134_neutraal
 -------------------------------
 Charge =  0 Multiplicity = 1

 SCF Done:  E(RB3LYP) =  -1298.76852914     A.U. after    1 cycles

  Exact polarizability: 172.541 -19.808 191.187 -18.082  -7.136 149.262
 Approx polarizability: 250.659 -21.616 299.817 -40.495 -22.951 267.385

                      1                      2                      3
                      A                      A                      A
 Frequencies --     29.0805                33.4422                44.6344
 Red. masses --      2.3523                 1.3968                 8.3908
 Frc consts  --      0.0012                 0.0009                 0.0098
 IR Inten    --      2.6427                 1.4707                 6.6576

                      4                      5                      6
                      A                      A                      A
 Frequencies --     62.3223                95.8055               102.7785
 Red. masses --      4.1746                 5.9840                 3.2775
 Frc consts  --      0.0096                 0.0324                 0.0204
 IR Inten    --      0.3049                 4.8645                 0.5143

                      7                      8                      9
                      A                      A                      A
 Frequencies --    113.1201               130.0522               166.3033
 Red. masses --      4.4616                 4.7744                 4.7737
 Frc consts  --      0.0336                 0.0476                 0.0778
 IR Inten    --      2.6833                 0.0313                 0.4524

                     10                     11                     12
                      A                      A                      A
 Frequencies --    175.8576               207.5956               214.6332
 Red. masses --      5.8088                 1.9388                 3.3836
 Frc consts  --      0.1058                 0.0492                 0.0918
 IR Inten    --      5.4923                 1.2709                 1.1453

                     13                     14                     15
                      A                      A                      A
 Frequencies --    231.0346               244.3760               247.2580
 Red. masses --      2.3233                 2.2308                 2.6541
 Frc consts  --      0.0731                 0.0785                 0.0956
 IR Inten    --      0.6142                 4.0143                12.9015

                     16                     17                     18
                      A                      A                      A
 Frequencies --    264.9600               295.2662               318.8884
 Red. masses --      3.0138                 3.4729                 2.7264
 Frc consts  --      0.1247                 0.1784                 0.1634
 IR Inten    --      3.3563                 1.9262                 0.1647

                     19                     20                     21
                      A                      A                      A
 Frequencies --    334.8261               373.8039               384.6497
 Red. masses --      3.0983                 3.4625                 3.4466
 Frc consts  --      0.2046                 0.2851                 0.3004
 IR Inten    --      1.4309                 0.2355                 0.9851

                     22                     23                     24
                      A                      A                      A
 Frequencies --    400.0718               422.7403               438.3019
 Red. masses --      3.7111                 3.3832                 4.2420
 Frc consts  --      0.3500                 0.3562                 0.4801
 IR Inten    --      2.1255                20.9515                 7.8922

                     25                     26                     27
                      A                      A                      A
 Frequencies --    459.3681               466.7237               481.1327
 Red. masses --      2.5769                 3.4465                 5.9567
 Frc consts  --      0.3204                 0.4423                 0.8124
 IR Inten    --      5.7822                 4.0562                13.3631

                     28                     29                     30
                      A                      A                      A
 Frequencies --    506.4669               544.7719               568.4513
 Red. masses --      4.2984                 4.5262                 4.1931
 Frc consts  --      0.6496                 0.7914                 0.7983
 IR Inten    --      4.0109                 2.9584                 5.2553

                     31                     32                     33
                      A                      A                      A
 Frequencies --    578.4411               622.6232               651.6000
 Red. masses --      4.1639                 4.3318                 5.0129
 Frc consts  --      0.8209                 0.9894                 1.2540
 IR Inten    --     17.6570                 6.0741                13.2676

                     34                     35                     36
                      A                      A                      A
 Frequencies --    692.5554               713.9198               742.5935
 Red. masses --      5.0040                 2.2218                 4.1127
 Frc consts  --      1.4141                 0.6672                 1.3362
 IR Inten    --      2.2572                 2.4010                17.2332

                     37                     38                     39
                      A                      A                      A
 Frequencies --    762.4260               779.9376               821.8577
 Red. masses --      4.0615                 3.9862                 3.9058
 Frc consts  --      1.3910                 1.4287                 1.5544
 IR Inten    --     26.3911                31.1017                 0.8925

                     40                     41                     42
                      A                      A                      A
 Frequencies --    850.6499               860.5871               867.5399
 Red. masses --      2.2327                 1.9423                 2.2748
 Frc consts  --      0.9519                 0.8475                 1.0087
 IR Inten    --      6.5598                10.6440                 3.1395

                     43                     44                     45
                      A                      A                      A
 Frequencies --    897.1009               929.3991               953.7998
 Red. masses --      1.8836                 2.1453                 2.4660
 Frc consts  --      0.8932                 1.0918                 1.3218
 IR Inten    --      9.8917                 5.1613                28.5723

                     46                     47                     48
                      A                      A                      A
 Frequencies --    967.1725               976.8938               982.9660
 Red. masses --      2.8652                 1.4210                 1.3836
 Frc consts  --      1.5791                 0.7990                 0.7877
 IR Inten    --     30.8428                 8.9894                 7.1542

                     49                     50                     51
                      A                      A                      A
 Frequencies --    989.4525              1019.0006              1026.9076
 Red. masses --      1.5467                 2.4916                 1.8168
 Frc consts  --      0.8922                 1.5243                 1.1288
 IR Inten    --     38.6740                 9.7368                 0.2342

                     52                     53                     54
                      A                      A                      A
 Frequencies --   1044.4597              1057.6761              1072.9929
 Red. masses --      1.8933                 1.8768                 1.5619
 Frc consts  --      1.2169                 1.2370                 1.0595
 IR Inten    --      8.7377                10.9969                 4.4686

                     55                     56                     57
                      A                      A                      A
 Frequencies --   1098.0633              1107.4219              1130.1656
 Red. masses --      2.1630                 5.1797                 2.2906
 Frc consts  --      1.5366                 3.7427                 1.7238
 IR Inten    --     43.0475               104.6625                 5.3446

                     58                     59                     60
                      A                      A                      A
 Frequencies --   1136.9155              1139.3197              1170.0259
 Red. masses --      2.1876                 2.3472                 1.1089
 Frc consts  --      1.6660                 1.7951                 0.8944
 IR Inten    --     27.1069                29.6457                 9.2697

                     61                     62                     63
                      A                      A                      A
 Frequencies --   1190.2330              1199.5060              1272.8030
 Red. masses --      1.4646                 1.3689                 2.9260
 Frc consts  --      1.2225                 1.1604                 2.7928
 IR Inten    --     23.4147                 2.8607               158.4786

                     64                     65                     66
                      A                      A                      A
 Frequencies --   1287.2524              1290.3485              1313.0437
 Red. masses --      3.1678                 3.6299                 1.4770
 Frc consts  --      3.0926                 3.5608                 1.5003
 IR Inten    --     22.9501               139.6689                25.8509

                     67                     68                     69
                      A                      A                      A
 Frequencies --   1315.1368              1329.8565              1337.5173
 Red. masses --      1.3488                 5.1853                 1.2987
 Frc consts  --      1.3745                 5.4030                 1.3689
 IR Inten    --     36.7535                11.0883                11.1036

                     70                     71                     72
                      A                      A                      A
 Frequencies --   1339.8206              1367.6597              1374.9522
 Red. masses --      1.5077                 1.3746                 1.2924
 Frc consts  --      1.5946                 1.5149                 1.4395
 IR Inten    --      8.6439                 0.6159                 8.5523

                     73                     74                     75
                      A                      A                      A
 Frequencies --   1380.2789              1405.6723              1411.1462
 Red. masses --      1.3068                 1.4338                 1.4050
 Frc consts  --      1.4669                 1.6692                 1.6485
 IR Inten    --      2.0640                 1.1710                 0.3246

                     76                     77                     78
                      A                      A                      A
 Frequencies --   1416.3203              1420.1983              1430.2298
 Red. masses --      1.4507                 3.2916                 1.3003
 Frc consts  --      1.7146                 3.9117                 1.5672
 IR Inten    --      0.3895                18.4793                18.9744

                     79                     80                     81
                      A                      A                      A
 Frequencies --   1436.5075              1452.7000              1478.4967
 Red. masses --      1.3850                 1.2667                 1.0579
 Frc consts  --      1.6839                 1.5750                 1.3625
 IR Inten    --     11.4577                 5.9614                 6.9602

                     82                     83                     84
                      A                      A                      A
 Frequencies --   1487.6748              1497.2413              1501.1110
 Red. masses --      1.0532                 1.6779                 1.1248
 Frc consts  --      1.3733                 2.2162                 1.4934
 IR Inten    --      7.3445                77.2991                16.4724

                     85                     86                     87
                      A                      A                      A
 Frequencies --   1510.5984              1515.1641              1519.9112
 Red. masses --      1.0893                 1.0548                 1.4896
 Frc consts  --      1.4645                 1.4267                 2.0275
 IR Inten    --     19.8124                 9.4455                60.3781

                     88                     89                     90
                      A                      A                      A
 Frequencies --   1526.5758              1533.0626              1604.7433
 Red. masses --      1.1002                 1.0859                 5.1740
 Frc consts  --      1.5107                 1.5037                 7.8503
 IR Inten    --      1.9884                14.2959                19.3610

                     91                     92                     93
                      A                      A                      A
 Frequencies --   1644.5458              1808.8046              2979.1600
 Red. masses --      6.7541                 9.9871                 1.0840
 Frc consts  --     10.7624                19.2519                 5.6686
 IR Inten    --      7.0140               175.7669                80.6554

                     94                     95                     96
                      A                      A                      A
 Frequencies --   3034.1193              3045.8098              3049.7839
 Red. masses --      1.0718                 1.0702                 1.0404
 Frc consts  --      5.8135                 5.8495                 5.7014
 IR Inten    --     17.7731                24.0359                16.4392

                     97                     98                     99
                      A                      A                      A
 Frequencies --   3055.6635              3075.9497              3079.8558
 Red. masses --      1.0757                 1.0646                 1.0833
 Frc consts  --      5.9176                 5.9344                 6.0542
 IR Inten    --      4.8194                14.9154                 4.5785

                    100                    101                    102
                      A                      A                      A
 Frequencies --   3097.9323              3100.4190              3102.9883
 Red. masses --      1.0864                 1.0907                 1.0992
 Frc consts  --      6.1432                 6.1772                 6.2359
 IR Inten    --     48.2899                 8.8844                17.0267

                    103                    104                    105
                      A                      A                      A
 Frequencies --   3107.6548              3115.2036              3121.9077
 Red. masses --      1.0390                 1.0913                 1.0979
 Frc consts  --      5.9119                 6.2395                 6.3044
 IR Inten    --      6.7727                24.7928                34.0571

                    106                    107                    108
                      A                      A                      A
 Frequencies --   3141.2809              3164.4894              3194.4411
 Red. masses --      1.0900                 1.1000                 1.1046
 Frc consts  --      6.3368                 6.4898                 6.6414
 IR Inten    --      1.7162                 4.6899                 0.9895

                    109                    110                    111
                      A                      A                      A
 Frequencies --   3208.6564              3249.3279              3256.6795
 Red. masses --      1.0908                 1.0938                 1.1013
 Frc consts  --      6.6169                 6.8040                 6.8820
 IR Inten    --      6.2495                 3.1272                 5.2727

 - Thermochemistry -
 -------------------
 Temperature   298.150 Kelvin.  Pressure   1.00000 Atm.
 Atom     1 has atomic number  6 and mass  12.00000

 Molecular mass:   297.10348 amu.
 Principal axes and moments of inertia in atomic units:
                           1         2         3
     Eigenvalues --  4381.752645820.573137731.23296
           X            0.99089  -0.13464  -0.00180
           Y            0.13465   0.99087   0.00660
           Z            0.00089  -0.00679   0.99998
 This molecule is an asymmetric top.
 Rotational symmetry number  1.
 Warning -- assumption of classical behavior for rotation
           may cause significant error
 Rotational temperatures (Kelvin)      0.01977     0.01488     0.01120
 Rotational constants (GHZ):           0.41188     0.31006     0.23344
 Zero-point vibrational energy     842073.0 (Joules/Mol)
                                  201.26028 (Kcal/Mol)
 Warning -- explicit consideration of  31 degrees of freedom as
           vibrations may cause significant error
 Vibrational temperatures:     41.84    48.12    64.22    89.67   137.84
          (Kelvin)            147.88   162.75   187.12   239.27   253.02
                              298.68   308.81   332.41   351.60   355.75
                              381.22   424.82   458.81   481.74   537.82
                              553.43   575.61   608.23   630.62   660.93
                              671.51   692.24   728.69   783.81   817.87
                              832.25   895.82   937.51   996.43  1027.17
                             1068.43  1096.96  1122.16  1182.47  1223.90
                             1238.19  1248.20  1290.73  1337.20  1372.31
                             1391.55  1405.53  1414.27  1423.60  1466.11
                             1477.49  1502.74  1521.76  1543.80  1579.87
                             1593.33  1626.06  1635.77  1639.23  1683.41
                             1712.48  1725.82  1831.28  1852.07  1856.52
                             1889.18  1892.19  1913.37  1924.39  1927.70
                             1967.76  1978.25  1985.91  2022.45  2030.32
                             2037.77  2043.35  2057.78  2066.81  2090.11
                             2127.23  2140.43  2154.20  2159.76  2173.41
                             2179.98  2186.81  2196.40  2205.74  2308.87
                             2366.13  2602.47  4286.35  4365.42  4382.24
                             4387.96  4396.42  4425.61  4431.23  4457.23
                             4460.81  4464.51  4471.22  4482.08  4491.73
                             4519.60  4552.99  4596.09  4616.54  4675.06
                             4685.64

 Zero-point correction=                           0.320729 (Hartree/Particle)
 Thermal correction to Energy=                    0.340208
 Thermal correction to Enthalpy=                  0.341152
 Thermal correction to Gibbs Free Energy=         0.272430
 Sum of electronic and zero-point Energies=          -1298.447800
 Sum of electronic and thermal Energies=             -1298.428322
 Sum of electronic and thermal Enthalpies=           -1298.427377
 Sum of electronic and thermal Free Energies=        -1298.496099

                     E (Thermal)             CV                S
                      KCal/Mol        Cal/Mol-Kelvin    Cal/Mol-Kelvin
 Total                  213.483             74.422            144.636
 Electronic               0.000              0.000              0.000
 Translational            0.889              2.981             42.964
 Rotational               0.889              2.981             33.644
 Vibrational            211.706             68.461             68.029
 Vibration     1          0.593              1.984              5.891
 Vibration     2          0.594              1.983              5.614
 Vibration     3          0.595              1.980              5.042
 Vibration     4          0.597              1.972              4.382
 Vibration     5          0.603              1.952              3.538
 Vibration     6          0.605              1.947              3.401
 Vibration     7          0.607              1.939              3.215
 Vibration     8          0.612              1.923              2.945
 Vibration     9          0.624              1.884              2.477
 Vibration    10          0.628              1.872              2.372
 Vibration    11          0.641              1.829              2.065
 Vibration    12          0.645              1.819              2.004
 Vibration    13          0.653              1.794              1.871
 Vibration    14          0.660              1.772              1.771
 Vibration    15          0.661              1.767              1.750
 Vibration    16          0.671              1.737              1.629
 Vibration    17          0.689              1.683              1.444
 Vibration    18          0.705              1.637              1.316
 Vibration    19          0.716              1.606              1.237
 Vibration    20          0.745              1.526              1.064
 Vibration    21          0.754              1.503              1.021
 Vibration    22          0.766              1.470              0.962
 Vibration    23          0.785              1.421              0.883
 Vibration    24          0.798              1.387              0.832
 Vibration    25          0.817              1.340              0.768
 Vibration    26          0.824              1.324              0.747
 Vibration    27          0.837              1.292              0.707
 Vibration    28          0.862              1.236              0.642
 Vibration    29          0.900              1.151              0.555
 Vibration    30          0.924              1.099              0.507
 Vibration    31          0.935              1.078              0.488

 Optimization completed.
    -- Stationary point found.
 Normal termination of Gaussian 16 at Mon Dec 14 18:20:03 2020.

 ----------------------------------------------------------------------
 # B3LYP/6-311++G(d,p) empiricaldispersion=gd3bj scf=xqc pop=npa geom=c
 heck
 ----------------------------------------------------------------------

 ---------------------------------------
 CID_80056438_JID_10134_Energie_neutraal
 ---------------------------------------
 Structure from the checkpoint file:  "JID_10134.chk"
 Charge =  0 Multiplicity = 1

 SCF Done:  E(RB3LYP) =  -1299.04586618     A.U. after   17 cycles
 Normal termination of Gaussian 16 at Mon Dec 14 18:30:13 2020.

 ----------------------------------------------------------------------
 # B3LYP/6-311++G(d,p) empiricaldispersion=gd3bj scf=xqc pop=npa geom=c
 heck
 ----------------------------------------------------------------------

 -------------------------------------
 CID_80056438_JID_10134_Energie_kation
 -------------------------------------
 Structure from the checkpoint file:  "JID_10134.chk"
 Charge =  1 Multiplicity = 2

 SCF Done:  E(UB3LYP) =  -1298.72059601     A.U. after   33 cycles
 SCF Done:  E(UB3LYP) =  -1298.72059601     a.u. after    1 cycles
 Normal termination of Gaussian 16 at Mon Dec 14 18:58:33 2020.
 Gaussian 16:  ES64L-G16RevA.03 25-Dec-2016

 ----------------------------------------------------------------------
 # B3LYP/6-311++G(d,p) empiricaldispersion=gd3bj scf=xqc pop=npa geom=c
 heck
 ----------------------------------------------------------------------

 ------------------------------------
 CID_80056438_JID_10134_Energie_anion
 ------------------------------------
 Structure from the checkpoint file:  "JID_10134.chk"
 Charge = -1 Multiplicity = 2

                         Standard orientation:
 ---------------------------------------------------------------------
 Center     Atomic      Atomic             Coordinates (Angstroms)
 Number     Number       Type             X           Y           Z
 ---------------------------------------------------------------------
      1          6           0        3.644796   -2.412847   -0.498688
      2          6           0        2.762022   -1.345171    0.094042
      3          7           0        2.794583   -0.138413   -0.474619
      4          6           0        2.007685    0.839118    0.011539
      5          6           0        1.117300    0.634569    1.081486
      6          6           0        1.109821   -0.622325    1.697789
      7          6           0        1.933093   -1.617606    1.197900
      8          8           0        0.389597    1.670918    1.597656
      9          6           0       -1.012317    1.930101    1.304486
     10          6           0       -1.194193    2.738367    0.014533
     11          6           0       -1.312358    1.880278   -1.247369
     12          6           0       -2.537236    0.968890   -1.134565
     13          6           0       -2.496758    0.058998    0.103756
     14          6           0       -1.971545    0.721016    1.398047
     15         16           0       -1.810931   -1.615035   -0.282925
     16          8           0       -1.319063   -2.209738    0.974815
     17          8           0       -2.872930   -2.288828   -1.051425
     18          6           0       -0.415358   -1.436617   -1.412748
     19          6           0        2.156284    2.188544   -0.612604
     20          8           0        2.678156    2.385498   -1.689792
     21          1           0        4.272752   -1.977909   -1.278291
     22          1           0        4.285760   -2.868984    0.264553
     23          1           0        3.044529   -3.218430   -0.940131
     24          1           0        0.465467   -0.805463    2.548064
     25          1           0        1.930713   -2.604534    1.649985
     26          1           0       -1.257455    2.586051    2.143194
     27          1           0       -2.120851    3.320028    0.123427
     28          1           0       -0.381692    3.466021   -0.063789
     29          1           0       -0.399478    1.296699   -1.401899
     30          1           0       -1.415011    2.526103   -2.126066
     31          1           0       -2.692322    0.366443   -2.035597
     32          1           0       -3.429309    1.602417   -1.043748
     33          1           0       -3.516492   -0.284798    0.308217
     34          1           0       -1.570398   -0.044881    2.065074
     35          1           0       -2.864491    1.107034    1.903535
     36          1           0       -0.768139   -1.020786   -2.356392
     37          1           0        0.363275   -0.820430   -0.974665
     38          1           0       -0.048402   -2.453428   -1.567832
     39          1           0        1.760872    3.023610   -0.004172
 ---------------------------------------------------------------------

 SCF Done:  E(UB3LYP) =  -1299.07289215     A.U. after   27 cycles

 The electronic state is 2-A.
 Alpha  occ. eigenvalues --  -88.94210 -19.01707 -19.01209 -19.01089 -18.92464
 Alpha  occ. eigenvalues --  -14.14740 -10.13686 -10.12744 -10.10083 -10.09868
 Alpha  occ. eigenvalues --  -10.09315 -10.08785 -10.07739 -10.07617 -10.06982
 Alpha  occ. eigenvalues --  -10.05993 -10.04626 -10.04063 -10.03719 -10.02257
 Alpha  occ. eigenvalues --   -8.00726  -5.96984  -5.96868  -5.96830  -1.00335
 Alpha  occ. eigenvalues --   -0.93137  -0.90002  -0.86308  -0.79303  -0.75687
 Alpha  occ. eigenvalues --   -0.68875  -0.67183  -0.66321  -0.65065  -0.63990
 Alpha  occ. eigenvalues --   -0.57696  -0.56734  -0.53857  -0.51113  -0.50388
 Alpha  occ. eigenvalues --   -0.47246  -0.44560  -0.42384  -0.42015  -0.40669
 Alpha  occ. eigenvalues --   -0.39220  -0.38047  -0.37116  -0.36398  -0.35729
 Alpha  occ. eigenvalues --   -0.34850  -0.33812  -0.33256  -0.33013  -0.31905
 Alpha  occ. eigenvalues --   -0.31047  -0.30669  -0.30332  -0.29257  -0.28741
 Alpha  occ. eigenvalues --   -0.28384  -0.27313  -0.25866  -0.25445  -0.25097
 Alpha  occ. eigenvalues --   -0.24454  -0.24092  -0.23658  -0.23023  -0.22563
 Alpha  occ. eigenvalues --   -0.21549  -0.20664  -0.20234  -0.18765  -0.16924
 Alpha  occ. eigenvalues --   -0.14350  -0.11046  -0.10764  -0.07909   0.03324
 Alpha virt. eigenvalues --    0.05607   0.08000   0.08456   0.08683   0.09455
 Alpha virt. eigenvalues --    0.10266   0.11088   0.11158   0.11351   0.12000
 Alpha virt. eigenvalues --    0.12084   0.12689   0.12952   0.13674   0.14028

  Beta  occ. eigenvalues --  -88.94210 -19.01706 -19.01210 -19.01086 -18.91874
  Beta  occ. eigenvalues --  -14.14412 -10.13675 -10.12742 -10.10082 -10.09865
  Beta  occ. eigenvalues --  -10.09312 -10.08706 -10.07732 -10.07614 -10.07094
  Beta  occ. eigenvalues --  -10.05752 -10.04620 -10.03873 -10.03665 -10.01928
  Beta  occ. eigenvalues --   -8.00725  -5.96984  -5.96868  -5.96830  -1.00332
  Beta  occ. eigenvalues --   -0.93094  -0.89999  -0.85260  -0.78809  -0.75672
  Beta  occ. eigenvalues --   -0.68827  -0.67132  -0.66280  -0.64589  -0.63859
  Beta  occ. eigenvalues --   -0.57465  -0.56720  -0.53643  -0.50667  -0.50040
  Beta  occ. eigenvalues --   -0.47208  -0.44424  -0.41997  -0.41856  -0.40583
  Beta  occ. eigenvalues --   -0.39160  -0.38017  -0.37089  -0.36297  -0.35660
  Beta  occ. eigenvalues --   -0.34735  -0.33752  -0.33151  -0.32970  -0.31856
  Beta  occ. eigenvalues --   -0.30987  -0.30512  -0.30239  -0.29157  -0.28690
  Beta  occ. eigenvalues --   -0.28239  -0.26986  -0.25566  -0.25247  -0.24755
  Beta  occ. eigenvalues --   -0.24304  -0.23597  -0.23470  -0.22998  -0.21920
  Beta  occ. eigenvalues --   -0.21244  -0.20285  -0.18815  -0.18613  -0.16817
  Beta  occ. eigenvalues --   -0.12775  -0.10356  -0.09637  -0.07380
  Beta virt. eigenvalues --    0.05566   0.07947   0.08383   0.08634   0.09400
  Beta virt. eigenvalues --    0.09866   0.10266   0.11049   0.11161   0.11343
  Beta virt. eigenvalues --    0.12089   0.12178   0.12649   0.13021   0.13778

 Mulliken charges and spin densities:
               1          2
     1  C   -0.476212  -0.007524
     2  C    0.170955  -0.046015
     3  N    0.111530   0.175807
     4  C    0.000069   0.132820
     5  C   -0.530692   0.082069
     6  C    0.091157   0.057430
     7  C   -0.300524   0.230149
     8  O   -0.105842  -0.001258
     9  C    0.147201  -0.023723
    10  C   -0.510850   0.003175
    11  C    0.073054  -0.031993
    12  C   -0.641527   0.051921
    13  C   -0.166500  -0.091372
    14  C   -0.696995   0.079305
    15  S    0.366431  -0.060868
    16  O   -0.099469  -0.005688
    17  O   -0.075042   0.001640
    18  C   -0.676544   0.012035
    19  C   -0.390744   0.120280
    20  O   -0.287339   0.201129
    21  H    0.153613  -0.002344
    22  H    0.112717   0.007651
    23  H    0.133246  -0.002966
    24  H    0.121027   0.006696
    25  H    0.138960  -0.024885
    26  H    0.185402   0.027748
    27  H    0.119790  -0.009234
    28  H    0.200676  -0.003030
    29  H    0.190182   0.009364
    30  H    0.191088  -0.000977
    31  H    0.209108   0.000651
    32  H    0.112127   0.033977
    33  H    0.251790   0.024758
    34  H    0.239443  -0.011867
    35  H    0.073433   0.068067
    36  H    0.227253   0.003148
    37  H    0.083376  -0.002728
    38  H    0.226762   0.000704
    39  H    0.027892  -0.004052
 Sum of Mulliken charges =  -1.00000   1.00000

 Dipole moment (field-independent basis, Debye):
    X=             -8.1798    Y=             -0.1891    Z=              1.7147  Tot=              8.3597
 Quadrupole moment (field-independent basis, Debye-Ang):
   XX=           -174.9089   YY=           -159.9167   ZZ=           -145.5790
   XY=            -28.5427   XZ=              6.9888   YZ=              8.9746

 Summary of Natural Population Analysis:

                                       Natural Population
                Natural  -----------------------------------------------
    Atom  No    Charge         Core      Valence    Rydberg      Total
 -----------------------------------------------------------------------
      C    1   -0.29493      0.99963     2.29055    0.00475     3.29493
      C    2    0.06820      0.99956     1.91850    0.01375     2.93180
      N    3   -0.18400      0.99965     2.67221    0.01214     3.68400
      C    4    0.05645      0.99947     1.92891    0.01517     2.94355
      C    5    0.14225      0.99931     1.84385    0.01459     2.85775
      C    6   -0.09993      0.99952     2.09111    0.00930     3.09993
      C    7   -0.05973      0.99951     2.05125    0.00897     3.05973
      O    8   -0.29900      0.99985     3.28863    0.01051     4.29900
      C    9    0.07457      0.99950     1.90913    0.01680     2.92543
      C   10   -0.20202      0.99960     2.19533    0.00709     3.20202
      C   11   -0.19926      0.99962     2.19232    0.00732     3.19926
      C   12   -0.19816      0.99961     2.19079    0.00777     3.19816
      C   13   -0.19893      0.99954     2.18171    0.01768     3.19893
      C   14   -0.21930      0.99957     2.21042    0.00931     3.21930
      S   15    1.01858      4.99925     1.89013    0.09204     6.98142
      O   16   -0.46554      0.99991     3.45712    0.00851     4.46554
      O   17   -0.48176      0.99991     3.47617    0.00568     4.48176
      C   18   -0.39211      0.99959     2.38562    0.00691     3.39211
      C   19    0.21823      0.99970     1.76069    0.02138     2.78177
      O   20   -0.22246      0.99988     3.21551    0.00708     4.22246
      H   21    0.10777      0.00000     0.39120    0.00102     0.39223
      H   22    0.09516      0.00000     0.40385    0.00098     0.40484
      H   23    0.09392      0.00000     0.40512    0.00096     0.40608
      H   24    0.09721      0.00000     0.40135    0.00144     0.40279
      H   25    0.09184      0.00000     0.40721    0.00094     0.40816
      H   26    0.08965      0.00000     0.40920    0.00114     0.41035
      H   27    0.09068      0.00000     0.40804    0.00127     0.40932
      H   28    0.11452      0.00000     0.38422    0.00126     0.38548
      H   29    0.11146      0.00000     0.38607    0.00247     0.38854
      H   30    0.09990      0.00000     0.39914    0.00096     0.40010
      H   31    0.10723      0.00000     0.39161    0.00116     0.39277
      H   32    0.09789      0.00000     0.40036    0.00175     0.40211
      H   33    0.11527      0.00000     0.38263    0.00210     0.38473
      H   34    0.12638      0.00000     0.37213    0.00149     0.37362
      H   35    0.10361      0.00000     0.39519    0.00121     0.39639
      H   36    0.11046      0.00000     0.38867    0.00087     0.38954
      H   37    0.13105      0.00000     0.36606    0.00289     0.36895
      H   38    0.11988      0.00000     0.37907    0.00105     0.38012
      H   39    0.03498      0.00000     0.46285    0.00217     0.46502
 =======================================================================
   * Total *   -0.00000     23.99219    54.68391    0.32391    79.00000

 Normal termination of Gaussian 16 at Mon Dec 14 19:20:54 2020.
