 Gaussian 16, Revision A.03,

 -----------------------------------------------------------
 # opt freq B3LYP/6-31G(d) empiricaldispersion=gd3bj scf=xqc
 -----------------------------------------------------------

 ------------------------------
 CID_62041933_JID_2334_neutraal
 ------------------------------
 Symbolic Z-matrix:
 Charge =  0 Multiplicity = 1

 SCF Done:  E(RB3LYP) =  -537.359428080     A.U. after   14 cycles
 SCF Done:  E(RB3LYP) =  -537.361722123     A.U. after   12 cycles
 SCF Done:  E(RB3LYP) =  -537.361673454     A.U. after   12 cycles
 SCF Done:  E(RB3LYP) =  -537.361849038     A.U. after   11 cycles
 SCF Done:  E(RB3LYP) =  -537.362509198     A.U. after   11 cycles
 SCF Done:  E(RB3LYP) =  -537.362590469     A.U. after   10 cycles
 SCF Done:  E(RB3LYP) =  -537.362620486     A.U. after   10 cycles
 SCF Done:  E(RB3LYP) =  -537.362631327     A.U. after    9 cycles
 SCF Done:  E(RB3LYP) =  -537.362637382     A.U. after    9 cycles
 SCF Done:  E(RB3LYP) =  -537.362640245     A.U. after    8 cycles
 SCF Done:  E(RB3LYP) =  -537.362642921     A.U. after    8 cycles
 SCF Done:  E(RB3LYP) =  -537.362643985     A.U. after    8 cycles
 SCF Done:  E(RB3LYP) =  -537.362644509     A.U. after    8 cycles
 SCF Done:  E(RB3LYP) =  -537.362644705     A.U. after    7 cycles
 Optimization completed.
    -- Stationary point found.
 Normal termination of Gaussian 16 at Wed Dec  9 17:08:22 2020.

 --------------------------------------------------------------------
 #N Geom=AllCheck Guess=TCheck SCRF=Check GenChk RB3LYP/6-31G(d) Freq
 --------------------------------------------------------------------

 Structure from the checkpoint file:  "JID_2334.chk"
 ------------------------------
 CID_62041933_JID_2334_neutraal
 ------------------------------
 Charge =  0 Multiplicity = 1

 SCF Done:  E(RB3LYP) =  -537.362644705     A.U. after    1 cycles

  Exact polarizability: 125.022   4.694 109.541  11.539  -2.147  81.699
 Approx polarizability: 164.707   1.714 168.506  24.097  -6.395 127.738

                      1                      2                      3
                      A                      A                      A
 Frequencies --     41.6016                59.6861                79.6790
 Red. masses --      3.2373                 2.7632                 2.8876
 Frc consts  --      0.0033                 0.0058                 0.0108
 IR Inten    --      0.2347                 0.5371                 1.5857

                      4                      5                      6
                      A                      A                      A
 Frequencies --    100.4029               151.4804               166.0479
 Red. masses --      3.8791                 1.4907                 1.6490
 Frc consts  --      0.0230                 0.0202                 0.0268
 IR Inten    --      2.0914                 0.5050                 1.1893

                      7                      8                      9
                      A                      A                      A
 Frequencies --    193.4152               235.0498               249.9197
 Red. masses --      2.6619                 1.8299                 2.5331
 Frc consts  --      0.0587                 0.0596                 0.0932
 IR Inten    --      0.6255                 2.1368                 3.7401

                     10                     11                     12
                      A                      A                      A
 Frequencies --    280.5057               320.7129               360.3879
 Red. masses --      3.4132                 2.2903                 2.1630
 Frc consts  --      0.1582                 0.1388                 0.1655
 IR Inten    --      1.4176                 0.9428                 7.1676

                     13                     14                     15
                      A                      A                      A
 Frequencies --    392.1782               424.9537               433.9756
 Red. masses --      2.0549                 1.3544                 1.8923
 Frc consts  --      0.1862                 0.1441                 0.2100
 IR Inten    --     19.0517               158.0428                 4.6128

                     16                     17                     18
                      A                      A                      A
 Frequencies --    490.0684               564.8679               637.1323
 Red. masses --      3.0301                 3.1992                 4.7419
 Frc consts  --      0.4288                 0.6014                 1.1341
 IR Inten    --     16.1209                 9.6966                 1.2203

                     19                     20                     21
                      A                      A                      A
 Frequencies --    679.7820               694.8421               742.5961
 Red. masses --      4.4180                 3.8019                 1.9219
 Frc consts  --      1.2029                 1.0815                 0.6244
 IR Inten    --     10.1881                 4.5580                 0.8002

                     22                     23                     24
                      A                      A                      A
 Frequencies --    746.5049               765.5558               845.1401
 Red. masses --      1.2817                 1.9400                 1.5427
 Frc consts  --      0.4208                 0.6699                 0.6492
 IR Inten    --     18.5823                 4.3109                 2.1907

                     25                     26                     27
                      A                      A                      A
 Frequencies --    847.5143               891.1201               926.0237
 Red. masses --      1.3918                 2.6079                 2.7286
 Frc consts  --      0.5890                 1.2202                 1.3786
 IR Inten    --      6.4755                 0.5867                 1.8466

                     28                     29                     30
                      A                      A                      A
 Frequencies --    945.3082               949.5457              1008.3393
 Red. masses --      2.5610                 1.7001                 1.5983
 Frc consts  --      1.3484                 0.9031                 0.9575
 IR Inten    --      5.2229                10.6659                14.5267

                     31                     32                     33
                      A                      A                      A
 Frequencies --   1032.7338              1072.5692              1078.1763
 Red. masses --      1.7957                 2.1079                 1.7229
 Frc consts  --      1.1284                 1.4287                 1.1800
 IR Inten    --     15.3083                29.4915                11.6926

                     34                     35                     36
                      A                      A                      A
 Frequencies --   1081.2896              1098.7241              1124.6011
 Red. masses --      2.1327                 1.6372                 1.4858
 Frc consts  --      1.4692                 1.1645                 1.1071
 IR Inten    --      7.3775                 6.8229                 4.5130

                     37                     38                     39
                      A                      A                      A
 Frequencies --   1146.6614              1182.3087              1202.1552
 Red. masses --      1.6100                 2.1671                 2.6339
 Frc consts  --      1.2472                 1.7848                 2.2427
 IR Inten    --     18.6420                28.6287                 0.2234

                     40                     41                     42
                      A                      A                      A
 Frequencies --   1251.4959              1272.4541              1287.5830
 Red. masses --      1.4338                 1.5118                 1.7673
 Frc consts  --      1.3231                 1.4422                 1.7263
 IR Inten    --      4.4489                11.0904                 5.2967

                     43                     44                     45
                      A                      A                      A
 Frequencies --   1313.8003              1327.5102              1367.2335
 Red. masses --      2.2929                 1.2942                 1.3073
 Frc consts  --      2.3319                 1.3437                 1.4398
 IR Inten    --     49.4015                 3.0451                 6.0864

                     46                     47                     48
                      A                      A                      A
 Frequencies --   1395.0134              1401.0300              1406.4671
 Red. masses --      1.4030                 1.8465                 1.7408
 Frc consts  --      1.6086                 2.1355                 2.0289
 IR Inten    --      8.3427                 2.6840                 6.7246

                     49                     50                     51
                      A                      A                      A
 Frequencies --   1422.0567              1435.2132              1444.9850
 Red. masses --      1.4548                 1.2509                 1.3074
 Frc consts  --      1.7333                 1.5181                 1.6083
 IR Inten    --     12.2725                 4.6134                 5.5509

                     52                     53                     54
                      A                      A                      A
 Frequencies --   1454.5954              1468.1534              1505.6598
 Red. masses --      1.2483                 2.5666                 1.1100
 Frc consts  --      1.5562                 3.2595                 1.4826
 IR Inten    --     26.3226                77.2899                 1.7818

                     55                     56                     57
                      A                      A                      A
 Frequencies --   1510.8451              1518.2761              1522.6879
 Red. masses --      1.2296                 1.5388                 1.0690
 Frc consts  --      1.6537                 2.0899                 1.4603
 IR Inten    --      6.3825                 5.7643                 0.9935

                     58                     59                     60
                      A                      A                      A
 Frequencies --   1524.5855              1534.9405              1539.7718
 Red. masses --      1.0601                 1.0574                 1.0909
 Frc consts  --      1.4518                 1.4678                 1.5239
 IR Inten    --      8.2087                 8.9534                 6.8056

                     61                     62                     63
                      A                      A                      A
 Frequencies --   1545.3101              1580.5557              3035.6091
 Red. masses --      1.8945                 4.9129                 1.0634
 Frc consts  --      2.6656                 7.2311                 5.7734
 IR Inten    --     14.5244                19.8305                15.8069

                     64                     65                     66
                      A                      A                      A
 Frequencies --   3045.6935              3049.4483              3051.2707
 Red. masses --      1.0595                 1.0366                 1.0423
 Frc consts  --      5.7905                 5.6793                 5.7174
 IR Inten    --     25.3722                17.1712                23.9648

                     67                     68                     69
                      A                      A                      A
 Frequencies --   3071.3726              3077.0004              3086.9370
 Red. masses --      1.1005                 1.0812                 1.0804
 Frc consts  --      6.1164                 6.0316                 6.0660
 IR Inten    --      9.0248                 2.7774                35.3293

                     70                     71                     72
                      A                      A                      A
 Frequencies --   3093.5137              3103.1072              3116.9087
 Red. masses --      1.0845                 1.0995                 1.1021
 Frc consts  --      6.1148                 6.2378                 6.3082
 IR Inten    --     73.8765                15.7642                51.4520

                     73                     74                     75
                      A                      A                      A
 Frequencies --   3118.8413              3137.4647              3162.0850
 Red. masses --      1.1016                 1.1046                 1.0980
 Frc consts  --      6.3131                 6.4062                 6.4682
 IR Inten    --     39.0128                14.8066                 5.6095

                     76                     77                     78
                      A                      A                      A
 Frequencies --   3259.0690              3294.5610              3702.2706
 Red. masses --      1.0927                 1.1025                 1.0657
 Frc consts  --      6.8383                 7.0508                 8.6063
 IR Inten    --     10.1119                 1.5811                21.9852

 - Thermochemistry -
 -------------------
 Temperature   298.150 Kelvin.  Pressure   1.00000 Atm.
 Atom     1 has atomic number  6 and mass  12.00000

 Molecular mass:   168.12626 amu.
 Principal axes and moments of inertia in atomic units:
                           1         2         3
     Eigenvalues --  1180.156032885.714053625.40047
           X            0.99975   0.02217   0.00023
           Y           -0.02217   0.99975   0.00363
           Z           -0.00015  -0.00363   0.99999
 This molecule is an asymmetric top.
 Rotational symmetry number  1.
 Warning -- assumption of classical behavior for rotation
           may cause significant error
 Rotational temperatures (Kelvin)      0.07339     0.03001     0.02389
 Rotational constants (GHZ):           1.52924     0.62541     0.49780
 Zero-point vibrational energy     650044.4 (Joules/Mol)
                                  155.36434 (Kcal/Mol)
 Warning -- explicit consideration of  17 degrees of freedom as
           vibrations may cause significant error
 Vibrational temperatures:     59.86    85.87   114.64   144.46   217.95
          (Kelvin)            238.91   278.28   338.18   359.58   403.59
                              461.43   518.52   564.26   611.41   624.39
                              705.10   812.72   916.69   978.05   999.72
                             1068.43  1074.05  1101.46  1215.97  1219.38
                             1282.12  1332.34  1360.09  1366.18  1450.78
                             1485.87  1543.19  1551.26  1555.73  1580.82
                             1618.05  1649.79  1701.08  1729.63  1800.62
                             1830.78  1852.54  1890.27  1909.99  1967.14
                             2007.11  2015.77  2023.59  2046.02  2064.95
                             2079.01  2092.84  2112.35  2166.31  2173.77
                             2184.46  2190.81  2193.54  2208.44  2215.39
                             2223.36  2274.07  4367.56  4382.07  4387.48
                             4390.10  4419.02  4427.12  4441.41  4450.88
                             4464.68  4484.54  4487.32  4514.11  4549.54
                             4689.07  4740.14  5326.74

 Zero-point correction=                           0.247589 (Hartree/Particle)
 Thermal correction to Energy=                    0.260298
 Thermal correction to Enthalpy=                  0.261242
 Thermal correction to Gibbs Free Energy=         0.208232
 Sum of electronic and zero-point Energies=           -537.115056
 Sum of electronic and thermal Energies=              -537.102347
 Sum of electronic and thermal Enthalpies=            -537.101403
 Sum of electronic and thermal Free Energies=         -537.154413

                     E (Thermal)             CV                S
                      KCal/Mol        Cal/Mol-Kelvin    Cal/Mol-Kelvin
 Total                  163.339             47.537            111.570
 Electronic               0.000              0.000              0.000
 Translational            0.889              2.981             41.267
 Rotational               0.889              2.981             30.891
 Vibrational            161.562             41.576             39.412
 Vibration     1          0.594              1.981              5.181
 Vibration     2          0.597              1.974              4.468
 Vibration     3          0.600              1.963              3.899
 Vibration     4          0.604              1.949              3.446
 Vibration     5          0.619              1.901              2.654
 Vibration     6          0.624              1.884              2.480
 Vibration     7          0.635              1.849              2.195
 Vibration     8          0.655              1.787              1.840
 Vibration     9          0.663              1.763              1.731
 Vibration    10          0.680              1.710              1.531
 Vibration    11          0.706              1.634              1.306
 Vibration    12          0.735              1.554              1.120
 Vibration    13          0.760              1.487              0.992
 Vibration    14          0.787              1.416              0.875
 Vibration    15          0.795              1.396              0.846
 Vibration    16          0.846              1.272              0.683
 Vibration    17          0.921              1.107              0.514

                           ! Non-Optimized Parameters !
 Normal termination of Gaussian 16 at Wed Dec  9 17:15:41 2020.

 ----------------------------------------------------------------------
 # B3LYP/6-311++G(d,p) empiricaldispersion=gd3bj scf=xqc pop=npa geom=c
 heck
 ----------------------------------------------------------------------

 --------------------------------------
 CID_62041933_JID_2334_Energie_neutraal
 --------------------------------------
 Structure from the checkpoint file:  "JID_2334.chk"
 Charge =  0 Multiplicity = 1

 SCF Done:  E(RB3LYP) =  -537.520605969     A.U. after   13 cycles
 Normal termination of Gaussian 16 at Wed Dec  9 17:18:39 2020.

 ----------------------------------------------------------------------
 # B3LYP/6-311++G(d,p) empiricaldispersion=gd3bj scf=xqc pop=npa geom=c
 heck
 ----------------------------------------------------------------------

 ------------------------------------
 CID_62041933_JID_2334_Energie_kation
 ------------------------------------
 Structure from the checkpoint file:  "JID_2334.chk"
 Charge =  1 Multiplicity = 2

 SCF Done:  E(UB3LYP) =  -537.215688650     A.U. after   20 cycles
 Normal termination of Gaussian 16 at Wed Dec  9 17:24:32 2020.
 Gaussian 16:  ES64L-G16RevA.03 25-Dec-2016

 ----------------------------------------------------------------------
 # B3LYP/6-311++G(d,p) empiricaldispersion=gd3bj scf=xqc pop=npa geom=c
 heck
 ----------------------------------------------------------------------

 -----------------------------------
 CID_62041933_JID_2334_Energie_anion
 -----------------------------------
 Structure from the checkpoint file:  "JID_2334.chk"
 Charge = -1 Multiplicity = 2

                         Standard orientation:
 ---------------------------------------------------------------------
 Center     Atomic      Atomic             Coordinates (Angstroms)
 Number     Number       Type             X           Y           Z
 ---------------------------------------------------------------------
      1          6           0        3.879226    0.506043    0.126971
      2          6           0        2.520206    0.969702   -0.408337
      3          6           0        1.609720   -0.177803   -0.873507
      4          6           0        1.120513   -1.118418    0.233790
      5          6           0        0.095852   -0.473782    1.190975
      6          7           0       -1.170616   -0.178038    0.536118
      7          6           0       -2.122815   -1.129817    0.193376
      8          6           0       -3.105785   -0.443818   -0.472184
      9          7           0       -2.793316    0.894258   -0.550015
     10          6           0       -1.628128    1.030441    0.059390
     11          6           0       -0.912418    2.329636    0.235023
     12          8           0        0.593361   -2.323529   -0.311934
     13          1           0        3.778959   -0.103342    1.032101
     14          1           0        4.514359    1.362321    0.378299
     15          1           0        4.409006   -0.097067   -0.619839
     16          1           0        2.013870    1.571987    0.356933
     17          1           0        2.682251    1.644504   -1.258196
     18          1           0        0.734394    0.228745   -1.399238
     19          1           0        2.151904   -0.795162   -1.600062
     20          1           0        1.969835   -1.439690    0.845966
     21          1           0       -0.100461   -1.166817    2.014275
     22          1           0        0.491049    0.451382    1.617960
     23          1           0       -2.011147   -2.162181    0.487012
     24          1           0       -4.024497   -0.832531   -0.890173
     25          1           0       -0.001473    2.394928   -0.370662
     26          1           0       -1.587836    3.126919   -0.080575
     27          1           0       -0.629948    2.509018    1.279640
     28          1           0       -0.127857   -2.071422   -0.913675
 ---------------------------------------------------------------------

 SCF Done:  E(UB3LYP) =  -537.507844197     A.U. after   30 cycles

 The electronic state is 2-A.
 Alpha  occ. eigenvalues --  -19.03276 -14.27533 -14.19608 -10.13511 -10.13074
 Alpha  occ. eigenvalues --  -10.11766 -10.10281 -10.09145 -10.07713 -10.07119
 Alpha  occ. eigenvalues --  -10.06721 -10.05333  -0.94054  -0.92066  -0.79265
 Alpha  occ. eigenvalues --   -0.70375  -0.68162  -0.65073  -0.60334  -0.59083
 Alpha  occ. eigenvalues --   -0.53968  -0.50834  -0.48638  -0.45781  -0.42508
 Alpha  occ. eigenvalues --   -0.41491  -0.38452  -0.36285  -0.35434  -0.34684
 Alpha  occ. eigenvalues --   -0.34019  -0.32432  -0.31651  -0.30594  -0.30125
 Alpha  occ. eigenvalues --   -0.29855  -0.29326  -0.27136  -0.26536  -0.24269
 Alpha  occ. eigenvalues --   -0.23486  -0.22637  -0.19556  -0.17978  -0.17391
 Alpha  occ. eigenvalues --   -0.13459   0.04555
 Alpha virt. eigenvalues --    0.07041   0.07448   0.07745   0.08918   0.09254
 Alpha virt. eigenvalues --    0.09909   0.10393   0.10756   0.11395   0.11512
 Alpha virt. eigenvalues --    0.12576   0.13069   0.13455   0.13741   0.13800

  Beta  occ. eigenvalues --  -19.03272 -14.27534 -14.19606 -10.13506 -10.13061
  Beta  occ. eigenvalues --  -10.11728 -10.10274 -10.09141 -10.07679 -10.07108
  Beta  occ. eigenvalues --  -10.06689 -10.05284  -0.94043  -0.92058  -0.79254
  Beta  occ. eigenvalues --   -0.70337  -0.68135  -0.65021  -0.60285  -0.59031
  Beta  occ. eigenvalues --   -0.53911  -0.50822  -0.48548  -0.45742  -0.42477
  Beta  occ. eigenvalues --   -0.41428  -0.38419  -0.36252  -0.35411  -0.34654
  Beta  occ. eigenvalues --   -0.33977  -0.32387  -0.31616  -0.30568  -0.30089
  Beta  occ. eigenvalues --   -0.29812  -0.29291  -0.27091  -0.26486  -0.24227
  Beta  occ. eigenvalues --   -0.23430  -0.22599  -0.19539  -0.17968  -0.17376
  Beta  occ. eigenvalues --   -0.13433
  Beta virt. eigenvalues --    0.06928   0.07578   0.08236   0.08468   0.09233
  Beta virt. eigenvalues --    0.09767   0.10329   0.10828   0.11223   0.11823
  Beta virt. eigenvalues --    0.12055   0.13118   0.13229   0.13628   0.14144

 Mulliken charges and spin densities:
               1          2
     1  C    1.830794  -2.464014
     2  C   -0.957832   0.749996
     3  C    0.609590  -0.620357
     4  C   -0.523764   0.154275
     5  C    1.042011  -1.351667
     6  N   -0.103531   0.206916
     7  C   -0.319479   0.237782
     8  C   -0.077794  -0.062359
     9  N   -0.141578   0.069406
    10  C   -1.625852   1.533162
    11  C    2.151697  -2.909902
    12  O   -0.231123   0.004387
    13  H   -0.463064   0.590852
    14  H   -0.709423   0.862823
    15  H   -0.098026   0.230188
    16  H    0.111636   0.008696
    17  H   -0.373988   0.536069
    18  H    0.088473   0.102196
    19  H   -0.089870   0.272621
    20  H    0.035434   0.215957
    21  H   -0.433709   0.661829
    22  H   -0.406648   0.557389
    23  H   -0.069739   0.246508
    24  H    0.057560   0.087557
    25  H   -0.216833   0.389178
    26  H    0.055840   0.121741
    27  H   -0.414356   0.596037
    28  H    0.273573  -0.027265
 Sum of Mulliken charges =  -1.00000   1.00000

 Dipole moment (field-independent basis, Debye):
    X=             -5.9208    Y=             -3.8377    Z=             -3.4632  Tot=              7.8598
 Quadrupole moment (field-independent basis, Debye-Ang):
   XX=           -145.8642   YY=           -118.4186   ZZ=           -114.2107
   XY=             -3.4152   XZ=             -4.7519   YZ=              0.7829

 Summary of Natural Population Analysis:

                                       Natural Population
                Natural  -----------------------------------------------
    Atom  No    Charge         Core      Valence    Rydberg      Total
 -----------------------------------------------------------------------
      C    1   -0.28507      0.99967     2.27988    0.00553     3.28507
      C    2   -0.19430      0.99964     2.18577    0.00889     3.19430
      C    3   -0.20379      0.99960     2.19513    0.00906     3.20379
      C    4    0.05861      0.99955     1.92754    0.01430     2.94139
      C    5   -0.09509      0.99958     2.08265    0.01285     3.09509
      N    6   -0.21516      0.99962     2.70340    0.01214     3.71516
      C    7   -0.05274      0.99955     2.04072    0.01247     3.05274
      C    8   -0.03510      0.99957     2.02255    0.01298     3.03510
      N    9   -0.26483      0.99970     2.75549    0.00964     3.76483
      C   10    0.19911      0.99960     1.78359    0.01769     2.80089
      C   11   -0.30962      0.99962     2.30436    0.00564     3.30962
      O   12   -0.37006      0.99990     3.36386    0.00630     4.37006
      H   13    0.09678      0.00000     0.40149    0.00173     0.40322
      H   14    0.10390      0.00000     0.39412    0.00197     0.39610
      H   15    0.09470      0.00000     0.40407    0.00123     0.40530
      H   16    0.09667      0.00000     0.40066    0.00267     0.40333
      H   17    0.09816      0.00000     0.40048    0.00136     0.40184
      H   18    0.09684      0.00000     0.40153    0.00163     0.40316
      H   19    0.10264      0.00000     0.39615    0.00121     0.39736
      H   20    0.09457      0.00000     0.40377    0.00166     0.40543
      H   21    0.10650      0.00000     0.39154    0.00195     0.39350
      H   22    0.11254      0.00000     0.38468    0.00278     0.38746
      H   23    0.10856      0.00000     0.39048    0.00096     0.39144
      H   24    0.09442      0.00000     0.40475    0.00083     0.40558
      H   25    0.10893      0.00000     0.38953    0.00155     0.39107
      H   26    0.11430      0.00000     0.38446    0.00123     0.38570
      H   27    0.11017      0.00000     0.38833    0.00150     0.38983
      H   28    0.22834      0.00000     0.26860    0.00306     0.27166
 =======================================================================
   * Total *    0.00000     11.99560    33.84960    0.15480    46.00000

 Normal termination of Gaussian 16 at Wed Dec  9 17:33:22 2020.
