 Gaussian 16, Revision A.03,

 -----------------------------------------------------------
 # opt freq B3LYP/6-31G(d) empiricaldispersion=gd3bj scf=xqc
 -----------------------------------------------------------

 -------------------------------
 CID_153853690_JID_6904_neutraal
 -------------------------------
 Symbolic Z-matrix:
 Charge =  0 Multiplicity = 1

 SCF Done:  E(RB3LYP) =  -708.464589622     A.U. after   14 cycles
 SCF Done:  E(RB3LYP) =  -708.468329592     A.U. after   12 cycles
 SCF Done:  E(RB3LYP) =  -708.469134360     A.U. after   12 cycles
 SCF Done:  E(RB3LYP) =  -708.469457994     A.U. after   12 cycles
 SCF Done:  E(RB3LYP) =  -708.469559367     A.U. after   10 cycles
 SCF Done:  E(RB3LYP) =  -708.469591238     A.U. after   11 cycles
 SCF Done:  E(RB3LYP) =  -708.469600573     A.U. after   10 cycles
 SCF Done:  E(RB3LYP) =  -708.469607585     A.U. after   10 cycles
 SCF Done:  E(RB3LYP) =  -708.469612879     A.U. after    9 cycles
 SCF Done:  E(RB3LYP) =  -708.469614796     A.U. after    9 cycles
 SCF Done:  E(RB3LYP) =  -708.469615241     A.U. after    8 cycles
 Optimization completed.
    -- Stationary point found.
 Normal termination of Gaussian 16 at Fri Dec 11 01:04:22 2020.

 --------------------------------------------------------------------
 #N Geom=AllCheck Guess=TCheck SCRF=Check GenChk RB3LYP/6-31G(d) Freq
 --------------------------------------------------------------------

 Structure from the checkpoint file:  "JID_6904.chk"
 -------------------------------
 CID_153853690_JID_6904_neutraal
 -------------------------------
 Charge =  0 Multiplicity = 1

 SCF Done:  E(RB3LYP) =  -708.469615241     A.U. after    1 cycles

  Exact polarizability: 236.703  -3.434 146.265   0.996   9.518  78.940
 Approx polarizability: 331.365   3.935 261.315   0.229  16.217 126.278

                      1                      2                      3
                      A                      A                      A
 Frequencies --     48.3343                63.6360                86.0913
 Red. masses --      5.2814                 3.7374                 4.8897
 Frc consts  --      0.0073                 0.0089                 0.0214
 IR Inten    --      1.0033                 0.6635                 0.0494

                      4                      5                      6
                      A                      A                      A
 Frequencies --    125.5420               146.8728               202.7262
 Red. masses --      1.0405                 5.9403                 3.6482
 Frc consts  --      0.0097                 0.0755                 0.0883
 IR Inten    --      0.1372                 0.8432                 3.4007

                      7                      8                      9
                      A                      A                      A
 Frequencies --    226.7154               246.8994               276.4881
 Red. masses --      3.8194                 5.8172                 3.8524
 Frc consts  --      0.1157                 0.2089                 0.1735
 IR Inten    --      4.0534                 0.1289                 3.1760

                     10                     11                     12
                      A                      A                      A
 Frequencies --    284.5840               299.5245               310.4476
 Red. masses --      3.1519                 4.8027                 1.1021
 Frc consts  --      0.1504                 0.2539                 0.0626
 IR Inten    --      7.7553                 2.5738                19.3006

                     13                     14                     15
                      A                      A                      A
 Frequencies --    334.0271               367.6826               392.0138
 Red. masses --      1.1154                 4.7368                 4.7623
 Frc consts  --      0.0733                 0.3773                 0.4312
 IR Inten    --    102.7075                 1.8672                 1.1170

                     16                     17                     18
                      A                      A                      A
 Frequencies --    428.0691               446.8408               474.9729
 Red. masses --      3.1069                 2.2051                 3.9835
 Frc consts  --      0.3354                 0.2594                 0.5295
 IR Inten    --     12.2518                37.4406                 6.0553

                     19                     20                     21
                      A                      A                      A
 Frequencies --    485.7951               498.4377               538.7166
 Red. masses --      2.1907                 2.3336                 5.9985
 Frc consts  --      0.3046                 0.3416                 1.0257
 IR Inten    --     33.9437                35.1146                12.4314

                     22                     23                     24
                      A                      A                      A
 Frequencies --    561.9320               590.3426               612.6891
 Red. masses --      3.1355                 2.9959                 2.2323
 Frc consts  --      0.5833                 0.6152                 0.4937
 IR Inten    --     20.8825                99.2206               214.1920

                     25                     26                     27
                      A                      A                      A
 Frequencies --    642.7810               673.1176               699.8970
 Red. masses --      3.4672                 4.6412                 5.9258
 Frc consts  --      0.8440                 1.2390                 1.7103
 IR Inten    --     31.6113                11.5961                20.7619

                     28                     29                     30
                      A                      A                      A
 Frequencies --    714.5630               726.0793               752.7946
 Red. masses --      3.1814                 2.7967                 5.9591
 Frc consts  --      0.9571                 0.8687                 1.9897
 IR Inten    --      1.1938                 1.9728                 7.1498

                     31                     32                     33
                      A                      A                      A
 Frequencies --    793.3728               822.2717               846.1246
 Red. masses --      1.7392                 3.6806                 1.3896
 Frc consts  --      0.6450                 1.4662                 0.5862
 IR Inten    --     63.8101                14.0722                 9.6815

                     34                     35                     36
                      A                      A                      A
 Frequencies --    872.8252               884.4637               888.6696
 Red. masses --      1.4350                 1.4151                 1.3643
 Frc consts  --      0.6441                 0.6522                 0.6348
 IR Inten    --      7.9118                 3.4043                14.0288

                     37                     38                     39
                      A                      A                      A
 Frequencies --    915.4093               966.4826              1014.2800
 Red. masses --      3.7185                 1.2585                 5.9652
 Frc consts  --      1.8359                 0.6926                 3.6157
 IR Inten    --      8.1914                 0.3210                 2.9071

                     40                     41                     42
                      A                      A                      A
 Frequencies --   1033.4570              1043.1006              1073.8785
 Red. masses --      1.6009                 2.4244                 1.4786
 Frc consts  --      1.0074                 1.5542                 1.0046
 IR Inten    --     22.0963                 6.8265                 2.7730

                     43                     44                     45
                      A                      A                      A
 Frequencies --   1102.8021              1149.3898              1161.7048
 Red. masses --      1.6548                 1.4804                 2.1665
 Frc consts  --      1.1857                 1.1523                 1.7227
 IR Inten    --      2.3815                 3.2153                33.6018

                     46                     47                     48
                      A                      A                      A
 Frequencies --   1202.5278              1205.5931              1221.6748
 Red. masses --      1.7558                 1.1665                 1.4059
 Frc consts  --      1.4960                 0.9989                 1.2362
 IR Inten    --     72.2247                40.4249               155.4083

                     49                     50                     51
                      A                      A                      A
 Frequencies --   1249.3421              1277.8500              1323.1328
 Red. masses --      1.4780                 2.9034                 3.4434
 Frc consts  --      1.3592                 2.7933                 3.5517
 IR Inten    --      1.8568                71.9335                45.4534

                     52                     53                     54
                      A                      A                      A
 Frequencies --   1331.8038              1350.8708              1370.4696
 Red. masses --      1.5883                 1.8156                 2.8216
 Frc consts  --      1.6598                 1.9521                 3.1223
 IR Inten    --     28.8285               105.9777                 8.0763

                     55                     56                     57
                      A                      A                      A
 Frequencies --   1382.5987              1385.4144              1443.1610
 Red. masses --      3.0306                 6.3914                 1.2589
 Frc consts  --      3.4133                 7.2278                 1.5448
 IR Inten    --     39.2428                 6.3340                 1.2054

                     58                     59                     60
                      A                      A                      A
 Frequencies --   1475.7825              1507.0216              1507.9032
 Red. masses --      2.8696                 1.9502                 1.0466
 Frc consts  --      3.6822                 2.6096                 1.4021
 IR Inten    --     69.6359                 8.5092                 4.6623

                     61                     62                     63
                      A                      A                      A
 Frequencies --   1530.4397              1544.4664              1568.4181
 Red. masses --      1.5266                 2.5447                 3.4073
 Frc consts  --      2.1067                 3.5763                 4.9383
 IR Inten    --     58.8700                69.2369                49.1060

                     64                     65                     66
                      A                      A                      A
 Frequencies --   1638.0402              1647.2464              1663.7395
 Red. masses --      5.2427                 6.1039                 4.4428
 Frc consts  --      8.2881                 9.7582                 7.2457
 IR Inten    --     28.4538                25.3083               100.5750

                     67                     68                     69
                      A                      A                      A
 Frequencies --   1692.2688              1695.4015              3049.7353
 Red. masses --      6.3793                 1.2321                 1.0364
 Frc consts  --     10.7637                 2.0866                 5.6791
 IR Inten    --      7.9704               128.6006                36.6016

                     70                     71                     72
                      A                      A                      A
 Frequencies --   3101.1966              3134.0845              3169.8712
 Red. masses --      1.1003                 1.1025                 1.0897
 Frc consts  --      6.2346                 6.3806                 6.4514
 IR Inten    --     16.7992                17.7481                13.7896

                     73                     74                     75
                      A                      A                      A
 Frequencies --   3177.5523              3178.3463              3194.8997
 Red. masses --      1.0897                 1.0868                 1.0915
 Frc consts  --      6.4823                 6.4684                 6.5644
 IR Inten    --      6.3455                10.1798                26.4914

                     76                     77                     78
                      A                      A                      A
 Frequencies --   3204.3376              3213.4466              3553.7966
 Red. masses --      1.0905                 1.0943                 1.0478
 Frc consts  --      6.5971                 6.6580                 7.7968
 IR Inten    --      9.2163                11.8781                16.0583

                     79                     80                     81
                      A                      A                      A
 Frequencies --   3652.9506              3689.1347              3758.2582
 Red. masses --      1.0984                 1.0652                 1.0659
 Frc consts  --      8.6355                 8.5416                 8.8704
 IR Inten    --      8.9642               112.8301                32.8909

 - Thermochemistry -
 -------------------
 Temperature   298.150 Kelvin.  Pressure   1.00000 Atm.
 Atom     1 has atomic number  6 and mass  12.00000

 Molecular mass:   215.09463 amu.
 Principal axes and moments of inertia in atomic units:
                           1         2         3
     Eigenvalues --  1490.940446327.127787306.18298
           X            0.99998  -0.00490   0.00265
           Y            0.00484   0.99978   0.02027
           Z           -0.00274  -0.02026   0.99979
 This molecule is an asymmetric top.
 Rotational symmetry number  1.
 Warning -- assumption of classical behavior for rotation
           may cause significant error
 Rotational temperatures (Kelvin)      0.05809     0.01369     0.01185
 Rotational constants (GHZ):           1.21047     0.28524     0.24702
 Zero-point vibrational energy     616792.3 (Joules/Mol)
                                  147.41690 (Kcal/Mol)
 Warning -- explicit consideration of  24 degrees of freedom as
           vibrations may cause significant error
 Vibrational temperatures:     69.54    91.56   123.87   180.63   211.32
          (Kelvin)            291.68   326.19   355.23   397.80   409.45
                              430.95   446.66   480.59   529.01   564.02
                              615.90   642.90   683.38   698.95   717.14
                              775.09   808.49   849.37   881.52   924.82
                              968.47  1007.00  1028.10  1044.67  1083.10
                             1141.49  1183.07  1217.38  1255.80  1272.55
                             1278.60  1317.07  1390.55  1459.32  1486.91
                             1500.79  1545.07  1586.69  1653.72  1671.43
                             1730.17  1734.58  1757.72  1797.52  1838.54
                             1903.69  1916.17  1943.60  1971.80  1989.25
                             1993.30  2076.39  2123.32  2168.27  2169.54
                             2201.96  2222.14  2256.60  2356.77  2370.02
                             2393.75  2434.80  2439.30  4387.89  4461.93
                             4509.25  4560.74  4571.79  4572.93  4596.75
                             4610.33  4623.43  5113.12  5255.78  5307.84
                             5407.30

 Zero-point correction=                           0.234924 (Hartree/Particle)
 Thermal correction to Energy=                    0.249299
 Thermal correction to Enthalpy=                  0.250244
 Thermal correction to Gibbs Free Energy=         0.194193
 Sum of electronic and zero-point Energies=           -708.234691
 Sum of electronic and thermal Energies=              -708.220316
 Sum of electronic and thermal Enthalpies=            -708.219372
 Sum of electronic and thermal Free Energies=         -708.275422

                     E (Thermal)             CV                S
                      KCal/Mol        Cal/Mol-Kelvin    Cal/Mol-Kelvin
 Total                  156.438             57.204            117.968
 Electronic               0.000              0.000              0.000
 Translational            0.889              2.981             42.001
 Rotational               0.889              2.981             32.599
 Vibrational            154.660             51.243             43.367
 Vibration     1          0.595              1.978              4.884
 Vibration     2          0.597              1.972              4.341
 Vibration     3          0.601              1.959              3.747
 Vibration     4          0.610              1.928              3.013
 Vibration     5          0.617              1.906              2.712
 Vibration     6          0.639              1.836              2.108
 Vibration     7          0.650              1.800              1.905
 Vibration     8          0.661              1.768              1.753
 Vibration     9          0.678              1.717              1.555
 Vibration    10          0.683              1.702              1.506
 Vibration    11          0.692              1.675              1.420
 Vibration    12          0.699              1.654              1.360
 Vibration    13          0.716              1.608              1.241
 Vibration    14          0.740              1.539              1.089
 Vibration    15          0.759              1.487              0.992
 Vibration    16          0.790              1.409              0.865
 Vibration    17          0.806              1.368              0.805
 Vibration    18          0.832              1.306              0.724
 Vibration    19          0.842              1.282              0.695
 Vibration    20          0.854              1.253              0.662
 Vibration    21          0.894              1.164              0.568
 Vibration    22          0.918              1.114              0.520
 Vibration    23          0.948              1.052              0.467
 Vibration    24          0.972              1.005              0.428

                           ! Non-Optimized Parameters !
 Normal termination of Gaussian 16 at Fri Dec 11 01:13:46 2020.

 ----------------------------------------------------------------------
 # B3LYP/6-311++G(d,p) empiricaldispersion=gd3bj scf=xqc pop=npa geom=c
 heck
 ----------------------------------------------------------------------

 ---------------------------------------
 CID_153853690_JID_6904_Energie_neutraal
 ---------------------------------------
 Structure from the checkpoint file:  "JID_6904.chk"
 Charge =  0 Multiplicity = 1

 SCF Done:  E(RB3LYP) =  -708.680316563     A.U. after   15 cycles
 Normal termination of Gaussian 16 at Fri Dec 11 01:18:06 2020.

 ----------------------------------------------------------------------
 # B3LYP/6-311++G(d,p) empiricaldispersion=gd3bj scf=xqc pop=npa geom=c
 heck
 ----------------------------------------------------------------------

 -------------------------------------
 CID_153853690_JID_6904_Energie_kation
 -------------------------------------
 Structure from the checkpoint file:  "JID_6904.chk"
 Charge =  1 Multiplicity = 2

 SCF Done:  E(UB3LYP) =  -708.416385051     A.U. after   25 cycles
 Normal termination of Gaussian 16 at Fri Dec 11 01:28:22 2020.
 Gaussian 16:  ES64L-G16RevA.03 25-Dec-2016

 ----------------------------------------------------------------------
 # B3LYP/6-311++G(d,p) empiricaldispersion=gd3bj scf=xqc pop=npa geom=c
 heck
 ----------------------------------------------------------------------

 ------------------------------------
 CID_153853690_JID_6904_Energie_anion
 ------------------------------------
 Structure from the checkpoint file:  "JID_6904.chk"
 Charge = -1 Multiplicity = 2

                         Standard orientation:
 ---------------------------------------------------------------------
 Center     Atomic      Atomic             Coordinates (Angstroms)
 Number     Number       Type             X           Y           Z
 ---------------------------------------------------------------------
      1          6           0       -4.629907    0.608425    0.075676
      2          6           0       -3.142940    0.385457    0.011744
      3          6           0       -2.258931    1.397373   -0.352479
      4          6           0       -0.877767    1.189493   -0.404152
      5          6           0       -0.342625   -0.069597   -0.081187
      6          6           0       -1.236130   -1.094847    0.269873
      7          6           0       -2.607413   -0.876679    0.321657
      8          8           0       -3.501300   -1.859738    0.679520
      9          6           0        1.116008   -0.332837   -0.134279
     10          6           0        2.022776    0.550414    0.473006
     11          6           0        3.406856    0.316273    0.433756
     12          6           0        3.881014   -0.828194   -0.227239
     13          6           0        2.983490   -1.708810   -0.824325
     14          6           0        1.610622   -1.471965   -0.788242
     15          7           0        4.294734    1.231080    1.000876
     16          8           0       -0.106284    2.251938   -0.798318
     17          1           0       -4.883717    1.636327   -0.198522
     18          1           0       -5.161370   -0.072852   -0.599136
     19          1           0       -5.016034    0.412136    1.082925
     20          1           0       -2.637139    2.380430   -0.616247
     21          1           0       -0.831636   -2.070428    0.532149
     22          1           0       -3.006206   -2.671012    0.869251
     23          1           0        1.646633    1.407667    1.026604
     24          1           0        4.950358   -1.019431   -0.270481
     25          1           0        3.364501   -2.589864   -1.333767
     26          1           0        0.919708   -2.148720   -1.280103
     27          1           0        5.191673    0.846321    1.269307
     28          1           0        3.903311    1.808796    1.734340
     29          1           0        0.807133    1.938433   -0.914932
 ---------------------------------------------------------------------

 SCF Done:  E(UB3LYP) =  -708.672062867     A.U. after   33 cycles
 SCF Done:  E(UB3LYP) =  -708.672062941     a.u. after    2 cycles

 The electronic state is 2-A.
 Alpha  occ. eigenvalues --  -19.05184 -19.04723 -14.21422 -10.12734 -10.12610
 Alpha  occ. eigenvalues --  -10.11332 -10.08206 -10.07919 -10.07889 -10.07589
 Alpha  occ. eigenvalues --  -10.07285 -10.07023 -10.06880 -10.06616 -10.06204
 Alpha  occ. eigenvalues --  -10.06166  -0.96030  -0.95777  -0.81848  -0.75991
 Alpha  occ. eigenvalues --   -0.73814  -0.68701  -0.64642  -0.63620  -0.62658
 Alpha  occ. eigenvalues --   -0.58723  -0.53188  -0.51854  -0.50832  -0.48686
 Alpha  occ. eigenvalues --   -0.44529  -0.42732  -0.41854  -0.39903  -0.39256
 Alpha  occ. eigenvalues --   -0.37737  -0.34298  -0.34031  -0.33194  -0.33138
 Alpha  occ. eigenvalues --   -0.32277  -0.31600  -0.30768  -0.29955  -0.28787
 Alpha  occ. eigenvalues --   -0.28583  -0.28096  -0.27012  -0.25984  -0.25671
 Alpha  occ. eigenvalues --   -0.23316  -0.21827  -0.20594  -0.16797  -0.13994
 Alpha  occ. eigenvalues --   -0.11177  -0.10227   0.04140
 Alpha virt. eigenvalues --    0.05650   0.06293   0.07197   0.07744   0.08596
 Alpha virt. eigenvalues --    0.08917   0.09582   0.09842   0.10344   0.10651
 Alpha virt. eigenvalues --    0.11196   0.11596   0.12270   0.12504   0.12852

  Beta  occ. eigenvalues --  -19.05151 -19.04720 -14.21358 -10.12728 -10.12629
  Beta  occ. eigenvalues --  -10.11333 -10.08145 -10.07857 -10.07848 -10.07589
  Beta  occ. eigenvalues --  -10.07272 -10.06962 -10.06870 -10.06575 -10.06151
  Beta  occ. eigenvalues --  -10.06123  -0.95966  -0.95765  -0.81763  -0.75896
  Beta  occ. eigenvalues --   -0.73719  -0.68587  -0.64537  -0.63549  -0.62552
  Beta  occ. eigenvalues --   -0.58659  -0.53080  -0.51770  -0.50784  -0.48586
  Beta  occ. eigenvalues --   -0.44461  -0.42667  -0.41797  -0.39815  -0.39193
  Beta  occ. eigenvalues --   -0.37640  -0.34230  -0.33934  -0.33127  -0.33082
  Beta  occ. eigenvalues --   -0.32226  -0.31543  -0.30727  -0.29903  -0.28759
  Beta  occ. eigenvalues --   -0.28451  -0.28056  -0.26956  -0.25926  -0.25612
  Beta  occ. eigenvalues --   -0.23254  -0.21689  -0.20466  -0.16486  -0.13702
  Beta  occ. eigenvalues --   -0.10985  -0.10040
  Beta virt. eigenvalues --    0.06514   0.06929   0.07145   0.07494   0.08188
  Beta virt. eigenvalues --    0.08949   0.09168   0.09697   0.09979   0.10606
  Beta virt. eigenvalues --    0.10828   0.11260   0.11831   0.12175   0.12835

 Mulliken charges and spin densities:
               1          2
     1  C   -0.071315  -0.335782
     2  C    2.613917  -1.465529
     3  C   -0.406594  -0.254359
     4  C   -1.960441   0.680180
     5  C    1.794867  -0.226833
     6  C   -0.790886   0.341162
     7  C   -1.066799   0.202031
     8  O   -0.258566   0.017154
     9  C    1.684391  -0.447599
    10  C   -0.849356   0.139224
    11  C   -0.433856   0.029693
    12  C    0.723259  -0.567895
    13  C    0.053676  -0.530327
    14  C   -0.884519   0.365799
    15  N   -0.238671  -0.061120
    16  O   -0.279966   0.001668
    17  H    0.112681   0.020200
    18  H    0.081378   0.090027
    19  H    0.139387   0.026114
    20  H    0.100412   0.037599
    21  H   -0.081155   0.213645
    22  H   -0.299453   0.572395
    23  H    0.119083   0.073417
    24  H   -0.353607   0.497705
    25  H   -0.046028   0.195856
    26  H   -0.085806   0.254193
    27  H   -0.420838   0.683341
    28  H   -0.159256   0.398716
    29  H    0.264060   0.049324
 Sum of Mulliken charges =  -1.00000   1.00000

 Dipole moment (field-independent basis, Debye):
    X=             -5.9447    Y=              1.4422    Z=             -1.8574  Tot=              6.3930
 Quadrupole moment (field-independent basis, Debye-Ang):
   XX=           -191.7516   YY=           -130.3293   ZZ=           -118.6150
   XY=            -14.7390   XZ=            -10.6222   YZ=              0.3962

 Summary of Natural Population Analysis:

                                       Natural Population
                Natural  -----------------------------------------------
    Atom  No    Charge         Core      Valence    Rydberg      Total
 -----------------------------------------------------------------------
      C    1   -0.29157      0.99964     2.28686    0.00507     3.29157
      C    2   -0.02368      0.99949     2.01480    0.00940     3.02368
      C    3   -0.11724      0.99949     2.10972    0.00803     3.11724
      C    4    0.15634      0.99934     1.83254    0.01178     2.84366
      C    5   -0.04881      0.99946     2.03915    0.01020     3.04881
      C    6   -0.11234      0.99950     2.10381    0.00904     3.11234
      C    7    0.14354      0.99932     1.84471    0.01243     2.85646
      O    8   -0.34781      0.99988     3.34118    0.00676     4.34781
      C    9   -0.01162      0.99950     2.00207    0.01005     3.01162
      C   10   -0.13624      0.99949     2.12713    0.00963     3.13624
      C   11    0.08954      0.99949     1.89930    0.01168     2.91046
      C   12   -0.11569      0.99952     2.10595    0.01022     3.11569
      C   13   -0.08767      0.99957     2.07904    0.00906     3.08767
      C   14   -0.11872      0.99952     2.10981    0.00938     3.11872
      N   15   -0.39489      0.99971     2.88453    0.01065     3.89489
      O   16   -0.34957      0.99988     3.34355    0.00615     4.34957
      H   17    0.09681      0.00000     0.40243    0.00076     0.40319
      H   18    0.10593      0.00000     0.39284    0.00122     0.39407
      H   19    0.10490      0.00000     0.39397    0.00113     0.39510
      H   20    0.09968      0.00000     0.39893    0.00139     0.40032
      H   21    0.10224      0.00000     0.39664    0.00112     0.39776
      H   22    0.23642      0.00000     0.25714    0.00644     0.26358
      H   23    0.10147      0.00000     0.39683    0.00169     0.39853
      H   24    0.10059      0.00000     0.39826    0.00115     0.39941
      H   25    0.09784      0.00000     0.40134    0.00082     0.40216
      H   26    0.10184      0.00000     0.39679    0.00137     0.39816
      H   27    0.19103      0.00000     0.29908    0.00989     0.30897
      H   28    0.18528      0.00000     0.31229    0.00243     0.31472
      H   29    0.24240      0.00000     0.25475    0.00285     0.25760
 =======================================================================
   * Total *   -0.00000     15.99280    40.82544    0.18176    57.00000

 Normal termination of Gaussian 16 at Fri Dec 11 01:53:34 2020.
