 Gaussian 16, Revision A.03,

 -----------------------------------------------------------
 # opt freq B3LYP/6-31G(d) empiricaldispersion=gd3bj scf=xqc
 -----------------------------------------------------------

 ------------------------------
 CID_61901566_JID_5793_neutraal
 ------------------------------
 Symbolic Z-matrix:
 Charge =  0 Multiplicity = 1

 SCF Done:  E(RB3LYP) =  -1031.43806288     A.U. after   15 cycles
 SCF Done:  E(RB3LYP) =  -1031.44093253     A.U. after   14 cycles
 SCF Done:  E(RB3LYP) =  -1031.43593470     A.U. after   15 cycles
 SCF Done:  E(RB3LYP) =  -1031.44399327     A.U. after   13 cycles
 SCF Done:  E(RB3LYP) =  -1031.44374302     A.U. after   13 cycles
 SCF Done:  E(RB3LYP) =  -1031.44580584     A.U. after   13 cycles
 SCF Done:  E(RB3LYP) =  -1031.44686069     A.U. after   14 cycles
 SCF Done:  E(RB3LYP) =  -1031.44750422     A.U. after   13 cycles
 SCF Done:  E(RB3LYP) =  -1031.44793646     A.U. after   13 cycles
 SCF Done:  E(RB3LYP) =  -1031.44836734     A.U. after   12 cycles
 SCF Done:  E(RB3LYP) =  -1031.44874232     A.U. after    9 cycles
 SCF Done:  E(RB3LYP) =  -1031.44874264     A.U. after    8 cycles
 SCF Done:  E(RB3LYP) =  -1031.44874279     A.U. after    8 cycles
 SCF Done:  E(RB3LYP) =  -1031.44874290     A.U. after    8 cycles
 SCF Done:  E(RB3LYP) =  -1031.44874296     A.U. after    7 cycles
 Optimization completed.
    -- Stationary point found.
 Normal termination of Gaussian 16 at Thu Dec 10 17:15:51 2020.

 --------------------------------------------------------------------
 #N Geom=AllCheck Guess=TCheck SCRF=Check GenChk RB3LYP/6-31G(d) Freq
 --------------------------------------------------------------------

 Structure from the checkpoint file:  "JID_5793.chk"
 ------------------------------
 CID_61901566_JID_5793_neutraal
 ------------------------------
 Charge =  0 Multiplicity = 1

 SCF Done:  E(RB3LYP) =  -1031.44874296     A.U. after    1 cycles

  Exact polarizability: 149.595   3.584 146.106   7.325  13.612 138.078
 Approx polarizability: 193.320  10.735 224.518  16.611  44.693 221.257

                      1                      2                      3
                      A                      A                      A
 Frequencies --     31.9338                43.3314                49.8570
 Red. masses --      5.3290                 4.2667                 4.0936
 Frc consts  --      0.0032                 0.0047                 0.0060
 IR Inten    --      8.1619                 1.8861                 0.9784

                      4                      5                      6
                      A                      A                      A
 Frequencies --     59.5564                72.2497                75.7804
 Red. masses --      3.5748                 5.4287                 3.0756
 Frc consts  --      0.0075                 0.0167                 0.0104
 IR Inten    --      2.9390                 0.7523                 0.1442

                      7                      8                      9
                      A                      A                      A
 Frequencies --    103.9243               112.9430               148.1187
 Red. masses --      2.3800                 2.9005                 4.0367
 Frc consts  --      0.0151                 0.0218                 0.0522
 IR Inten    --      0.4556                 0.9648                 2.8077

                     10                     11                     12
                      A                      A                      A
 Frequencies --    168.2045               186.0737               221.9991
 Red. masses --      2.0823                 3.0929                 1.3213
 Frc consts  --      0.0347                 0.0631                 0.0384
 IR Inten    --      0.4932                 0.2091                 0.2329

                     13                     14                     15
                      A                      A                      A
 Frequencies --    243.9189               264.2323               287.6741
 Red. masses --      1.3993                 2.6977                 2.2854
 Frc consts  --      0.0491                 0.1110                 0.1114
 IR Inten    --      0.0979                 3.4616                 0.8333

                     16                     17                     18
                      A                      A                      A
 Frequencies --    315.3379               336.0013               346.1483
 Red. masses --      1.2364                 2.5037                 1.2524
 Frc consts  --      0.0724                 0.1665                 0.0884
 IR Inten    --      0.1109                 0.7004               165.2814

                     19                     20                     21
                      A                      A                      A
 Frequencies --    347.8583               355.1098               385.3746
 Red. masses --      2.4409                 2.3940                 2.6710
 Frc consts  --      0.1740                 0.1779                 0.2337
 IR Inten    --     19.2122                 1.7416                 1.3609

                     22                     23                     24
                      A                      A                      A
 Frequencies --    392.9424               452.3636               466.0845
 Red. masses --      2.6207                 3.6423                 2.5713
 Frc consts  --      0.2384                 0.4391                 0.3291
 IR Inten    --      4.4688                 4.2610                 0.9038

                     25                     26                     27
                      A                      A                      A
 Frequencies --    497.7909               524.1358               602.4307
 Red. masses --      3.4628                 3.2679                 3.1365
 Frc consts  --      0.5056                 0.5289                 0.6707
 IR Inten    --      0.6252                 9.7651                12.3951

                     28                     29                     30
                      A                      A                      A
 Frequencies --    634.7132               643.3467               646.6165
 Red. masses --      1.5654                 1.2165                 2.3509
 Frc consts  --      0.3716                 0.2967                 0.5791
 IR Inten    --     31.9416                20.2922                27.3651

                     31                     32                     33
                      A                      A                      A
 Frequencies --    740.5790               750.9520               754.6866
 Red. masses --      1.8585                 3.7791                 3.5639
 Frc consts  --      0.6005                 1.2556                 1.1959
 IR Inten    --      6.4083                30.3924                35.6485

                     34                     35                     36
                      A                      A                      A
 Frequencies --    794.5930               821.5844               836.5556
 Red. masses --      1.3598                 1.5342                 2.4566
 Frc consts  --      0.5059                 0.6102                 1.0129
 IR Inten    --      0.6324                10.9562                10.4876

                     37                     38                     39
                      A                      A                      A
 Frequencies --    883.2201               906.5409               940.5654
 Red. masses --      2.7832                 1.3492                 1.9267
 Frc consts  --      1.2792                 0.6533                 1.0042
 IR Inten    --      9.3280                 7.3067                10.4333

                     40                     41                     42
                      A                      A                      A
 Frequencies --    991.8468              1016.2930              1018.8009
 Red. masses --      1.8929                 1.7995                 1.6272
 Frc consts  --      1.0972                 1.0950                 0.9951
 IR Inten    --      2.6275                 2.9521                17.0246

                     43                     44                     45
                      A                      A                      A
 Frequencies --   1042.6477              1066.5202              1097.8022
 Red. masses --      2.2275                 2.0199                 2.4434
 Frc consts  --      1.4267                 1.3537                 1.7350
 IR Inten    --     24.6974                 3.2138                10.3186

                     46                     47                     48
                      A                      A                      A
 Frequencies --   1113.9849              1127.3205              1130.0195
 Red. masses --      2.3488                 1.8839                 1.9131
 Frc consts  --      1.7173                 1.4106                 1.4393
 IR Inten    --      6.1616                24.3599                18.5842

                     49                     50                     51
                      A                      A                      A
 Frequencies --   1147.0333              1175.4775              1209.9598
 Red. masses --      1.8041                 2.4890                 2.5551
 Frc consts  --      1.3985                 2.0263                 2.2040
 IR Inten    --      5.9069                 4.7586                35.5369

                     52                     53                     54
                      A                      A                      A
 Frequencies --   1244.9012              1291.8191              1305.7577
 Red. masses --      2.5703                 1.3163                 1.3751
 Frc consts  --      2.3469                 1.2942                 1.3813
 IR Inten    --     46.1059                19.7573                44.7480

                     55                     56                     57
                      A                      A                      A
 Frequencies --   1322.8464              1331.5097              1345.3376
 Red. masses --      1.2442                 2.3339                 1.2978
 Frc consts  --      1.2828                 2.4380                 1.3839
 IR Inten    --     15.6069                35.4242                28.7410

                     58                     59                     60
                      A                      A                      A
 Frequencies --   1364.6431              1377.9393              1384.7438
 Red. masses --      1.3756                 1.4241                 1.6312
 Frc consts  --      1.5093                 1.5931                 1.8429
 IR Inten    --     15.8606                71.9779                12.4107

                     61                     62                     63
                      A                      A                      A
 Frequencies --   1397.2409              1404.8528              1420.4807
 Red. masses --      1.5534                 1.5679                 1.2750
 Frc consts  --      1.7869                 1.8232                 1.5158
 IR Inten    --      2.4988                66.7919                 8.0339

                     64                     65                     66
                      A                      A                      A
 Frequencies --   1428.6235              1439.9750              1443.7414
 Red. masses --      1.3493                 1.2832                 1.3192
 Frc consts  --      1.6225                 1.5677                 1.6201
 IR Inten    --     13.5137                16.8115                16.9243

                     67                     68                     69
                      A                      A                      A
 Frequencies --   1448.9183              1461.2086              1500.8334
 Red. masses --      1.4150                 1.6232                 1.1060
 Frc consts  --      1.7502                 2.0419                 1.4678
 IR Inten    --     10.2841                68.0838                 2.2714

                     70                     71                     72
                      A                      A                      A
 Frequencies --   1506.7183              1514.0139              1518.1676
 Red. masses --      1.2408                 1.3720                 1.0723
 Frc consts  --      1.6597                 1.8529                 1.4561
 IR Inten    --     10.3325                21.4439                 4.6177

                     73                     74                     75
                      A                      A                      A
 Frequencies --   1518.8101              1523.5862              1532.4959
 Red. masses --      1.0861                 1.0801                 1.0566
 Frc consts  --      1.4761                 1.4773                 1.4620
 IR Inten    --      6.2976                 2.5821                 2.9870

                     76                     77                     78
                      A                      A                      A
 Frequencies --   1536.2441              1541.2842              1543.1753
 Red. masses --      1.0724                 1.0602                 1.0723
 Frc consts  --      1.4911                 1.4838                 1.5046
 IR Inten    --      7.7686                 6.0298                20.9382

                     79                     80                     81
                      A                      A                      A
 Frequencies --   1546.1337              1661.2513              1771.5726
 Red. masses --      1.0588                 1.2767                 7.2678
 Frc consts  --      1.4912                 2.0760                13.4392
 IR Inten    --      7.9622               197.8853               328.9143

                     82                     83                     84
                      A                      A                      A
 Frequencies --   2898.0068              2965.4285              2987.1560
 Red. masses --      1.0736                 1.0827                 1.0719
 Frc consts  --      5.3124                 5.6095                 5.6354
 IR Inten    --     87.4406                44.7137                61.4967

                     85                     86                     87
                      A                      A                      A
 Frequencies --   3042.0990              3043.6303              3053.5154
 Red. masses --      1.0572                 1.0401                 1.0760
 Frc consts  --      5.7642                 5.6768                 5.9110
 IR Inten    --     11.0225                36.5187                17.7379

                     88                     89                     90
                      A                      A                      A
 Frequencies --   3059.7599              3073.2661              3079.4658
 Red. masses --      1.0408                 1.0366                 1.0983
 Frc consts  --      5.7409                 5.7685                 6.1367
 IR Inten    --     28.9150                14.2696                23.4363

                     91                     92                     93
                      A                      A                      A
 Frequencies --   3082.1420              3093.0184              3109.7599
 Red. masses --      1.0904                 1.0837                 1.1027
 Frc consts  --      6.1030                 6.1082                 6.2828
 IR Inten    --     23.6409                 6.0174                61.2084

                     94                     95                     96
                      A                      A                      A
 Frequencies --   3117.6164              3131.5547              3140.0254
 Red. masses --      1.1009                 1.0960                 1.1021
 Frc consts  --      6.3046                 6.3326                 6.4022
 IR Inten    --     36.8202                37.5062                14.6082

                     97                     98                     99
                      A                      A                      A
 Frequencies --   3155.4152              3158.1208              3177.0076
 Red. masses --      1.1031                 1.1020                 1.0921
 Frc consts  --      6.4711                 6.4759                 6.4947
 IR Inten    --     24.2649                12.6756                11.3784

                    100                    101                    102
                      A                      A                      A
 Frequencies --   3561.8430              3579.2801              3689.5000
 Red. masses --      1.0449                 1.0748                 1.1047
 Frc consts  --      7.8105                 8.1125                 8.8599
 IR Inten    --     48.1340                13.4302                37.9635

 - Thermochemistry -
 -------------------
 Temperature   298.150 Kelvin.  Pressure   1.00000 Atm.
 Atom     1 has atomic number  6 and mass  12.00000

 Molecular mass:   231.14053 amu.
 Principal axes and moments of inertia in atomic units:
                           1         2         3
     Eigenvalues --  2911.789855110.306835577.21408
           X            0.99834   0.05550   0.01556
           Y           -0.05352   0.99280  -0.10719
           Z           -0.02139   0.10618   0.99412
 This molecule is an asymmetric top.
 Rotational symmetry number  1.
 Warning -- assumption of classical behavior for rotation
           may cause significant error
 Rotational temperatures (Kelvin)      0.02975     0.01695     0.01553
 Rotational constants (GHZ):           0.61980     0.35316     0.32359
 Zero-point vibrational energy     833853.8 (Joules/Mol)
                                  199.29585 (Kcal/Mol)
 Warning -- explicit consideration of  27 degrees of freedom as
           vibrations may cause significant error
 Vibrational temperatures:     45.95    62.34    71.73    85.69   103.95
          (Kelvin)            109.03   149.52   162.50   213.11   242.01
                              267.72   319.41   350.94   380.17   413.90
                              453.70   483.43   498.03   500.49   510.92
                              554.47   565.36   650.85   670.59   716.21
                              754.11   866.76   913.21   925.63   930.34
                             1065.53  1080.45  1085.83  1143.24  1182.08
                             1203.62  1270.76  1304.31  1353.26  1427.05
                             1462.22  1465.83  1500.14  1534.48  1579.49
                             1602.78  1621.96  1625.85  1650.33  1691.25
                             1740.86  1791.14  1858.64  1878.69  1903.28
                             1915.75  1935.64  1963.42  1982.55  1992.34
                             2010.32  2021.27  2043.75  2055.47  2071.80
                             2077.22  2084.67  2102.35  2159.36  2167.83
                             2178.33  2184.30  2185.23  2192.10  2204.92
                             2210.31  2217.56  2220.29  2224.54  2390.17
                             2548.90  4169.59  4266.59  4297.85  4376.90
                             4379.11  4393.33  4402.31  4421.74  4430.66
                             4434.51  4450.16  4474.25  4485.55  4505.61
                             4517.80  4539.94  4543.83  4571.01  5124.70
                             5149.79  5308.37

 Zero-point correction=                           0.317598 (Hartree/Particle)
 Thermal correction to Energy=                    0.335772
 Thermal correction to Enthalpy=                  0.336717
 Thermal correction to Gibbs Free Energy=         0.270424
 Sum of electronic and zero-point Energies=          -1031.131145
 Sum of electronic and thermal Energies=             -1031.112971
 Sum of electronic and thermal Enthalpies=           -1031.112026
 Sum of electronic and thermal Free Energies=        -1031.178319

                     E (Thermal)             CV                S
                      KCal/Mol        Cal/Mol-Kelvin    Cal/Mol-Kelvin
 Total                  210.700             66.136            139.525
 Electronic               0.000              0.000              0.000
 Translational            0.889              2.981             42.215
 Rotational               0.889              2.981             32.784
 Vibrational            208.923             60.174             64.525
 Vibration     1          0.594              1.983              5.706
 Vibration     2          0.595              1.980              5.101
 Vibration     3          0.595              1.978              4.823
 Vibration     4          0.597              1.974              4.472
 Vibration     5          0.598              1.967              4.091
 Vibration     6          0.599              1.965              3.997
 Vibration     7          0.605              1.946              3.379
 Vibration     8          0.607              1.939              3.218
 Vibration     9          0.617              1.905              2.696
 Vibration    10          0.625              1.882              2.455
 Vibration    11          0.632              1.859              2.267
 Vibration    12          0.648              1.808              1.943
 Vibration    13          0.659              1.773              1.774
 Vibration    14          0.671              1.739              1.634
 Vibration    15          0.685              1.697              1.488
 Vibration    16          0.703              1.644              1.334
 Vibration    17          0.717              1.604              1.231
 Vibration    18          0.724              1.583              1.184
 Vibration    19          0.725              1.580              1.176
 Vibration    20          0.731              1.565              1.143
 Vibration    21          0.754              1.501              1.018
 Vibration    22          0.760              1.485              0.989
 Vibration    23          0.811              1.356              0.789
 Vibration    24          0.823              1.325              0.749
 Vibration    25          0.853              1.255              0.664
 Vibration    26          0.879              1.197              0.600
 Vibration    27          0.961              1.027              0.445

 Optimization completed.
    -- Stationary point found.
 Normal termination of Gaussian 16 at Thu Dec 10 17:30:11 2020.

 ----------------------------------------------------------------------
 # B3LYP/6-311++G(d,p) empiricaldispersion=gd3bj scf=xqc pop=npa geom=c
 heck
 ----------------------------------------------------------------------

 --------------------------------------
 CID_61901566_JID_5793_Energie_neutraal
 --------------------------------------
 Structure from the checkpoint file:  "JID_5793.chk"
 Charge =  0 Multiplicity = 1

 SCF Done:  E(RB3LYP) =  -1031.66707900     A.U. after   15 cycles
 Normal termination of Gaussian 16 at Thu Dec 10 17:36:42 2020.

 ----------------------------------------------------------------------
 # B3LYP/6-311++G(d,p) empiricaldispersion=gd3bj scf=xqc pop=npa geom=c
 heck
 ----------------------------------------------------------------------

 ------------------------------------
 CID_61901566_JID_5793_Energie_kation
 ------------------------------------
 Structure from the checkpoint file:  "JID_5793.chk"
 Charge =  1 Multiplicity = 2

 SCF Done:  E(UB3LYP) =  -1031.37927401     A.U. after   28 cycles
 Normal termination of Gaussian 16 at Thu Dec 10 17:53:01 2020.
 Gaussian 16:  ES64L-G16RevA.03 25-Dec-2016

 ----------------------------------------------------------------------
 # B3LYP/6-311++G(d,p) empiricaldispersion=gd3bj scf=xqc pop=npa geom=c
 heck
 ----------------------------------------------------------------------

 -----------------------------------
 CID_61901566_JID_5793_Energie_anion
 -----------------------------------
 Structure from the checkpoint file:  "JID_5793.chk"
 Charge = -1 Multiplicity = 2

                         Standard orientation:
 ---------------------------------------------------------------------
 Center     Atomic      Atomic             Coordinates (Angstroms)
 Number     Number       Type             X           Y           Z
 ---------------------------------------------------------------------
      1          6           0        4.078331    1.851196    0.316768
      2          6           0        2.885597    1.232595    1.050611
      3          6           0        1.610740    1.156303    0.201110
      4          7           0        1.767344    0.339055   -1.001417
      5          6           0        1.343895   -0.927789   -1.282627
      6          8           0        1.702748   -1.499947   -2.308816
      7          6           0        0.420410   -1.668307   -0.295412
      8          6           0        1.269440   -2.211460    0.861998
      9          7           0       -0.720478   -0.853917    0.147175
     10          6           0       -1.592400   -1.526037    1.130017
     11          6           0       -1.308743   -1.110489    2.572390
     12          6           0       -1.472993   -0.359807   -0.988904
     13          6           0       -2.437801    0.771895   -0.648140
     14         16           0       -2.130419    1.974181    0.454478
     15          7           0       -3.565079    0.740550   -1.382969
     16          1           0        4.374630    1.245326   -0.547635
     17          1           0        4.951594    1.929259    0.973002
     18          1           0        3.839983    2.859895   -0.043447
     19          1           0        3.150781    0.226209    1.398899
     20          1           0        2.654166    1.826387    1.944775
     21          1           0        0.769409    0.760458    0.767103
     22          1           0        1.318533    2.165708   -0.114360
     23          1           0        2.398112    0.684534   -1.715652
     24          1           0        0.072512   -2.536045   -0.882811
     25          1           0        1.628444   -1.409730    1.511504
     26          1           0        0.706528   -2.924128    1.470346
     27          1           0        2.133817   -2.738360    0.446569
     28          1           0       -2.628113   -1.255604    0.899343
     29          1           0       -1.533261   -2.621065    1.013174
     30          1           0       -1.430565   -0.028331    2.668329
     31          1           0       -2.009702   -1.607999    3.253400
     32          1           0       -0.294166   -1.370074    2.884398
     33          1           0       -0.776069    0.052052   -1.726707
     34          1           0       -2.030460   -1.169681   -1.504439
     35          1           0       -3.748796    0.001783   -2.049024
     36          1           0       -4.234029    1.493659   -1.294286
 ---------------------------------------------------------------------

 SCF Done:  E(UB3LYP) =  -1031.66273819     A.U. after   33 cycles
 SCF Done:  E(UB3LYP) =  -1031.66273819     a.u. after    1 cycles

 The electronic state is 2-A.
 Alpha  occ. eigenvalues --  -88.65668 -18.98533 -14.23510 -14.21671 -14.20558
 Alpha  occ. eigenvalues --  -10.16999 -10.11296 -10.10669 -10.09700 -10.09347
 Alpha  occ. eigenvalues --  -10.09178 -10.07831 -10.07826 -10.07308 -10.05602
 Alpha  occ. eigenvalues --   -7.74443  -5.70791  -5.70345  -5.69992  -0.93718
 Alpha  occ. eigenvalues --   -0.83649  -0.81952  -0.81076  -0.68852  -0.67780
 Alpha  occ. eigenvalues --   -0.65624  -0.61425  -0.59698  -0.56323  -0.55504
 Alpha  occ. eigenvalues --   -0.51433  -0.49651  -0.47243  -0.45209  -0.41764
 Alpha  occ. eigenvalues --   -0.40708  -0.39774  -0.36578  -0.36145  -0.35769
 Alpha  occ. eigenvalues --   -0.34634  -0.34448  -0.33958  -0.32771  -0.31612
 Alpha  occ. eigenvalues --   -0.30997  -0.30681  -0.28846  -0.27659  -0.27025
 Alpha  occ. eigenvalues --   -0.26817  -0.26403  -0.25716  -0.25214  -0.24939
 Alpha  occ. eigenvalues --   -0.23887  -0.22708  -0.22536  -0.15773  -0.15306
 Alpha  occ. eigenvalues --   -0.12119  -0.10526  -0.08088   0.04422
 Alpha virt. eigenvalues --    0.05777   0.07112   0.07439   0.08434   0.08700
 Alpha virt. eigenvalues --    0.09366   0.09589   0.10254   0.10726   0.11214
 Alpha virt. eigenvalues --    0.11653   0.12010   0.12617   0.12781   0.13139

  Beta  occ. eigenvalues --  -88.65651 -18.98510 -14.23503 -14.21545 -14.20524
  Beta  occ. eigenvalues --  -10.16977 -10.11295 -10.10150 -10.09697 -10.09345
  Beta  occ. eigenvalues --  -10.09203 -10.07827 -10.07826 -10.07280 -10.05596
  Beta  occ. eigenvalues --   -7.74428  -5.70800  -5.70276  -5.69977  -0.93676
  Beta  occ. eigenvalues --   -0.83503  -0.81830  -0.80788  -0.68828  -0.67733
  Beta  occ. eigenvalues --   -0.65533  -0.60975  -0.59661  -0.56217  -0.55466
  Beta  occ. eigenvalues --   -0.51393  -0.49571  -0.47166  -0.44933  -0.41603
  Beta  occ. eigenvalues --   -0.40619  -0.39735  -0.36495  -0.36062  -0.35709
  Beta  occ. eigenvalues --   -0.34585  -0.34423  -0.33826  -0.32689  -0.31453
  Beta  occ. eigenvalues --   -0.30971  -0.30620  -0.28733  -0.27558  -0.26885
  Beta  occ. eigenvalues --   -0.26642  -0.26223  -0.25663  -0.25155  -0.24914
  Beta  occ. eigenvalues --   -0.23794  -0.22274  -0.21749  -0.15721  -0.15268
  Beta  occ. eigenvalues --   -0.12019  -0.09776  -0.08016
  Beta virt. eigenvalues --    0.06310   0.07191   0.07724   0.08468   0.08762
  Beta virt. eigenvalues --    0.09296   0.09652   0.09996   0.10483   0.10996
  Beta virt. eigenvalues --    0.11452   0.11787   0.12025   0.12814   0.12899

 Mulliken charges and spin densities:
               1          2
     1  C    0.552057  -1.189363
     2  C   -1.064160   0.891120
     3  C    0.278864  -0.432915
     4  N   -0.217886  -0.002371
     5  C   -0.167098  -0.022945
     6  O   -0.300676   0.013745
     7  C    0.136277  -0.105732
     8  C   -0.572993  -0.040385
     9  N    0.349842   0.020501
    10  C   -0.187454  -0.172450
    11  C   -0.383861  -0.058156
    12  C   -0.345458  -0.203907
    13  C    0.626147  -0.398049
    14  S   -0.590974   0.082705
    15  N   -0.348272   0.204104
    16  H    0.001004   0.142854
    17  H   -0.373980   0.514475
    18  H   -0.058802   0.202135
    19  H    0.077412   0.021100
    20  H    0.100060   0.042208
    21  H    0.183883   0.042509
    22  H    0.127275   0.033078
    23  H    0.307349   0.017668
    24  H    0.190565   0.020863
    25  H    0.144660   0.005315
    26  H    0.148725   0.007680
    27  H    0.144829   0.028689
    28  H   -0.208731   0.405677
    29  H    0.086109   0.026288
    30  H    0.146525   0.015313
    31  H    0.080040   0.035949
    32  H    0.124716   0.000921
    33  H    0.248688  -0.022153
    34  H   -0.189826   0.328771
    35  H   -0.161257   0.409541
    36  H    0.116401   0.135216
 Sum of Mulliken charges =  -1.00000   1.00000

 Dipole moment (field-independent basis, Debye):
    X=              3.1893    Y=             -2.5964    Z=              2.4217  Tot=              4.7726
 Quadrupole moment (field-independent basis, Debye-Ang):
   XX=           -176.0808   YY=           -137.6043   ZZ=           -131.2713
   XY=             -2.1481   XZ=              0.1332   YZ=            -13.5959

 Summary of Natural Population Analysis:

                                       Natural Population
                Natural  -----------------------------------------------
    Atom  No    Charge         Core      Valence    Rydberg      Total
 -----------------------------------------------------------------------
      C    1   -0.29004      0.99967     2.28525    0.00512     3.29004
      C    2   -0.19529      0.99964     2.18799    0.00766     3.19529
      C    3   -0.10224      0.99960     2.09101    0.01163     3.10224
      N    4   -0.31531      0.99965     2.80631    0.00934     3.81531
      C    5    0.34273      0.99963     1.63240    0.02525     2.65727
      O    6   -0.32948      0.99988     3.32377    0.00583     4.32948
      C    7   -0.03556      0.99955     2.02422    0.01179     3.03556
      C    8   -0.28852      0.99964     2.28401    0.00488     3.28852
      N    9   -0.28502      0.99969     2.76998    0.01536     3.78502
      C   10   -0.08614      0.99962     2.07539    0.01113     3.08614
      C   11   -0.29068      0.99965     2.28561    0.00542     3.29068
      C   12   -0.11428      0.99954     2.10085    0.01389     3.11428
      C   13    0.13146      0.99965     1.84868    0.02021     2.86854
      S   14   -0.13532      4.99951     3.12264    0.01316     8.13532
      N   15   -0.36976      0.99966     2.85729    0.01281     3.86976
      H   16    0.09539      0.00000     0.40333    0.00128     0.40461
      H   17    0.10013      0.00000     0.39882    0.00105     0.39987
      H   18    0.09649      0.00000     0.40251    0.00100     0.40351
      H   19    0.09247      0.00000     0.40642    0.00111     0.40753
      H   20    0.09732      0.00000     0.40177    0.00092     0.40268
      H   21    0.12586      0.00000     0.37222    0.00192     0.37414
      H   22    0.09800      0.00000     0.40108    0.00092     0.40200
      H   23    0.19034      0.00000     0.30754    0.00212     0.30966
      H   24    0.09363      0.00000     0.40467    0.00170     0.40637
      H   25    0.10017      0.00000     0.39866    0.00117     0.39983
      H   26    0.10055      0.00000     0.39868    0.00077     0.39945
      H   27    0.10436      0.00000     0.39492    0.00071     0.39564
      H   28    0.10373      0.00000     0.39473    0.00153     0.39627
      H   29    0.08094      0.00000     0.41783    0.00123     0.41906
      H   30    0.11422      0.00000     0.38480    0.00098     0.38578
      H   31    0.09222      0.00000     0.40706    0.00071     0.40778
      H   32    0.09138      0.00000     0.40773    0.00089     0.40862
      H   33    0.11360      0.00000     0.38535    0.00104     0.38640
      H   34    0.08540      0.00000     0.41282    0.00178     0.41460
      H   35    0.19183      0.00000     0.30407    0.00411     0.30817
      H   36    0.19544      0.00000     0.30283    0.00174     0.30456
 =======================================================================
   * Total *    0.00000     18.99458    43.80323    0.20219    63.00000

 Normal termination of Gaussian 16 at Thu Dec 10 18:11:46 2020.
