 Gaussian 16, Revision A.03,

 -----------------------------------------------------------
 # opt freq B3LYP/6-31G(d) empiricaldispersion=gd3bj scf=xqc
 -----------------------------------------------------------

 -------------------------------
 CID_132317310_JID_5914_neutraal
 -------------------------------
 Symbolic Z-matrix:
 Charge =  0 Multiplicity = 1

 SCF Done:  E(RB3LYP) =  -670.326730836     A.U. after   15 cycles
 SCF Done:  E(RB3LYP) =  -670.330720085     A.U. after   12 cycles
 SCF Done:  E(RB3LYP) =  -670.331008781     A.U. after   12 cycles
 SCF Done:  E(RB3LYP) =  -670.331759835     A.U. after   12 cycles
 SCF Done:  E(RB3LYP) =  -670.331987970     A.U. after   12 cycles
 SCF Done:  E(RB3LYP) =  -670.332073751     A.U. after   12 cycles
 SCF Done:  E(RB3LYP) =  -670.332107427     A.U. after   10 cycles
 SCF Done:  E(RB3LYP) =  -670.332130536     A.U. after   10 cycles
 SCF Done:  E(RB3LYP) =  -670.332136971     A.U. after    9 cycles
 SCF Done:  E(RB3LYP) =  -670.332141799     A.U. after    9 cycles
 SCF Done:  E(RB3LYP) =  -670.332147809     A.U. after   10 cycles
 SCF Done:  E(RB3LYP) =  -670.332150070     A.U. after    9 cycles
 SCF Done:  E(RB3LYP) =  -670.332150993     A.U. after    8 cycles
 SCF Done:  E(RB3LYP) =  -670.332151068     A.U. after    7 cycles
 Optimization completed.
    -- Stationary point found.
 Normal termination of Gaussian 16 at Thu Dec 10 17:29:35 2020.

 --------------------------------------------------------------------
 #N Geom=AllCheck Guess=TCheck SCRF=Check GenChk RB3LYP/6-31G(d) Freq
 --------------------------------------------------------------------

 Structure from the checkpoint file:  "JID_5914.chk"
 -------------------------------
 CID_132317310_JID_5914_neutraal
 -------------------------------
 Charge =  0 Multiplicity = 1

 SCF Done:  E(RB3LYP) =  -670.332151068     A.U. after    1 cycles

  Exact polarizability: 174.001   9.080 140.607  -7.268   4.260  76.618
 Approx polarizability: 244.531  18.228 234.717 -10.317  12.749 122.332

                      1                      2                      3
                      A                      A                      A
 Frequencies --     30.3034                48.0143                51.9621
 Red. masses --      4.8471                 5.2199                 4.4599
 Frc consts  --      0.0026                 0.0071                 0.0071
 IR Inten    --      1.6938                 1.7997                 0.7634

                      4                      5                      6
                      A                      A                      A
 Frequencies --     84.5191               118.5880               123.7118
 Red. masses --      4.5772                 2.5575                 3.4648
 Frc consts  --      0.0193                 0.0212                 0.0312
 IR Inten    --      0.5475                 0.8366                 1.8396

                      7                      8                      9
                      A                      A                      A
 Frequencies --    216.6258               218.5433               267.8509
 Red. masses --      5.3623                 2.8447                 3.9502
 Frc consts  --      0.1483                 0.0800                 0.1670
 IR Inten    --      1.3846                 2.6662                 4.6040

                     10                     11                     12
                      A                      A                      A
 Frequencies --    296.3275               321.0466               376.7708
 Red. masses --      4.2647                 2.8228                 2.4976
 Frc consts  --      0.2206                 0.1714                 0.2089
 IR Inten    --      3.0945                 1.7997                 3.9013

                     13                     14                     15
                      A                      A                      A
 Frequencies --    426.6066               452.2821               462.5126
 Red. masses --      2.3446                 2.5094                 3.5523
 Frc consts  --      0.2514                 0.3024                 0.4477
 IR Inten    --      6.4114                 3.6178                 5.3645

                     16                     17                     18
                      A                      A                      A
 Frequencies --    547.1581               559.4695               575.3629
 Red. masses --      4.7570                 4.0316                 3.1851
 Frc consts  --      0.8391                 0.7435                 0.6212
 IR Inten    --      7.2957                 0.5895                11.4255

                     19                     20                     21
                      A                      A                      A
 Frequencies --    596.0777               632.6844               684.8070
 Red. masses --      1.8006                 5.5348                 1.9342
 Frc consts  --      0.3769                 1.3053                 0.5344
 IR Inten    --     71.7833                 5.1379                21.3109

                     22                     23                     24
                      A                      A                      A
 Frequencies --    711.7649               742.5317               764.1453
 Red. masses --      4.7644                 3.7751                 1.3210
 Frc consts  --      1.4221                 1.2263                 0.4545
 IR Inten    --      3.4052                 1.4893                53.8096

                     25                     26                     27
                      A                      A                      A
 Frequencies --    772.7778               804.9221               832.0787
 Red. masses --      4.2053                 3.4674                 4.0907
 Frc consts  --      1.4796                 1.3236                 1.6687
 IR Inten    --     10.9629                18.7900                 2.6933

                     28                     29                     30
                      A                      A                      A
 Frequencies --    868.6587               871.3485               883.0253
 Red. masses --      1.4981                 2.8489                 2.6653
 Frc consts  --      0.6660                 1.2744                 1.2245
 IR Inten    --      5.5399                19.5080                12.3137

                     31                     32                     33
                      A                      A                      A
 Frequencies --    931.6688               950.0731               966.8708
 Red. masses --      1.3760                 2.0101                 1.3819
 Frc consts  --      0.7037                 1.0690                 0.7612
 IR Inten    --      3.3736                44.0910                24.1641

                     34                     35                     36
                      A                      A                      A
 Frequencies --    971.2748              1002.4634              1030.6892
 Red. masses --      1.2334                 4.4556                 1.1441
 Frc consts  --      0.6855                 2.6381                 0.7161
 IR Inten    --      0.0308                47.3220                21.8667

                     37                     38                     39
                      A                      A                      A
 Frequencies --   1047.6215              1049.3651              1085.9331
 Red. masses --      1.7062                 1.9852                 2.5626
 Frc consts  --      1.1033                 1.2880                 1.7805
 IR Inten    --      9.4126                 6.3958                21.5955

                     40                     41                     42
                      A                      A                      A
 Frequencies --   1113.7899              1125.8364              1165.9899
 Red. masses --      1.9097                 1.9004                 2.8411
 Frc consts  --      1.3958                 1.4192                 2.2758
 IR Inten    --      8.6296                10.6533                36.0282

                     43                     44                     45
                      A                      A                      A
 Frequencies --   1184.8923              1192.1847              1221.9425
 Red. masses --      1.3699                 1.5188                 1.3013
 Frc consts  --      1.1332                 1.2718                 1.1448
 IR Inten    --      0.9729                 8.6233                 2.4074

                     46                     47                     48
                      A                      A                      A
 Frequencies --   1252.5294              1276.7566              1287.9189
 Red. masses --      1.2662                 3.2312                 1.4183
 Frc consts  --      1.1703                 3.1034                 1.3861
 IR Inten    --     12.6469               120.7843                41.8755

                     49                     50                     51
                      A                      A                      A
 Frequencies --   1322.6059              1324.3276              1366.5782
 Red. masses --      1.4672                 1.3130                 1.3507
 Frc consts  --      1.5122                 1.3568                 1.4862
 IR Inten    --      3.8531                 0.8305                29.0264

                     52                     53                     54
                      A                      A                      A
 Frequencies --   1377.5764              1379.2688              1407.4969
 Red. masses --      1.9081                 3.7561                 1.5834
 Frc consts  --      2.1334                 4.2100                 1.8482
 IR Inten    --    142.0331                 2.2415                 0.6502

                     55                     56                     57
                      A                      A                      A
 Frequencies --   1422.4322              1474.9533              1495.9041
 Red. masses --      1.4165                 1.3024                 1.7416
 Frc consts  --      1.6886                 1.6694                 2.2962
 IR Inten    --     12.8381                32.3475                59.9309

                     58                     59                     60
                      A                      A                      A
 Frequencies --   1512.3432              1514.0419              1527.4953
 Red. masses --      1.6582                 1.4655                 2.0723
 Frc consts  --      2.2345                 1.9792                 2.8488
 IR Inten    --     23.8486                11.8701                54.2509

                     61                     62                     63
                      A                      A                      A
 Frequencies --   1544.9739              1657.5430              1670.8474
 Red. masses --      1.2631                 6.5883                 6.9924
 Frc consts  --      1.7764                10.6649                11.5013
 IR Inten    --     17.8357                12.2437                26.9392

                     64                     65                     66
                      A                      A                      A
 Frequencies --   1706.8097              1773.0414              3052.4054
 Red. masses --      4.5448                 7.3050                 1.0708
 Frc consts  --      7.8007                13.5304                 5.8782
 IR Inten    --     52.1629               400.5862                24.6413

                     67                     68                     69
                      A                      A                      A
 Frequencies --   3059.9997              3084.1995              3126.0189
 Red. masses --      1.0678                 1.0822                 1.1027
 Frc consts  --      5.8908                 6.0651                 6.3486
 IR Inten    --     32.6704                57.9157                31.5184

                     70                     71                     72
                      A                      A                      A
 Frequencies --   3148.5048              3173.8328              3182.9932
 Red. masses --      1.0950                 1.0586                 1.0874
 Frc consts  --      6.3957                 6.2825                 6.4912
 IR Inten    --      4.6390                 6.1596                 5.5779

                     73                     74                     75
                      A                      A                      A
 Frequencies --   3193.6631              3199.1905              3211.3158
 Red. masses --      1.0889                 1.0926                 1.0944
 Frc consts  --      6.5437                 6.5883                 6.6495
 IR Inten    --     12.2170                 2.8632                24.5177

                     76                     77                     78
                      A                      A                      A
 Frequencies --   3224.3642              3254.4036              3586.1832
 Red. masses --      1.0945                 1.1152                 1.0753
 Frc consts  --      6.7046                 6.9590                 8.1477
 IR Inten    --      9.5422                13.3695                17.7806

 - Thermochemistry -
 -------------------
 Temperature   298.150 Kelvin.  Pressure   1.00000 Atm.
 Atom     1 has atomic number  6 and mass  12.00000

 Molecular mass:   203.09463 amu.
 Principal axes and moments of inertia in atomic units:
                           1         2         3
     Eigenvalues --  1377.317865615.495566625.77556
           X            0.99998  -0.00398  -0.00454
           Y            0.00399   0.99999   0.00121
           Z            0.00453  -0.00123   0.99999
 This molecule is an asymmetric top.
 Rotational symmetry number  1.
 Warning -- assumption of classical behavior for rotation
           may cause significant error
 Rotational temperatures (Kelvin)      0.06289     0.01542     0.01307
 Rotational constants (GHZ):           1.31033     0.32139     0.27238
 Zero-point vibrational energy     605164.4 (Joules/Mol)
                                  144.63777 (Kcal/Mol)
 Warning -- explicit consideration of  19 degrees of freedom as
           vibrations may cause significant error
 Vibrational temperatures:     43.60    69.08    74.76   121.60   170.62
          (Kelvin)            177.99   311.68   314.44   385.38   426.35
                              461.91   542.09   613.79   650.73   665.45
                              787.24   804.95   827.82   857.62   910.29
                              985.28  1024.07  1068.34  1099.43  1111.85
                             1158.10  1197.18  1249.81  1253.68  1270.48
                             1340.46  1366.94  1391.11  1397.45  1442.32
                             1482.93  1507.29  1509.80  1562.42  1602.50
                             1619.83  1677.60  1704.80  1715.29  1758.10
                             1802.11  1836.97  1853.03  1902.93  1905.41
                             1966.20  1982.03  1984.46  2025.07  2046.56
                             2122.13  2152.27  2175.92  2178.37  2197.73
                             2222.87  2384.83  2403.98  2455.72  2551.01
                             4391.73  4402.66  4437.48  4497.64  4530.00
                             4566.44  4579.62  4594.97  4602.92  4620.37
                             4639.14  4682.36  5159.72

 Zero-point correction=                           0.230495 (Hartree/Particle)
 Thermal correction to Energy=                    0.243770
 Thermal correction to Enthalpy=                  0.244714
 Thermal correction to Gibbs Free Energy=         0.188941
 Sum of electronic and zero-point Energies=           -670.101656
 Sum of electronic and thermal Energies=              -670.088381
 Sum of electronic and thermal Enthalpies=            -670.087437
 Sum of electronic and thermal Free Energies=         -670.143210

                     E (Thermal)             CV                S
                      KCal/Mol        Cal/Mol-Kelvin    Cal/Mol-Kelvin
 Total                  152.968             50.690            117.384
 Electronic               0.000              0.000              0.000
 Translational            0.889              2.981             41.830
 Rotational               0.889              2.981             32.305
 Vibrational            151.190             44.729             43.249
 Vibration     1          0.594              1.984              5.809
 Vibration     2          0.595              1.978              4.898
 Vibration     3          0.596              1.977              4.741
 Vibration     4          0.601              1.960              3.783
 Vibration     5          0.609              1.934              3.123
 Vibration     6          0.610              1.929              3.042
 Vibration     7          0.645              1.816              1.987
 Vibration     8          0.646              1.813              1.971
 Vibration     9          0.673              1.732              1.610
 Vibration    10          0.690              1.681              1.438
 Vibration    11          0.707              1.633              1.305
 Vibration    12          0.747              1.520              1.052
 Vibration    13          0.788              1.412              0.870
 Vibration    14          0.811              1.356              0.789
 Vibration    15          0.820              1.333              0.759
 Vibration    16          0.902              1.146              0.550
 Vibration    17          0.915              1.119              0.525
 Vibration    18          0.932              1.085              0.494
 Vibration    19          0.954              1.040              0.456

 Optimization completed.
    -- Stationary point found.
 Normal termination of Gaussian 16 at Thu Dec 10 17:37:57 2020.

 ----------------------------------------------------------------------
 # B3LYP/6-311++G(d,p) empiricaldispersion=gd3bj scf=xqc pop=npa geom=c
 heck
 ----------------------------------------------------------------------

 ---------------------------------------
 CID_132317310_JID_5914_Energie_neutraal
 ---------------------------------------
 Structure from the checkpoint file:  "JID_5914.chk"
 Charge =  0 Multiplicity = 1

 SCF Done:  E(RB3LYP) =  -670.520790374     A.U. after   16 cycles
 Normal termination of Gaussian 16 at Thu Dec 10 17:42:30 2020.

 ----------------------------------------------------------------------
 # B3LYP/6-311++G(d,p) empiricaldispersion=gd3bj scf=xqc pop=npa geom=c
 heck
 ----------------------------------------------------------------------

 -------------------------------------
 CID_132317310_JID_5914_Energie_kation
 -------------------------------------
 Structure from the checkpoint file:  "JID_5914.chk"
 Charge =  1 Multiplicity = 2

 SCF Done:  E(UB3LYP) =  -670.223929562     A.U. after   25 cycles
 Normal termination of Gaussian 16 at Thu Dec 10 17:53:25 2020.
 Gaussian 16:  ES64L-G16RevA.03 25-Dec-2016

 ----------------------------------------------------------------------
 # B3LYP/6-311++G(d,p) empiricaldispersion=gd3bj scf=xqc pop=npa geom=c
 heck
 ----------------------------------------------------------------------

 ------------------------------------
 CID_132317310_JID_5914_Energie_anion
 ------------------------------------
 Structure from the checkpoint file:  "JID_5914.chk"
 Charge = -1 Multiplicity = 2

                         Standard orientation:
 ---------------------------------------------------------------------
 Center     Atomic      Atomic             Coordinates (Angstroms)
 Number     Number       Type             X           Y           Z
 ---------------------------------------------------------------------
      1          6           0       -2.783725    1.983414    0.788460
      2          6           0       -3.515279    1.286701   -0.084033
      3          6           0       -3.441881   -0.187212   -0.327406
      4          8           0       -4.479947   -0.831202   -0.439152
      5          7           0       -2.215788   -0.805010   -0.396501
      6          6           0       -0.903373   -0.215242   -0.614206
      7          6           0        0.052841   -0.380320    0.584812
      8          6           0        0.484293   -1.846722    0.827402
      9          8           0        1.769302   -2.018744    0.180070
     10          6           0        2.306238   -0.769827    0.027108
     11          6           0        3.615153   -0.513262   -0.361237
     12          6           0        3.996525    0.828083   -0.481491
     13          6           0        3.098067    1.867069   -0.222295
     14          6           0        1.781045    1.581508    0.160277
     15          6           0        1.393275    0.254569    0.290908
     16          1           0       -1.985297    1.532862    1.370112
     17          1           0       -2.984677    3.034003    0.978316
     18          1           0       -4.348506    1.755930   -0.600692
     19          1           0       -2.315391   -1.796283   -0.581141
     20          1           0       -0.442601   -0.677293   -1.496395
     21          1           0       -1.028884    0.845495   -0.836105
     22          1           0       -0.430125    0.024857    1.479975
     23          1           0       -0.198993   -2.588603    0.406616
     24          1           0        0.610889   -2.050893    1.897041
     25          1           0        4.306843   -1.325424   -0.557033
     26          1           0        5.015146    1.062270   -0.777622
     27          1           0        3.421773    2.898756   -0.318988
     28          1           0        1.076409    2.386414    0.354292
 ---------------------------------------------------------------------

 SCF Done:  E(UB3LYP) =  -670.515769618     A.U. after   33 cycles
 SCF Done:  E(UB3LYP) =  -670.515769618     a.u. after    1 cycles

 The electronic state is 2-A.
 Alpha  occ. eigenvalues --  -19.06470 -18.95764 -14.22077 -10.14389 -10.14060
 Alpha  occ. eigenvalues --  -10.13738 -10.11120 -10.09904 -10.08541 -10.08355
 Alpha  occ. eigenvalues --  -10.08337 -10.08245 -10.07501 -10.04331 -10.03997
 Alpha  occ. eigenvalues --   -0.98598  -0.91214  -0.81050  -0.76402  -0.71392
 Alpha  occ. eigenvalues --   -0.65509  -0.65253  -0.64348  -0.59803  -0.54054
 Alpha  occ. eigenvalues --   -0.51251  -0.50119  -0.49937  -0.44792  -0.42170
 Alpha  occ. eigenvalues --   -0.41646  -0.39914  -0.39044  -0.37568  -0.35213
 Alpha  occ. eigenvalues --   -0.34722  -0.33464  -0.32740  -0.31898  -0.30566
 Alpha  occ. eigenvalues --   -0.30124  -0.29209  -0.28829  -0.27015  -0.26862
 Alpha  occ. eigenvalues --   -0.25627  -0.24510  -0.23751  -0.22864  -0.16526
 Alpha  occ. eigenvalues --   -0.15976  -0.14769  -0.13436  -0.12748   0.04569
 Alpha virt. eigenvalues --    0.06026   0.07199   0.07521   0.07702   0.08953
 Alpha virt. eigenvalues --    0.09092   0.09267   0.09725   0.10995   0.11048
 Alpha virt. eigenvalues --    0.12010   0.12451   0.13161   0.13678   0.14814

  Beta  occ. eigenvalues --  -19.06467 -18.95588 -14.22047 -10.14385 -10.13924
  Beta  occ. eigenvalues --  -10.13738 -10.11119 -10.09904 -10.08538 -10.08336
  Beta  occ. eigenvalues --  -10.08319 -10.08236 -10.07485 -10.04175 -10.03741
  Beta  occ. eigenvalues --   -0.98592  -0.90905  -0.80929  -0.76376  -0.71366
  Beta  occ. eigenvalues --   -0.65480  -0.64783  -0.64252  -0.59761  -0.54006
  Beta  occ. eigenvalues --   -0.50829  -0.50082  -0.49759  -0.44520  -0.42130
  Beta  occ. eigenvalues --   -0.41607  -0.39882  -0.38996  -0.37516  -0.34975
  Beta  occ. eigenvalues --   -0.34665  -0.33218  -0.32639  -0.31802  -0.30516
  Beta  occ. eigenvalues --   -0.30062  -0.29193  -0.28579  -0.26966  -0.26306
  Beta  occ. eigenvalues --   -0.25586  -0.24435  -0.23578  -0.22833  -0.16417
  Beta  occ. eigenvalues --   -0.14802  -0.14411  -0.13118  -0.12410
  Beta virt. eigenvalues --    0.06856   0.07217   0.07582   0.08298   0.08980
  Beta virt. eigenvalues --    0.09163   0.09193   0.09439   0.10188   0.10968
  Beta virt. eigenvalues --    0.11161   0.12044   0.12627   0.13456   0.13605

 Mulliken charges and spin densities:
               1          2
     1  C   -0.381268   0.217368
     2  C    0.107943   0.102628
     3  C   -0.240255   0.112450
     4  O   -0.400571   0.059009
     5  N   -0.122649   0.004328
     6  C   -0.823098  -0.024959
     7  C    0.888338  -0.430406
     8  C   -0.447427   0.003810
     9  O   -0.131203   0.002493
    10  C   -0.325690   0.163111
    11  C   -0.615001   0.302752
    12  C    1.276040  -1.462909
    13  C    0.598758  -1.053759
    14  C   -0.798234   0.501121
    15  C    0.664522   0.020358
    16  H    0.131689  -0.060951
    17  H   -0.009226   0.115260
    18  H    0.155632   0.003184
    19  H    0.266328  -0.003344
    20  H    0.180807   0.000417
    21  H    0.217920  -0.023637
    22  H    0.209062  -0.000751
    23  H    0.154205   0.008370
    24  H    0.182120  -0.000767
    25  H   -0.077647   0.244586
    26  H   -0.647458   0.821124
    27  H   -0.741032   0.924637
    28  H   -0.272606   0.454478
 Sum of Mulliken charges =  -1.00000   1.00000

 Dipole moment (field-independent basis, Debye):
    X=              0.3003    Y=             -5.3345    Z=              1.2621  Tot=              5.4900
 Quadrupole moment (field-independent basis, Debye-Ang):
   XX=           -198.7036   YY=           -125.6265   ZZ=           -103.5543
   XY=            -17.0138   XZ=              4.6834   YZ=             -0.4197

 Summary of Natural Population Analysis:

                                       Natural Population
                Natural  -----------------------------------------------
    Atom  No    Charge         Core      Valence    Rydberg      Total
 -----------------------------------------------------------------------
      C    1   -0.13580      0.99959     2.12733    0.00888     3.13580
      C    2   -0.11921      0.99953     2.10896    0.01072     3.11921
      C    3    0.34611      0.99965     1.63327    0.02098     2.65389
      O    4   -0.31443      0.99988     3.30854    0.00601     4.31443
      N    5   -0.32662      0.99967     2.81614    0.01081     3.82662
      C    6   -0.08763      0.99959     2.07725    0.01078     3.08763
      C    7   -0.13308      0.99957     2.12259    0.01093     3.13308
      C    8   -0.00267      0.99958     1.99274    0.01035     3.00267
      O    9   -0.27757      0.99987     3.27042    0.00728     4.27757
      C   10    0.15657      0.99933     1.82934    0.01477     2.84343
      C   11   -0.13000      0.99951     2.12007    0.01042     3.13000
      C   12   -0.09228      0.99958     2.08220    0.01051     3.09228
      C   13   -0.11234      0.99957     2.10215    0.01062     3.11234
      C   14   -0.08967      0.99952     2.07975    0.01041     3.08967
      C   15   -0.04740      0.99945     2.03709    0.01085     3.04740
      H   16    0.08142      0.00000     0.41744    0.00114     0.41858
      H   17    0.08867      0.00000     0.41017    0.00116     0.41133
      H   18    0.09557      0.00000     0.40303    0.00140     0.40443
      H   19    0.18714      0.00000     0.31115    0.00171     0.31286
      H   20    0.09104      0.00000     0.40790    0.00106     0.40896
      H   21    0.11501      0.00000     0.38395    0.00103     0.38499
      H   22    0.11056      0.00000     0.38839    0.00106     0.38944
      H   23    0.08893      0.00000     0.41006    0.00101     0.41107
      H   24    0.08510      0.00000     0.41398    0.00092     0.41490
      H   25    0.10553      0.00000     0.39322    0.00125     0.39447
      H   26    0.10371      0.00000     0.39406    0.00223     0.39629
      H   27    0.10517      0.00000     0.39221    0.00262     0.39483
      H   28    0.10817      0.00000     0.39034    0.00149     0.39183
 =======================================================================
   * Total *   -0.00000     14.99387    38.82373    0.18240    54.00000

 Normal termination of Gaussian 16 at Thu Dec 10 18:08:12 2020.
