 Gaussian 16, Revision A.03,

 -----------------------------------------------------------
 # opt freq B3LYP/6-31G(d) empiricaldispersion=gd3bj scf=xqc
 -----------------------------------------------------------

 -------------------------------
 CID_149956505_JID_3486_neutraal
 -------------------------------
 Symbolic Z-matrix:
 Charge =  0 Multiplicity = 1

 SCF Done:  E(RB3LYP) =  -964.880893073     A.U. after   16 cycles
 SCF Done:  E(RB3LYP) =  -964.896280124     A.U. after   15 cycles
 SCF Done:  E(RB3LYP) =  -964.899729509     A.U. after   14 cycles
 SCF Done:  E(RB3LYP) =  -964.901739479     A.U. after   16 cycles
 SCF Done:  E(RB3LYP) =  -964.904409847     A.U. after   14 cycles
 SCF Done:  E(RB3LYP) =  -964.906275560     A.U. after   15 cycles
 SCF Done:  E(RB3LYP) =  -964.907600581     A.U. after   15 cycles
 SCF Done:  E(RB3LYP) =  -964.908301846     A.U. after   15 cycles
 SCF Done:  E(RB3LYP) =  -964.909024553     A.U. after   13 cycles
 SCF Done:  E(RB3LYP) =  -964.909354360     A.U. after   15 cycles
 SCF Done:  E(RB3LYP) =  -964.909547472     A.U. after   10 cycles
 SCF Done:  E(RB3LYP) =  -964.909547771     A.U. after    8 cycles
 SCF Done:  E(RB3LYP) =  -964.909547976     A.U. after    8 cycles
 SCF Done:  E(RB3LYP) =  -964.909548094     A.U. after    8 cycles
 SCF Done:  E(RB3LYP) =  -964.909548161     A.U. after    8 cycles
 SCF Done:  E(RB3LYP) =  -964.909548217     A.U. after    8 cycles
 Optimization completed.
    -- Stationary point found.
 Normal termination of Gaussian 16 at Wed Dec  9 23:33:54 2020.

 --------------------------------------------------------------------
 #N Geom=AllCheck Guess=TCheck SCRF=Check GenChk RB3LYP/6-31G(d) Freq
 --------------------------------------------------------------------

 Structure from the checkpoint file:  "JID_3486.chk"
 -------------------------------
 CID_149956505_JID_3486_neutraal
 -------------------------------
 Charge =  0 Multiplicity = 1

 SCF Done:  E(RB3LYP) =  -964.909548217     A.U. after    1 cycles

  Exact polarizability: 131.863   7.802 146.502  10.843   9.890 103.581
 Approx polarizability: 187.017  31.471 237.954  27.835  31.365 167.846

                      1                      2                      3
                      A                      A                      A
 Frequencies --     17.2802                35.8831                48.9564
 Red. masses --      4.4060                 8.8030                 2.8733
 Frc consts  --      0.0008                 0.0067                 0.0041
 IR Inten    --      0.2066                 0.0155                 0.1570

                      4                      5                      6
                      A                      A                      A
 Frequencies --     55.3073                71.4390                90.5936
 Red. masses --      3.1654                 5.9505                 1.8102
 Frc consts  --      0.0057                 0.0179                 0.0088
 IR Inten    --      0.4354                 0.9800                 1.6285

                      7                      8                      9
                      A                      A                      A
 Frequencies --    109.6874               155.1462               185.9408
 Red. masses --      4.6191                 2.8693                 5.2834
 Frc consts  --      0.0327                 0.0407                 0.1076
 IR Inten    --      1.0601                 3.1265                 0.5830

                     10                     11                     12
                      A                      A                      A
 Frequencies --    208.3325               211.0360               233.1593
 Red. masses --      3.6069                 3.4939                 1.2134
 Frc consts  --      0.0922                 0.0917                 0.0389
 IR Inten    --     10.5084                 0.8202                 5.9222

                     13                     14                     15
                      A                      A                      A
 Frequencies --    255.8615               260.2809               279.4907
 Red. masses --      1.6866                 1.7599                 1.6467
 Frc consts  --      0.0651                 0.0702                 0.0758
 IR Inten    --      3.8046                18.5545                 1.4253

                     16                     17                     18
                      A                      A                      A
 Frequencies --    293.2749               381.4727               414.5134
 Red. masses --      2.3577                 3.5051                 2.5487
 Frc consts  --      0.1195                 0.3005                 0.2580
 IR Inten    --     20.5945                16.9461                 1.6171

                     19                     20                     21
                      A                      A                      A
 Frequencies --    434.9232               459.3688               471.8882
 Red. masses --      5.8568                 3.7249                 2.5770
 Frc consts  --      0.6527                 0.4631                 0.3381
 IR Inten    --     71.7815                29.5229                 6.4584

                     22                     23                     24
                      A                      A                      A
 Frequencies --    482.1194               590.7292               630.5587
 Red. masses --      3.4346                13.7195                 3.1372
 Frc consts  --      0.4704                 2.8208                 0.7349
 IR Inten    --      7.0570                 9.0345                 5.8304

                     25                     26                     27
                      A                      A                      A
 Frequencies --    681.2338               739.5951               764.0570
 Red. masses --     12.8231                 2.9807                 1.5769
 Frc consts  --      3.5062                 0.9606                 0.5424
 IR Inten    --      6.2531                12.0582                75.9064

                     28                     29                     30
                      A                      A                      A
 Frequencies --    799.2015               827.9436               836.7208
 Red. masses --      1.2383                 1.3587                 1.3718
 Frc consts  --      0.4660                 0.5488                 0.5658
 IR Inten    --      9.9732                17.4493                58.7863

                     31                     32                     33
                      A                      A                      A
 Frequencies --    912.5108               925.8356               945.1847
 Red. masses --      2.1168                 1.7571                 1.7822
 Frc consts  --      1.0385                 0.8874                 0.9381
 IR Inten    --     22.5326               187.3196                28.7703

                     34                     35                     36
                      A                      A                      A
 Frequencies --    979.6249              1023.0397              1050.8924
 Red. masses --      2.1327                 2.2194                 2.8696
 Frc consts  --      1.2059                 1.3686                 1.8672
 IR Inten    --      3.1168                 6.3738                89.9509

                     37                     38                     39
                      A                      A                      A
 Frequencies --   1090.7633              1105.8877              1118.3282
 Red. masses --      2.3300                 1.9373                 1.9014
 Frc consts  --      1.6333                 1.3959                 1.4011
 IR Inten    --     14.1230                 2.2063                29.5373

                     40                     41                     42
                      A                      A                      A
 Frequencies --   1154.7423              1169.4834              1202.7609
 Red. masses --      1.9686                 1.8232                 2.9364
 Frc consts  --      1.5466                 1.4692                 2.5028
 IR Inten    --      4.7478                33.9563                35.3304

                     43                     44                     45
                      A                      A                      A
 Frequencies --   1226.2715              1245.1982              1278.6668
 Red. masses --      2.2831                11.5933                 1.7077
 Frc consts  --      2.0228                10.5910                 1.6450
 IR Inten    --     29.8976               149.3684                 3.6934

                     46                     47                     48
                      A                      A                      A
 Frequencies --   1316.5759              1322.6122              1354.4624
 Red. masses --      1.2149                 1.2747                 1.2120
 Frc consts  --      1.2408                 1.3138                 1.3100
 IR Inten    --      4.6441                10.1115                 3.3761

                     49                     50                     51
                      A                      A                      A
 Frequencies --   1363.7975              1390.7049              1403.0432
 Red. masses --      1.2384                 1.2663                 1.3380
 Frc consts  --      1.3571                 1.4430                 1.5519
 IR Inten    --      9.4930                23.3429                12.6628

                     52                     53                     54
                      A                      A                      A
 Frequencies --   1419.5611              1432.1840              1438.8409
 Red. masses --      1.2476                 1.3212                 1.2566
 Frc consts  --      1.4813                 1.5967                 1.5328
 IR Inten    --     20.9204                10.0065                15.2534

                     55                     56                     57
                      A                      A                      A
 Frequencies --   1446.5619              1505.3522              1517.0243
 Red. masses --      1.3899                 1.0761                 1.0571
 Frc consts  --      1.7136                 1.4368                 1.4334
 IR Inten    --      1.9853                 4.6014                 6.5254

                     58                     59                     60
                      A                      A                      A
 Frequencies --   1520.0356              1522.4043              1530.9641
 Red. masses --      1.0421                 1.0612                 1.0383
 Frc consts  --      1.4186                 1.4492                 1.4338
 IR Inten    --      6.9736                 1.9401                 5.3955

                     61                     62                     63
                      A                      A                      A
 Frequencies --   1533.4692              1549.9663              1555.5238
 Red. masses --      1.0717                 1.1437                 1.1542
 Frc consts  --      1.4848                 1.6188                 1.6455
 IR Inten    --      5.8684                11.1015                34.3066

                     64                     65                     66
                      A                      A                      A
 Frequencies --   1691.1688              2209.4889              2945.9930
 Red. masses --      1.0955                13.9590                 1.0723
 Frc consts  --      1.8459                40.1501                 5.4831
 IR Inten    --     10.2257               714.8878                62.6361

                     67                     68                     69
                      A                      A                      A
 Frequencies --   3008.7212              3038.8364              3051.1963
 Red. masses --      1.0847                 1.0868                 1.0365
 Frc consts  --      5.7852                 5.9129                 5.6855
 IR Inten    --     41.1077                44.2499                25.5715

                     70                     71                     72
                      A                      A                      A
 Frequencies --   3055.1679              3059.1436              3068.5370
 Red. masses --      1.0403                 1.0579                 1.0649
 Frc consts  --      5.7211                 5.8331                 5.9078
 IR Inten    --      6.5737                59.4735                28.4963

                     73                     74                     75
                      A                      A                      A
 Frequencies --   3110.3462              3115.6369              3117.7668
 Red. masses --      1.1022                 1.1014                 1.1011
 Frc consts  --      6.2826                 6.2995                 6.3063
 IR Inten    --     21.7283                46.6053                 4.7738

                     76                     77                     78
                      A                      A                      A
 Frequencies --   3129.4548              3134.6111              3141.1505
 Red. masses --      1.1006                 1.1031                 1.1041
 Frc consts  --      6.3504                 6.3861                 6.4184
 IR Inten    --     22.2596                27.6583                30.7803

                     79                     80                     81
                      A                      A                      A
 Frequencies --   3463.6170              3500.7199              3556.5537
 Red. masses --      1.0490                 1.0744                 1.0924
 Frc consts  --      7.4144                 7.7574                 8.1412
 IR Inten    --      2.4097                31.7828                 0.8438

 - Thermochemistry -
 -------------------
 Temperature   298.150 Kelvin.  Pressure   1.00000 Atm.
 Atom     1 has atomic number  6 and mass  12.00000

 Molecular mass:   204.11572 amu.
 Principal axes and moments of inertia in atomic units:
                           1         2         3
     Eigenvalues --  2438.526433346.298264419.20404
           X            0.99549  -0.09378   0.01397
           Y            0.09387   0.99557  -0.00617
           Z           -0.01333   0.00746   0.99988
 This molecule is an asymmetric top.
 Rotational symmetry number  1.
 Warning -- assumption of classical behavior for rotation
           may cause significant error
 Rotational temperatures (Kelvin)      0.03552     0.02588     0.01960
 Rotational constants (GHZ):           0.74009     0.53932     0.40839
 Zero-point vibrational energy     645842.2 (Joules/Mol)
                                  154.35998 (Kcal/Mol)
 Warning -- explicit consideration of  23 degrees of freedom as
           vibrations may cause significant error
 Vibrational temperatures:     24.86    51.63    70.44    79.57   102.78
          (Kelvin)            130.34   157.82   223.22   267.53   299.74
                              303.63   335.46   368.13   374.49   402.12
                              421.96   548.85   596.39   625.76   660.93
                              678.94   693.66   849.93   907.23   980.14
                             1064.11  1099.31  1149.87  1191.23  1203.85
                             1312.90  1332.07  1359.91  1409.46  1471.93
                             1512.00  1569.37  1591.13  1609.02  1661.42
                             1682.63  1730.50  1764.33  1791.56  1839.72
                             1894.26  1902.94  1948.77  1962.20  2000.91
                             2018.67  2042.43  2060.59  2070.17  2081.28
                             2165.87  2182.66  2186.99  2190.40  2202.72
                             2206.32  2230.06  2238.05  2433.21  3178.96
                             4238.63  4328.88  4372.21  4389.99  4395.71
                             4401.43  4414.94  4475.09  4482.71  4485.77
                             4502.59  4510.01  4519.42  4983.37  5036.76
                             5117.09

 Zero-point correction=                           0.245988 (Hartree/Particle)
 Thermal correction to Energy=                    0.262167
 Thermal correction to Enthalpy=                  0.263111
 Thermal correction to Gibbs Free Energy=         0.200167
 Sum of electronic and zero-point Energies=           -964.663560
 Sum of electronic and thermal Energies=              -964.647381
 Sum of electronic and thermal Enthalpies=            -964.646437
 Sum of electronic and thermal Free Energies=         -964.709382

                     E (Thermal)             CV                S
                      KCal/Mol        Cal/Mol-Kelvin    Cal/Mol-Kelvin
 Total                  164.512             56.511            132.479
 Electronic               0.000              0.000              0.000
 Translational            0.889              2.981             41.845
 Rotational               0.889              2.981             31.956
 Vibrational            162.735             50.550             58.678
 Vibration     1          0.593              1.986              6.924
 Vibration     2          0.594              1.982              5.474
 Vibration     3          0.595              1.978              4.859
 Vibration     4          0.596              1.975              4.618
 Vibration     5          0.598              1.968              4.113
 Vibration     6          0.602              1.956              3.647
 Vibration     7          0.606              1.941              3.274
 Vibration     8          0.620              1.897              2.608
 Vibration     9          0.632              1.859              2.268
 Vibration    10          0.642              1.828              2.058
 Vibration    11          0.643              1.824              2.035
 Vibration    12          0.654              1.790              1.854
 Vibration    13          0.666              1.753              1.690
 Vibration    14          0.668              1.745              1.660
 Vibration    15          0.680              1.712              1.537
 Vibration    16          0.688              1.686              1.455
 Vibration    17          0.751              1.510              1.033
 Vibration    18          0.778              1.439              0.911
 Vibration    19          0.796              1.394              0.843
 Vibration    20          0.817              1.340              0.768
 Vibration    21          0.829              1.312              0.732
 Vibration    22          0.838              1.290              0.704
 Vibration    23          0.948              1.052              0.466

                           ! Non-Optimized Parameters !
 Normal termination of Gaussian 16 at Wed Dec  9 23:42:02 2020.

 ----------------------------------------------------------------------
 # B3LYP/6-311++G(d,p) empiricaldispersion=gd3bj scf=xqc pop=npa geom=c
 heck
 ----------------------------------------------------------------------

 ---------------------------------------
 CID_149956505_JID_3486_Energie_neutraal
 ---------------------------------------
 Structure from the checkpoint file:  "JID_3486.chk"
 Charge =  0 Multiplicity = 1

 SCF Done:  E(RB3LYP) =  -965.108765507     A.U. after   18 cycles
 Normal termination of Gaussian 16 at Wed Dec  9 23:46:49 2020.

 ----------------------------------------------------------------------
 # B3LYP/6-311++G(d,p) empiricaldispersion=gd3bj scf=xqc pop=npa geom=c
 heck
 ----------------------------------------------------------------------

 -------------------------------------
 CID_149956505_JID_3486_Energie_kation
 -------------------------------------
 Structure from the checkpoint file:  "JID_3486.chk"
 Charge =  1 Multiplicity = 2

 SCF Done:  E(UB3LYP) =  -964.822646564     A.U. after   28 cycles
 Normal termination of Gaussian 16 at Wed Dec  9 23:57:25 2020.
 Gaussian 16:  ES64L-G16RevA.03 25-Dec-2016

 ----------------------------------------------------------------------
 # B3LYP/6-311++G(d,p) empiricaldispersion=gd3bj scf=xqc pop=npa geom=c
 heck
 ----------------------------------------------------------------------

 ------------------------------------
 CID_149956505_JID_3486_Energie_anion
 ------------------------------------
 Structure from the checkpoint file:  "JID_3486.chk"
 Charge = -1 Multiplicity = 2

                         Standard orientation:
 ---------------------------------------------------------------------
 Center     Atomic      Atomic             Coordinates (Angstroms)
 Number     Number       Type             X           Y           Z
 ---------------------------------------------------------------------
      1          6           0       -3.887351    0.531267   -0.678177
      2          6           0       -2.834503   -0.568509   -0.571233
      3          7           0       -2.014210   -0.359401    0.612805
      4          6           0       -1.042885   -1.388417    0.924401
      5          6           0       -0.023472   -1.719951   -0.210076
      6          7           0        1.009828   -0.703558   -0.459968
      7          6           0        2.331720   -0.901209    0.165238
      8          6           0        3.210623   -1.858031   -0.637733
      9         16           0        0.660664    0.686741   -1.260816
     10          7           0        0.018975    1.893508   -0.002240
     11          7           0        0.921109    2.606824    0.464702
     12          7           0        1.693874    3.300580    0.940570
     13          7           0       -0.414912   -1.039610    2.198093
     14          1           0       -4.509554    0.554976    0.221718
     15          1           0       -4.529841    0.374012   -1.551404
     16          1           0       -3.408339    1.511891   -0.786193
     17          1           0       -3.325143   -1.546949   -0.471181
     18          1           0       -2.256047   -0.600663   -1.513008
     19          1           0       -1.575438    0.559521    0.591276
     20          1           0       -1.603356   -2.323426    1.078691
     21          1           0        0.502858   -2.645931    0.050303
     22          1           0       -0.557429   -1.910984   -1.145762
     23          1           0        2.812975    0.075956    0.247707
     24          1           0        2.181845   -1.275182    1.184330
     25          1           0        3.389656   -1.457687   -1.640674
     26          1           0        4.176947   -1.996776   -0.140215
     27          1           0        2.738899   -2.841053   -0.741915
     28          1           0        0.257772   -1.754963    2.467691
     29          1           0        0.106142   -0.169912    2.089447
 ---------------------------------------------------------------------

 SCF Done:  E(UB3LYP) =  -965.119058355     A.U. after   30 cycles

 The electronic state is 2-A.
 Alpha  occ. eigenvalues --  -88.71835 -14.28832 -14.20566 -14.19376 -14.19343
 Alpha  occ. eigenvalues --  -14.18178 -14.16813 -10.10960 -10.09113 -10.08006
 Alpha  occ. eigenvalues --  -10.07867 -10.05992 -10.05403  -7.80215  -5.76756
 Alpha  occ. eigenvalues --   -5.76366  -5.75412  -0.96158  -0.82737  -0.80292
 Alpha  occ. eigenvalues --   -0.78935  -0.74351  -0.65327  -0.63245  -0.60861
 Alpha  occ. eigenvalues --   -0.55150  -0.51399  -0.49588  -0.46183  -0.39590
 Alpha  occ. eigenvalues --   -0.39382  -0.36647  -0.35998  -0.34543  -0.34121
 Alpha  occ. eigenvalues --   -0.34029  -0.33427  -0.33169  -0.31540  -0.29957
 Alpha  occ. eigenvalues --   -0.29187  -0.28118  -0.27583  -0.26842  -0.25729
 Alpha  occ. eigenvalues --   -0.24876  -0.24776  -0.23586  -0.22622  -0.18142
 Alpha  occ. eigenvalues --   -0.13881  -0.11754  -0.10889  -0.09869  -0.08382
 Alpha  occ. eigenvalues --    0.04547
 Alpha virt. eigenvalues --    0.06839   0.08183   0.08822   0.09264   0.10667
 Alpha virt. eigenvalues --    0.10834   0.11583   0.12256   0.12483   0.13236
 Alpha virt. eigenvalues --    0.13515   0.13604   0.14595   0.15107   0.15340

  Beta  occ. eigenvalues --  -88.71620 -14.28466 -14.20456 -14.19292 -14.18778
  Beta  occ. eigenvalues --  -14.18173 -14.16810 -10.10952 -10.09115 -10.07999
  Beta  occ. eigenvalues --  -10.07860 -10.05981 -10.05402  -7.79998  -5.76481
  Beta  occ. eigenvalues --   -5.75944  -5.75264  -0.95328  -0.82548  -0.80047
  Beta  occ. eigenvalues --   -0.78508  -0.74336  -0.65236  -0.63183  -0.60550
  Beta  occ. eigenvalues --   -0.54772  -0.51361  -0.49501  -0.45803  -0.39410
  Beta  occ. eigenvalues --   -0.39123  -0.36566  -0.35895  -0.34173  -0.34031
  Beta  occ. eigenvalues --   -0.33199  -0.33038  -0.32463  -0.31475  -0.29882
  Beta  occ. eigenvalues --   -0.28690  -0.27560  -0.27102  -0.26799  -0.25601
  Beta  occ. eigenvalues --   -0.24848  -0.24620  -0.23566  -0.22352  -0.17066
  Beta  occ. eigenvalues --   -0.13681  -0.11235  -0.10481  -0.09503  -0.07937
  Beta virt. eigenvalues --    0.06962   0.08058   0.08836   0.09204   0.10475
  Beta virt. eigenvalues --    0.10735   0.11187   0.12070   0.12296   0.12510
  Beta virt. eigenvalues --    0.13264   0.13587   0.13900   0.14635   0.15169

 Mulliken charges and spin densities:
               1          2
     1  C   -0.522696  -0.081271
     2  C    0.103616  -0.170691
     3  N   -0.161170  -0.015430
     4  C   -0.440131  -0.052709
     5  C    0.081145  -0.431770
     6  N   -0.077814   0.078116
     7  C   -0.061203  -0.007509
     8  C   -0.346207  -0.150533
     9  S    0.000917   0.135661
    10  N   -0.235982   0.059697
    11  N    0.324407   0.160998
    12  N   -0.655400   0.230781
    13  N   -0.268131  -0.002099
    14  H    0.136376   0.001230
    15  H    0.095476   0.012571
    16  H    0.132082   0.008257
    17  H    0.063708   0.068113
    18  H    0.013952   0.040200
    19  H    0.316453   0.013983
    20  H   -0.052515   0.227106
    21  H   -0.124684   0.243379
    22  H   -0.173524   0.363548
    23  H    0.176195  -0.016477
    24  H    0.087305   0.016831
    25  H    0.030827   0.113240
    26  H    0.096265   0.011576
    27  H    0.042067   0.086200
    28  H    0.169974   0.046938
    29  H    0.248691   0.010065
 Sum of Mulliken charges =  -1.00000   1.00000

 Dipole moment (field-independent basis, Debye):
    X=             -0.6697    Y=             -4.2173    Z=             -0.0471  Tot=              4.2704
 Quadrupole moment (field-independent basis, Debye-Ang):
   XX=           -113.3456   YY=           -127.4784   ZZ=           -113.7626
   XY=            -11.1156   XZ=              6.0148   YZ=             -5.6657

 Summary of Natural Population Analysis:

                                       Natural Population
                Natural  -----------------------------------------------
    Atom  No    Charge         Core      Valence    Rydberg      Total
 -----------------------------------------------------------------------
      C    1   -0.28680      0.99967     2.28251    0.00462     3.28680
      C    2   -0.08954      0.99965     2.07854    0.01134     3.08954
      N    3   -0.35650      0.99971     2.84407    0.01271     3.85650
      C    4    0.08081      0.99962     1.90385    0.01571     2.91919
      C    5   -0.09571      0.99957     2.08230    0.01384     3.09571
      N    6   -0.34464      0.99974     2.82608    0.01882     3.84464
      C    7   -0.08215      0.99961     2.07093    0.01161     3.08215
      C    8   -0.29057      0.99966     2.28563    0.00528     3.29057
      S    9    0.31485      4.99949     2.65865    0.02701     7.68515
      N   10   -0.31138      0.99975     2.79548    0.01615     3.81138
      N   11    0.13235      0.99971     2.35136    0.01658     3.36765
      N   12    0.00513      0.99982     2.48251    0.01255     3.49487
      N   13   -0.41837      0.99976     2.90971    0.00889     3.91837
      H   14    0.09612      0.00000     0.40269    0.00119     0.40388
      H   15    0.09224      0.00000     0.40704    0.00072     0.40776
      H   16    0.10128      0.00000     0.39737    0.00135     0.39872
      H   17    0.08247      0.00000     0.41617    0.00137     0.41753
      H   18    0.08439      0.00000     0.41384    0.00176     0.41561
      H   19    0.19391      0.00000     0.30263    0.00346     0.30609
      H   20    0.07796      0.00000     0.41988    0.00216     0.42204
      H   21    0.09018      0.00000     0.40813    0.00169     0.40982
      H   22    0.10031      0.00000     0.39814    0.00155     0.39969
      H   23    0.10327      0.00000     0.39556    0.00116     0.39673
      H   24    0.08377      0.00000     0.41491    0.00132     0.41623
      H   25    0.10212      0.00000     0.39685    0.00104     0.39788
      H   26    0.09157      0.00000     0.40765    0.00078     0.40843
      H   27    0.09542      0.00000     0.40321    0.00137     0.40458
      H   28    0.16885      0.00000     0.32937    0.00179     0.33115
      H   29    0.17867      0.00000     0.31931    0.00202     0.32133
 =======================================================================
   * Total *   -0.00000     16.99578    37.80439    0.19982    55.00000

 Normal termination of Gaussian 16 at Thu Dec 10 00:08:51 2020.
