 Gaussian 16, Revision A.03,

 -----------------------------------------------------------
 # opt freq B3LYP/6-31G(d) empiricaldispersion=gd3bj scf=xqc
 -----------------------------------------------------------

 ------------------------------
 CID_54359717_JID_9692_neutraal
 ------------------------------
 Symbolic Z-matrix:
 Charge =  0 Multiplicity = 1

 SCF Done:  E(RB3LYP) =  -882.150996211     A.U. after   15 cycles
 SCF Done:  E(RB3LYP) =  -882.155068977     A.U. after   12 cycles
 SCF Done:  E(RB3LYP) =  -882.155631321     A.U. after   11 cycles
 SCF Done:  E(RB3LYP) =  -882.155784632     A.U. after   11 cycles
 SCF Done:  E(RB3LYP) =  -882.155840214     A.U. after   11 cycles
 SCF Done:  E(RB3LYP) =  -882.155861145     A.U. after   10 cycles
 SCF Done:  E(RB3LYP) =  -882.155864153     A.U. after    8 cycles
 SCF Done:  E(RB3LYP) =  -882.155864902     A.U. after    8 cycles
 SCF Done:  E(RB3LYP) =  -882.155865229     A.U. after    8 cycles
 SCF Done:  E(RB3LYP) =  -882.155865350     A.U. after    7 cycles
 Optimization completed.
    -- Stationary point found.
 Normal termination of Gaussian 16 at Sun Dec 13 16:09:43 2020.

 --------------------------------------------------------------------
 #N Geom=AllCheck Guess=TCheck SCRF=Check GenChk RB3LYP/6-31G(d) Freq
 --------------------------------------------------------------------

 Structure from the checkpoint file:  "JID_9692.chk"
 ------------------------------
 CID_54359717_JID_9692_neutraal
 ------------------------------
 Charge =  0 Multiplicity = 1

 SCF Done:  E(RB3LYP) =  -882.155865350     A.U. after    1 cycles

  Exact polarizability: 272.383   7.508 171.452   0.855   1.034  89.236
 Approx polarizability: 383.992  12.048 297.832  -0.278  -3.238 137.006

                      1                      2                      3
                      A                      A                      A
 Frequencies --     44.9697                51.3978                89.2451
 Red. masses --      4.4860                 2.8222                 3.7991
 Frc consts  --      0.0053                 0.0044                 0.0178
 IR Inten    --      0.2324                 0.5300                 0.5958

                      4                      5                      6
                      A                      A                      A
 Frequencies --    114.6972               132.1972               147.0585
 Red. masses --      3.8087                 3.0735                 1.5708
 Frc consts  --      0.0295                 0.0316                 0.0200
 IR Inten    --      0.6862                 0.1676                 0.6895

                      7                      8                      9
                      A                      A                      A
 Frequencies --    158.6407               177.3362               190.8889
 Red. masses --      2.3088                 3.9066                 3.5338
 Frc consts  --      0.0342                 0.0724                 0.0759
 IR Inten    --      0.1910                 1.2994                 1.5561

                     10                     11                     12
                      A                      A                      A
 Frequencies --    220.6461               233.2275               253.2447
 Red. masses --      3.6939                 2.2640                 1.3339
 Frc consts  --      0.1060                 0.0726                 0.0504
 IR Inten    --      2.2634                 2.5802                 2.7868

                     13                     14                     15
                      A                      A                      A
 Frequencies --    268.9695               286.1225               294.2428
 Red. masses --      2.8844                 1.5037                 1.7396
 Frc consts  --      0.1229                 0.0725                 0.0887
 IR Inten    --     12.8222                 4.9850                10.1091

                     16                     17                     18
                      A                      A                      A
 Frequencies --    305.1510               322.0881               327.7606
 Red. masses --      1.5016                 2.2387                 2.8607
 Frc consts  --      0.0824                 0.1368                 0.1811
 IR Inten    --     96.1631                24.7803                17.0253

                     19                     20                     21
                      A                      A                      A
 Frequencies --    343.6986               359.5371               396.5749
 Red. masses --      2.0898                 2.7585                 4.7768
 Frc consts  --      0.1455                 0.2101                 0.4426
 IR Inten    --     42.4413                18.2827                 0.4608

                     22                     23                     24
                      A                      A                      A
 Frequencies --    417.1778               446.9853               456.8378
 Red. masses --      4.1163                 5.0061                 3.5487
 Frc consts  --      0.4221                 0.5893                 0.4364
 IR Inten    --      2.1977                 3.3234                 1.0945

                     25                     26                     27
                      A                      A                      A
 Frequencies --    471.2195               495.8854               517.6280
 Red. masses --      4.4547                 5.8461                 4.4242
 Frc consts  --      0.5828                 0.8470                 0.6984
 IR Inten    --      1.6209                 3.9049                 9.3543

                     28                     29                     30
                      A                      A                      A
 Frequencies --    580.0258               593.1477               617.5366
 Red. masses --      4.8429                 4.6624                 4.8226
 Frc consts  --      0.9599                 0.9665                 1.0836
 IR Inten    --      6.2582                 2.5411                 9.8893

                     31                     32                     33
                      A                      A                      A
 Frequencies --    641.8009               656.2304               677.1223
 Red. masses --      6.1312                 5.1755                 6.0472
 Frc consts  --      1.4880                 1.3131                 1.6336
 IR Inten    --      0.7229                 5.9657                 9.1106

                     34                     35                     36
                      A                      A                      A
 Frequencies --    703.8919               726.7705               753.9566
 Red. masses --      7.6825                 5.8907                 1.3840
 Frc consts  --      2.2427                 1.8332                 0.4635
 IR Inten    --      0.1858                 0.2582                18.8252

                     37                     38                     39
                      A                      A                      A
 Frequencies --    766.7589               868.9604               888.2438
 Red. masses --      5.1329                 3.2826                 1.7692
 Frc consts  --      1.7780                 1.4604                 0.8224
 IR Inten    --      1.6912                 2.5141                 9.1607

                     40                     41                     42
                      A                      A                      A
 Frequencies --    905.3985               929.9165               942.6310
 Red. masses --      2.9132                 2.4415                 1.2002
 Frc consts  --      1.4070                 1.2439                 0.6283
 IR Inten    --     11.4508                 0.0538                 1.4821

                     43                     44                     45
                      A                      A                      A
 Frequencies --    981.1887              1000.0967              1024.4295
 Red. masses --      1.5103                 4.2825                 2.4602
 Frc consts  --      0.8567                 2.5236                 1.5212
 IR Inten    --      0.3027                78.4983                35.8982

                     46                     47                     48
                      A                      A                      A
 Frequencies --   1037.3118              1050.4574              1073.6658
 Red. masses --      1.6855                 3.1604                 2.4237
 Frc consts  --      1.0686                 2.0547                 1.6461
 IR Inten    --     11.0588                97.0647                62.5604

                     49                     50                     51
                      A                      A                      A
 Frequencies --   1083.2777              1118.9536              1132.3531
 Red. masses --      1.4563                 3.9073                 2.3073
 Frc consts  --      1.0069                 2.8824                 1.7431
 IR Inten    --      1.7250                13.2891                18.7181

                     52                     53                     54
                      A                      A                      A
 Frequencies --   1142.9939              1174.8728              1179.4542
 Red. masses --      2.6545                 4.3065                 2.5961
 Frc consts  --      2.0433                 3.5023                 2.1278
 IR Inten    --     38.2400                59.1310                36.3718

                     55                     56                     57
                      A                      A                      A
 Frequencies --   1231.2923              1241.2700              1267.5283
 Red. masses --      1.8415                 2.4774                 1.7386
 Frc consts  --      1.6449                 2.2489                 1.6457
 IR Inten    --     12.3235               122.8000                70.2030

                     58                     59                     60
                      A                      A                      A
 Frequencies --   1290.3215              1299.6495              1304.2254
 Red. masses --      1.4967                 1.4988                 1.4333
 Frc consts  --      1.4681                 1.4916                 1.4364
 IR Inten    --     90.7262                76.4698                45.8913

                     61                     62                     63
                      A                      A                      A
 Frequencies --   1342.9757              1350.3835              1372.1879
 Red. masses --      1.3968                 1.8026                 2.0538
 Frc consts  --      1.4843                 1.9367                 2.2784
 IR Inten    --     17.0240                 0.3632                23.7331

                     64                     65                     66
                      A                      A                      A
 Frequencies --   1396.3007              1410.4193              1416.3535
 Red. masses --      3.3281                 2.6076                 4.1759
 Frc consts  --      3.8230                 3.0563                 4.9356
 IR Inten    --     50.2773                64.7287                11.4217

                     67                     68                     69
                      A                      A                      A
 Frequencies --   1430.5802              1439.1121              1446.6252
 Red. masses --      1.4137                 1.9317                 1.2400
 Frc consts  --      1.7046                 2.3571                 1.5289
 IR Inten    --     26.5003                 8.9620                10.6393

                     70                     71                     72
                      A                      A                      A
 Frequencies --   1451.2116              1490.9667              1507.9928
 Red. masses --      1.3024                 4.0481                 1.0433
 Frc consts  --      1.6160                 5.3020                 1.3978
 IR Inten    --      6.0845                88.1579                 6.0636

                     73                     74                     75
                      A                      A                      A
 Frequencies --   1519.9860              1520.7417              1521.4938
 Red. masses --      1.0637                 1.0851                 1.0915
 Frc consts  --      1.4480                 1.4785                 1.4887
 IR Inten    --      2.1548                 3.4754                14.8101

                     76                     77                     78
                      A                      A                      A
 Frequencies --   1524.2940              1535.1558              1542.5299
 Red. masses --      1.0773                 1.0557                 1.0807
 Frc consts  --      1.4748                 1.4659                 1.5150
 IR Inten    --      5.5510                14.5309                 6.1245

                     79                     80                     81
                      A                      A                      A
 Frequencies --   1558.2788              1652.3798              1671.4817
 Red. masses --      4.5788                 6.1946                10.3125
 Frc consts  --      6.5507                 9.9652                16.9753
 IR Inten    --     98.7625                 6.2758                 9.1428

                     82                     83                     84
                      A                      A                      A
 Frequencies --   1695.8867              1719.7391              2976.6849
 Red. masses --      7.5309                 7.3595                 1.0721
 Frc consts  --     12.7612                12.8240                 5.5971
 IR Inten    --     92.7973                 4.5014                75.2670

                     85                     86                     87
                      A                      A                      A
 Frequencies --   2991.7981              3045.7437              3049.9016
 Red. masses --      1.0822                 1.0351                 1.0360
 Frc consts  --      5.7074                 5.6573                 5.6778
 IR Inten    --     26.9130                28.4203                25.7352

                     88                     89                     90
                      A                      A                      A
 Frequencies --   3054.5320              3110.5296              3111.6281
 Red. masses --      1.0352                 1.0918                 1.1012
 Frc consts  --      5.6909                 6.2238                 6.2819
 IR Inten    --     31.1639                29.0490                10.0212

                     91                     92                     93
                      A                      A                      A
 Frequencies --   3112.0066              3118.4153              3118.8308
 Red. masses --      1.1011                 1.1015                 1.1025
 Frc consts  --      6.2826                 6.3111                 6.3183
 IR Inten    --     15.0258                53.9258                41.0930

                     94                     95                     96
                      A                      A                      A
 Frequencies --   3125.3285              3129.0508              3173.6719
 Red. masses --      1.1029                 1.1033                 1.0885
 Frc consts  --      6.3469                 6.3646                 6.4597
 IR Inten    --     43.9819                22.2394                16.1400

                     97                     98                     99
                      A                      A                      A
 Frequencies --   3293.5238              3741.6289              3762.5876
 Red. masses --      1.0984                 1.0659                 1.0654
 Frc consts  --      7.0200                 8.7924                 8.8867
 IR Inten    --      1.3166                65.6165                39.1381

 - Thermochemistry -
 -------------------
 Temperature   298.150 Kelvin.  Pressure   1.00000 Atm.
 Atom     1 has atomic number  6 and mass  12.00000

 Molecular mass:   260.10486 amu.
 Principal axes and moments of inertia in atomic units:
                           1         2         3
     Eigenvalues --  2452.533227729.905169870.08097
           X            0.99999   0.00332   0.00164
           Y           -0.00333   0.99997   0.00725
           Z           -0.00161  -0.00725   0.99997
 This molecule is an asymmetric top.
 Rotational symmetry number  1.
 Warning -- assumption of classical behavior for rotation
           may cause significant error
 Rotational temperatures (Kelvin)      0.03532     0.01121     0.00878
 Rotational constants (GHZ):           0.73587     0.23348     0.18285
 Zero-point vibrational energy     746721.6 (Joules/Mol)
                                  178.47074 (Kcal/Mol)
 Warning -- explicit consideration of  30 degrees of freedom as
           vibrations may cause significant error
 Vibrational temperatures:     64.70    73.95   128.40   165.02   190.20
          (Kelvin)            211.58   228.25   255.15   274.65   317.46
                              335.56   364.36   386.99   411.67   423.35
                              439.04   463.41   471.57   494.51   517.29
                              570.58   600.23   643.11   657.29   677.98
                              713.47   744.75   834.53   853.41   888.50
                              923.41   944.17   974.23  1012.74  1045.66
                             1084.78  1103.20  1250.24  1277.98  1302.67
                             1337.94  1356.24  1411.71  1438.92  1473.93
                             1492.46  1511.37  1544.77  1558.59  1609.92
                             1629.20  1644.51  1690.38  1696.97  1771.55
                             1785.91  1823.69  1856.48  1869.91  1876.49
                             1932.24  1942.90  1974.27  2008.97  2029.28
                             2037.82  2058.29  2070.56  2081.37  2087.97
                             2145.17  2169.67  2186.92  2188.01  2189.09
                             2193.12  2208.75  2219.36  2242.02  2377.41
                             2404.89  2440.00  2474.32  4282.79  4304.53
                             4382.15  4388.13  4394.79  4475.36  4476.94
                             4477.48  4486.70  4487.30  4496.65  4502.01
                             4566.21  4738.65  5383.37  5413.52

 Zero-point correction=                           0.284411 (Hartree/Particle)
 Thermal correction to Energy=                    0.302146
 Thermal correction to Enthalpy=                  0.303091
 Thermal correction to Gibbs Free Energy=         0.239947
 Sum of electronic and zero-point Energies=           -881.871454
 Sum of electronic and thermal Energies=              -881.853719
 Sum of electronic and thermal Enthalpies=            -881.852775
 Sum of electronic and thermal Free Energies=         -881.915918

                     E (Thermal)             CV                S
                      KCal/Mol        Cal/Mol-Kelvin    Cal/Mol-Kelvin
 Total                  189.600             68.927            132.896
 Electronic               0.000              0.000              0.000
 Translational            0.889              2.981             42.567
 Rotational               0.889              2.981             33.592
 Vibrational            187.822             62.966             56.737
 Vibration     1          0.595              1.979              5.027
 Vibration     2          0.596              1.977              4.763
 Vibration     3          0.602              1.957              3.677
 Vibration     4          0.608              1.937              3.188
 Vibration     5          0.612              1.921              2.914
 Vibration     6          0.617              1.906              2.710
 Vibration     7          0.621              1.893              2.566
 Vibration     8          0.628              1.870              2.356
 Vibration     9          0.634              1.852              2.219
 Vibration    10          0.647              1.810              1.954
 Vibration    11          0.654              1.790              1.854
 Vibration    12          0.664              1.757              1.708
 Vibration    13          0.673              1.730              1.603
 Vibration    14          0.684              1.699              1.497
 Vibration    15          0.689              1.684              1.449
 Vibration    16          0.696              1.664              1.388
 Vibration    17          0.707              1.631              1.299
 Vibration    18          0.711              1.620              1.271
 Vibration    19          0.722              1.588              1.195
 Vibration    20          0.734              1.556              1.124
 Vibration    21          0.763              1.477              0.975
 Vibration    22          0.780              1.433              0.902
 Vibration    23          0.806              1.368              0.805
 Vibration    24          0.815              1.346              0.775
 Vibration    25          0.828              1.314              0.734
 Vibration    26          0.851              1.259              0.668
 Vibration    27          0.873              1.211              0.615
 Vibration    28          0.937              1.074              0.485
 Vibration    29          0.951              1.046              0.462
 Vibration    30          0.977              0.995              0.420

                           ! Non-Optimized Parameters !
 Normal termination of Gaussian 16 at Sun Dec 13 16:27:45 2020.

 ----------------------------------------------------------------------
 # B3LYP/6-311++G(d,p) empiricaldispersion=gd3bj scf=xqc pop=npa geom=c
 heck
 ----------------------------------------------------------------------

 --------------------------------------
 CID_54359717_JID_9692_Energie_neutraal
 --------------------------------------
 Structure from the checkpoint file:  "JID_9692.chk"
 Charge =  0 Multiplicity = 1

 SCF Done:  E(RB3LYP) =  -882.408539972     A.U. after   15 cycles
 Normal termination of Gaussian 16 at Sun Dec 13 16:35:36 2020.

 ----------------------------------------------------------------------
 # B3LYP/6-311++G(d,p) empiricaldispersion=gd3bj scf=xqc pop=npa geom=c
 heck
 ----------------------------------------------------------------------

 ------------------------------------
 CID_54359717_JID_9692_Energie_kation
 ------------------------------------
 Structure from the checkpoint file:  "JID_9692.chk"
 Charge =  1 Multiplicity = 2

 SCF Done:  E(UB3LYP) =  -882.152319279     A.U. after   25 cycles
 Normal termination of Gaussian 16 at Sun Dec 13 16:54:13 2020.
 Gaussian 16:  ES64L-G16RevA.03 25-Dec-2016

 ----------------------------------------------------------------------
 # B3LYP/6-311++G(d,p) empiricaldispersion=gd3bj scf=xqc pop=npa geom=c
 heck
 ----------------------------------------------------------------------

 -----------------------------------
 CID_54359717_JID_9692_Energie_anion
 -----------------------------------
 Structure from the checkpoint file:  "JID_9692.chk"
 Charge = -1 Multiplicity = 2

                         Standard orientation:
 ---------------------------------------------------------------------
 Center     Atomic      Atomic             Coordinates (Angstroms)
 Number     Number       Type             X           Y           Z
 ---------------------------------------------------------------------
      1          6           0       -3.892366   -2.500826    0.222391
      2          6           0       -3.476466   -1.067404    0.115207
      3          6           0       -4.279295    0.025562    0.084055
      4          8           0       -3.561658    1.207956   -0.021157
      5          6           0       -2.244444    0.837780   -0.061630
      6          6           0       -2.121081   -0.555437    0.019172
      7          6           0       -0.836704   -1.112386    0.010468
      8          6           0        0.271721   -0.258820   -0.088891
      9          6           0        1.638087   -0.748879   -0.246871
     10          6           0        2.689307    0.070077   -0.075252
     11          6           0        2.371696    1.484056    0.357445
     12          8           0        1.170826    1.978063   -0.244716
     13          6           0        0.088280    1.152054   -0.126082
     14          6           0       -1.178486    1.733127   -0.125565
     15          8           0       -1.333856    3.091032   -0.180729
     16          6           0        4.142616   -0.298691   -0.251949
     17          6           0        4.908219   -0.121495    1.076264
     18          6           0        4.360973   -1.705622   -0.814021
     19          8           0       -0.724009   -2.478707    0.083188
     20          1           0       -3.542745   -3.077352   -0.641019
     21          1           0       -4.981598   -2.591243    0.280175
     22          1           0       -3.458530   -2.970436    1.111945
     23          1           0       -5.351433    0.144114    0.122430
     24          1           0        1.786875   -1.772500   -0.582277
     25          1           0        2.274952    1.549914    1.454644
     26          1           0        3.152760    2.183166    0.046291
     27          1           0       -2.286973    3.274570   -0.167488
     28          1           0        4.570153    0.420746   -0.969265
     29          1           0        4.524832   -0.816376    1.832532
     30          1           0        5.975951   -0.323296    0.935943
     31          1           0        4.810580    0.894645    1.473623
     32          1           0        3.854430   -1.837329   -1.775834
     33          1           0        5.429359   -1.892988   -0.963912
     34          1           0        3.985653   -2.469633   -0.122427
     35          1           0        0.192953   -2.701330    0.303503
 ---------------------------------------------------------------------

 SCF Done:  E(UB3LYP) =  -882.399806907     A.U. after   33 cycles
 SCF Done:  E(UB3LYP) =  -882.399806907     a.u. after    1 cycles

 The electronic state is 2-A.
 Alpha  occ. eigenvalues --  -19.08624 -19.05566 -19.04517 -19.03763 -10.12379
 Alpha  occ. eigenvalues --  -10.12302 -10.12106 -10.11892 -10.11855 -10.11602
 Alpha  occ. eigenvalues --  -10.08716 -10.07740 -10.07575 -10.06906 -10.06542
 Alpha  occ. eigenvalues --  -10.06050 -10.05753 -10.05136 -10.05053  -1.00916
 Alpha  occ. eigenvalues --   -0.96780  -0.95390  -0.95011  -0.74855  -0.72242
 Alpha  occ. eigenvalues --   -0.71195  -0.66912  -0.64819  -0.62487  -0.60037
 Alpha  occ. eigenvalues --   -0.58997  -0.56926  -0.53939  -0.50723  -0.49018
 Alpha  occ. eigenvalues --   -0.48023  -0.46818  -0.42047  -0.41482  -0.41159
 Alpha  occ. eigenvalues --   -0.39077  -0.37710  -0.37281  -0.36298  -0.35381
 Alpha  occ. eigenvalues --   -0.34213  -0.33377  -0.32013  -0.31796  -0.30895
 Alpha  occ. eigenvalues --   -0.30684  -0.30164  -0.29769  -0.29329  -0.28852
 Alpha  occ. eigenvalues --   -0.28290  -0.27654  -0.26703  -0.25809  -0.25044
 Alpha  occ. eigenvalues --   -0.24489  -0.23640  -0.22778  -0.21041  -0.18719
 Alpha  occ. eigenvalues --   -0.17713  -0.15801  -0.09757  -0.08802   0.04428
 Alpha virt. eigenvalues --    0.05752   0.06542   0.07380   0.08162   0.08572
 Alpha virt. eigenvalues --    0.08768   0.09025   0.09323   0.10457   0.10725
 Alpha virt. eigenvalues --    0.11215   0.11960   0.12175   0.12559   0.13018

  Beta  occ. eigenvalues --  -19.08606 -19.05574 -19.04470 -19.03723 -10.12391
  Beta  occ. eigenvalues --  -10.12337 -10.12000 -10.11780 -10.11770 -10.11605
  Beta  occ. eigenvalues --  -10.08697 -10.07723 -10.07595 -10.06934 -10.06530
  Beta  occ. eigenvalues --  -10.06039 -10.05692 -10.05021 -10.04833  -1.00864
  Beta  occ. eigenvalues --   -0.96757  -0.95272  -0.94947  -0.74757  -0.71981
  Beta  occ. eigenvalues --   -0.71148  -0.66775  -0.64694  -0.62361  -0.59962
  Beta  occ. eigenvalues --   -0.58924  -0.56839  -0.53739  -0.50605  -0.48953
  Beta  occ. eigenvalues --   -0.47976  -0.46736  -0.41947  -0.41410  -0.41031
  Beta  occ. eigenvalues --   -0.38932  -0.37608  -0.37142  -0.36142  -0.35294
  Beta  occ. eigenvalues --   -0.34160  -0.33316  -0.31961  -0.31749  -0.30808
  Beta  occ. eigenvalues --   -0.30563  -0.30079  -0.29662  -0.29277  -0.28774
  Beta  occ. eigenvalues --   -0.28246  -0.27605  -0.26605  -0.25746  -0.24857
  Beta  occ. eigenvalues --   -0.24432  -0.23535  -0.22652  -0.20833  -0.18585
  Beta  occ. eigenvalues --   -0.17265  -0.15561  -0.09141  -0.08442
  Beta virt. eigenvalues --    0.06237   0.06942   0.07373   0.07736   0.08624
  Beta virt. eigenvalues --    0.08863   0.08968   0.09545   0.09767   0.10698
  Beta virt. eigenvalues --    0.10801   0.11370   0.11903   0.12174   0.12642

 Mulliken charges and spin densities:
               1          2
     1  C    0.434880  -0.951389
     2  C    0.400607   0.569533
     3  C   -0.215143  -0.030822
     4  O   -0.146426   0.013393
     5  C   -1.010757   0.198120
     6  C    0.523039   0.488109
     7  C   -1.518183   0.316424
     8  C    0.649122   0.006251
     9  C    1.401638  -0.958473
    10  C    2.628378  -1.565647
    11  C   -0.776896   0.034456
    12  O   -0.078378   0.000637
    13  C   -0.464337   0.124542
    14  C   -1.227153  -0.027563
    15  O   -0.277895  -0.004723
    16  C   -0.935865   1.176593
    17  C    0.585217  -1.330399
    18  C   -0.567242   0.073261
    19  O   -0.219466  -0.022387
    20  H    0.068750   0.098824
    21  H   -0.217191   0.355530
    22  H    0.051298   0.117004
    23  H   -0.200860   0.370277
    24  H    0.075211   0.021073
    25  H    0.195015  -0.011027
    26  H    0.082093   0.112508
    27  H    0.254881   0.015175
    28  H   -0.154412   0.343474
    29  H    0.153001  -0.018079
    30  H   -0.642234   0.803995
    31  H    0.016726   0.114304
    32  H    0.130508  -0.006560
    33  H   -0.144552   0.315578
    34  H    0.129572  -0.006077
    35  H    0.017054   0.264087
 Sum of Mulliken charges =  -1.00000   1.00000

 Dipole moment (field-independent basis, Debye):
    X=             -5.3252    Y=              0.5767    Z=              0.2679  Tot=              5.3630
 Quadrupole moment (field-independent basis, Debye-Ang):
   XX=           -219.0369   YY=           -144.6169   ZZ=           -130.0622
   XY=            -11.1029   XZ=              0.6689   YZ=              2.9004

 Summary of Natural Population Analysis:

                                       Natural Population
                Natural  -----------------------------------------------
    Atom  No    Charge         Core      Valence    Rydberg      Total
 -----------------------------------------------------------------------
      C    1   -0.28997      0.99963     2.28565    0.00469     3.28997
      C    2   -0.03863      0.99949     2.02957    0.00956     3.03863
      C    3    0.04480      0.99942     1.94051    0.01528     2.95520
      O    4   -0.25388      0.99986     3.24543    0.00859     4.25388
      C    5    0.15543      0.99936     1.83361    0.01161     2.84457
      C    6   -0.08651      0.99943     2.07881    0.00827     3.08651
      C    7    0.18537      0.99931     1.80254    0.01278     2.81463
      C    8   -0.08830      0.99947     2.08034    0.00848     3.08830
      C    9   -0.11314      0.99941     2.10406    0.00967     3.11314
      C   10    0.03665      0.99949     1.95274    0.01112     2.96335
      C   11   -0.01717      0.99952     2.00473    0.01292     3.01717
      O   12   -0.26784      0.99986     3.25962    0.00835     4.26784
      C   13    0.17040      0.99933     1.81687    0.01340     2.82960
      C   14    0.09421      0.99929     1.89420    0.01231     2.90579
      O   15   -0.33849      0.99988     3.33179    0.00682     4.33849
      C   16   -0.12730      0.99957     2.11665    0.01107     3.12730
      C   17   -0.27754      0.99965     2.27174    0.00615     3.27754
      C   18   -0.28451      0.99966     2.27835    0.00650     3.28451
      O   19   -0.34462      0.99988     3.33864    0.00610     4.34462
      H   20    0.10759      0.00000     0.39104    0.00137     0.39241
      H   21    0.09883      0.00000     0.40008    0.00109     0.40117
      H   22    0.10741      0.00000     0.39120    0.00139     0.39259
      H   23    0.09244      0.00000     0.40639    0.00117     0.40756
      H   24    0.09558      0.00000     0.40300    0.00142     0.40442
      H   25    0.08273      0.00000     0.41607    0.00120     0.41727
      H   26    0.09322      0.00000     0.40550    0.00127     0.40678
      H   27    0.23434      0.00000     0.26304    0.00262     0.26566
      H   28    0.10220      0.00000     0.39569    0.00211     0.39780
      H   29    0.09494      0.00000     0.40427    0.00078     0.40506
      H   30    0.10056      0.00000     0.39691    0.00254     0.39944
      H   31    0.09726      0.00000     0.40201    0.00073     0.40274
      H   32    0.09965      0.00000     0.39960    0.00075     0.40035
      H   33    0.09974      0.00000     0.39955    0.00070     0.40026
      H   34    0.09512      0.00000     0.40389    0.00099     0.40488
      H   35    0.23940      0.00000     0.25705    0.00355     0.26060
 =======================================================================
   * Total *    0.00001     18.99150    49.80115    0.20734    68.99999

 Normal termination of Gaussian 16 at Sun Dec 13 17:19:18 2020.
