 Gaussian 16, Revision A.03,

 -----------------------------------------------------------
 # opt freq B3LYP/6-31G(d) empiricaldispersion=gd3bj scf=xqc
 -----------------------------------------------------------

 ------------------------------
 CID_62198582_JID_3162_neutraal
 ------------------------------
 Symbolic Z-matrix:
 Charge =  0 Multiplicity = 1

 SCF Done:  E(RB3LYP) =  -539.575756588     A.U. after   14 cycles
 SCF Done:  E(RB3LYP) =  -539.579239357     A.U. after   12 cycles
 SCF Done:  E(RB3LYP) =  -539.579959401     A.U. after   12 cycles
 SCF Done:  E(RB3LYP) =  -539.580725414     A.U. after   12 cycles
 SCF Done:  E(RB3LYP) =  -539.580952767     A.U. after   12 cycles
 SCF Done:  E(RB3LYP) =  -539.580885158     A.U. after   12 cycles
 SCF Done:  E(RB3LYP) =  -539.581093298     A.U. after   11 cycles
 SCF Done:  E(RB3LYP) =  -539.581099970     A.U. after    9 cycles
 SCF Done:  E(RB3LYP) =  -539.581100526     A.U. after    9 cycles
 SCF Done:  E(RB3LYP) =  -539.581101415     A.U. after    9 cycles
 SCF Done:  E(RB3LYP) =  -539.581101493     A.U. after    6 cycles
 Optimization completed.
    -- Stationary point found.
 Normal termination of Gaussian 16 at Wed Dec  9 22:27:50 2020.

 --------------------------------------------------------------------
 #N Geom=AllCheck Guess=TCheck SCRF=Check GenChk RB3LYP/6-31G(d) Freq
 --------------------------------------------------------------------

 Structure from the checkpoint file:  "JID_3162.chk"
 ------------------------------
 CID_62198582_JID_3162_neutraal
 ------------------------------
 Charge =  0 Multiplicity = 1

 SCF Done:  E(RB3LYP) =  -539.581101493     A.U. after    1 cycles

  Exact polarizability: 162.747 -13.880 130.920 -12.140  -9.632  88.743
 Approx polarizability: 219.424 -22.147 202.915 -25.294 -21.705 138.858

                      1                      2                      3
                      A                      A                      A
 Frequencies --     25.6082                45.8103                57.9719
 Red. masses --      3.4699                 3.4205                 3.7361
 Frc consts  --      0.0013                 0.0042                 0.0074
 IR Inten    --      0.0966                 1.0162                 0.5647

                      4                      5                      6
                      A                      A                      A
 Frequencies --     87.7265               143.3072               172.9830
 Red. masses --      2.9825                 2.3319                 1.8342
 Frc consts  --      0.0135                 0.0282                 0.0323
 IR Inten    --      0.0662                 0.2927                 0.6918

                      7                      8                      9
                      A                      A                      A
 Frequencies --    193.0737               211.9767               247.9645
 Red. masses --      3.6310                 1.9860                 1.2017
 Frc consts  --      0.0797                 0.0526                 0.0435
 IR Inten    --      1.3662                 0.3177                 0.1914

                     10                     11                     12
                      A                      A                      A
 Frequencies --    277.7642               314.9174               350.8302
 Red. masses --      1.5508                 2.8936                 2.4897
 Frc consts  --      0.0705                 0.1691                 0.1805
 IR Inten    --      0.1897                 0.4278                 0.3182

                     13                     14                     15
                      A                      A                      A
 Frequencies --    384.5751               421.7721               441.9389
 Red. masses --      2.2820                 3.7276                 2.6546
 Frc consts  --      0.1988                 0.3907                 0.3055
 IR Inten    --      0.7011                 2.0001                 6.9710

                     16                     17                     18
                      A                      A                      A
 Frequencies --    453.6902               504.9856               565.6686
 Red. masses --      2.1239                 2.2664                 2.9542
 Frc consts  --      0.2576                 0.3405                 0.5569
 IR Inten    --      5.4727                27.2628                12.0918

                     19                     20                     21
                      A                      A                      A
 Frequencies --    591.8372               637.0126               667.9747
 Red. masses --      2.4981                 4.0946                 2.5665
 Frc consts  --      0.5155                 0.9789                 0.6747
 IR Inten    --     39.7707                30.0964                34.0543

                     22                     23                     24
                      A                      A                      A
 Frequencies --    738.4839               753.7280               782.2138
 Red. masses --      1.3096                 1.7437                 2.3965
 Frc consts  --      0.4208                 0.5836                 0.8639
 IR Inten    --     18.2310                 9.3230                49.0206

                     25                     26                     27
                      A                      A                      A
 Frequencies --    813.6133               837.0601               858.4142
 Red. masses --      1.7222                 2.0438                 1.4494
 Frc consts  --      0.6717                 0.8437                 0.6293
 IR Inten    --      0.4625                 3.2972                 4.7867

                     28                     29                     30
                      A                      A                      A
 Frequencies --    862.6219               916.2921               926.7874
 Red. masses --      2.7887                 1.4744                 1.6526
 Frc consts  --      1.2226                 0.7294                 0.8363
 IR Inten    --      1.0216                 0.4705                 0.4903

                     31                     32                     33
                      A                      A                      A
 Frequencies --    971.4308               983.5435               987.9760
 Red. masses --      1.3775                 1.8251                 1.2637
 Frc consts  --      0.7659                 1.0402                 0.7267
 IR Inten    --      0.2796                 2.3384                 0.5878

                     34                     35                     36
                      A                      A                      A
 Frequencies --    995.3774              1003.6003              1051.0381
 Red. masses --      1.9418                 4.6438                 1.4474
 Frc consts  --      1.1335                 2.7558                 0.9421
 IR Inten    --      0.6895                 9.6525                 0.7040

                     37                     38                     39
                      A                      A                      A
 Frequencies --   1069.3618              1080.9693              1107.9462
 Red. masses --      1.7758                 2.1051                 2.3309
 Frc consts  --      1.1965                 1.4493                 1.6858
 IR Inten    --      4.8648                 2.9649                 2.6697

                     40                     41                     42
                      A                      A                      A
 Frequencies --   1123.1049              1165.8523              1171.8622
 Red. masses --      1.6140                 2.0328                 2.0566
 Frc consts  --      1.1995                 1.6279                 1.6640
 IR Inten    --      5.8143                 5.1375                 1.7540

                     43                     44                     45
                      A                      A                      A
 Frequencies --   1190.2783              1200.7815              1249.9545
 Red. masses --      1.1371                 2.4200                 1.3318
 Frc consts  --      0.9492                 2.0559                 1.2260
 IR Inten    --      9.3882                61.4630                 5.0159

                     46                     47                     48
                      A                      A                      A
 Frequencies --   1276.9873              1296.6629              1329.7083
 Red. masses --      1.3540                 2.0714                 1.2473
 Frc consts  --      1.3009                 2.0519                 1.2993
 IR Inten    --      5.8529                 9.4698                12.7180

                     49                     50                     51
                      A                      A                      A
 Frequencies --   1346.1277              1362.6081              1371.1486
 Red. masses --      2.1265                 1.5171                 1.5184
 Frc consts  --      2.2703                 1.6596                 1.6819
 IR Inten    --     11.5020                23.0882                27.3207

                     52                     53                     54
                      A                      A                      A
 Frequencies --   1383.7645              1395.7450              1409.7412
 Red. masses --      1.4550                 1.3461                 1.4203
 Frc consts  --      1.6414                 1.5450                 1.6631
 IR Inten    --     11.2014                 2.0444                 3.3075

                     55                     56                     57
                      A                      A                      A
 Frequencies --   1417.3372              1440.7847              1446.3662
 Red. masses --      1.4048                 1.3007                 1.2601
 Frc consts  --      1.6627                 1.5908                 1.5532
 IR Inten    --      0.9569                 5.3564                 6.9989

                     58                     59                     60
                      A                      A                      A
 Frequencies --   1480.4215              1496.8868              1508.7535
 Red. masses --      1.7358                 2.1750                 1.0749
 Frc consts  --      2.2414                 2.8714                 1.4417
 IR Inten    --     41.5463                91.7283                 0.4836

                     61                     62                     63
                      A                      A                      A
 Frequencies --   1522.1546              1524.9314              1529.6795
 Red. masses --      1.0900                 1.0686                 1.0473
 Frc consts  --      1.4880                 1.4641                 1.4439
 IR Inten    --     13.9911                 2.5623                 3.6467

                     64                     65                     66
                      A                      A                      A
 Frequencies --   1530.5840              1537.7140              1543.7152
 Red. masses --      1.0931                 1.0645                 1.0678
 Frc consts  --      1.5088                 1.4830                 1.4993
 IR Inten    --      5.2708                 5.7334                 1.0315

                     67                     68                     69
                      A                      A                      A
 Frequencies --   1563.7844              1631.6519              1661.5772
 Red. masses --      2.2154                 4.7512                 5.6963
 Frc consts  --      3.1920                 7.4527                 9.2659
 IR Inten    --    204.9733                49.7966               237.5450

                     70                     71                     72
                      A                      A                      A
 Frequencies --   3028.3578              3034.0926              3040.0079
 Red. masses --      1.0660                 1.0614                 1.0634
 Frc consts  --      5.7602                 5.7571                 5.7900
 IR Inten    --     14.8070                22.9821                20.0769

                     73                     74                     75
                      A                      A                      A
 Frequencies --   3047.5431              3048.2009              3063.5740
 Red. masses --      1.0430                 1.0424                 1.0934
 Frc consts  --      5.7074                 5.7064                 6.0464
 IR Inten    --     35.8253                 6.9295                38.1996

                     76                     77                     78
                      A                      A                      A
 Frequencies --   3064.9519              3074.6533              3090.1117
 Red. masses --      1.0927                 1.0903                 1.0976
 Frc consts  --      6.0478                 6.0727                 6.1752
 IR Inten    --     19.0517                32.9601                57.6368

                     79                     80                     81
                      A                      A                      A
 Frequencies --   3111.1132              3119.8857              3122.9925
 Red. masses --      1.1014                 1.0953                 1.1010
 Frc consts  --      6.2811                 6.2812                 6.3265
 IR Inten    --     38.5233                37.3190                49.4453

                     82                     83                     84
                      A                      A                      A
 Frequencies --   3142.9078              3163.3283              3189.7484
 Red. masses --      1.1029                 1.0892                 1.0884
 Frc consts  --      6.4190                 6.4218                 6.5244
 IR Inten    --     26.5055                37.3297                12.4470

                     85                     86                     87
                      A                      A                      A
 Frequencies --   3219.2993              3226.5857              3562.6871
 Red. masses --      1.0935                 1.0938                 1.0748
 Frc consts  --      6.6771                 6.7090                 8.0374
 IR Inten    --     29.2593                 9.4708                16.4622

 - Thermochemistry -
 -------------------
 Temperature   298.150 Kelvin.  Pressure   1.00000 Atm.
 Atom     1 has atomic number  6 and mass  12.00000

 Molecular mass:   178.14700 amu.
 Principal axes and moments of inertia in atomic units:
                           1         2         3
     Eigenvalues --  1449.694063881.751084869.53657
           X            1.00000  -0.00203  -0.00149
           Y            0.00203   1.00000  -0.00082
           Z            0.00149   0.00082   1.00000
 This molecule is an asymmetric top.
 Rotational symmetry number  1.
 Warning -- assumption of classical behavior for rotation
           may cause significant error
 Rotational temperatures (Kelvin)      0.05975     0.02231     0.01779
 Rotational constants (GHZ):           1.24491     0.46493     0.37062
 Zero-point vibrational energy     729725.4 (Joules/Mol)
                                  174.40855 (Kcal/Mol)
 Warning -- explicit consideration of  19 degrees of freedom as
           vibrations may cause significant error
 Vibrational temperatures:     36.84    65.91    83.41   126.22   206.19
          (Kelvin)            248.88   277.79   304.99   356.77   399.64
                              453.10   504.77   553.32   606.84   635.85
                              652.76   726.56   813.87   851.52   916.52
                              961.07  1062.51  1084.45  1125.43  1170.61
                             1204.34  1235.07  1241.12  1318.34  1333.44
                             1397.67  1415.10  1421.48  1432.13  1443.96
                             1512.21  1538.57  1555.27  1594.09  1615.90
                             1677.40  1686.05  1712.55  1727.66  1798.41
                             1837.30  1865.61  1913.15  1936.78  1960.49
                             1972.78  1990.93  2008.17  2028.30  2039.23
                             2072.97  2081.00  2130.00  2153.69  2170.76
                             2190.04  2194.04  2200.87  2202.17  2212.43
                             2221.06  2249.94  2347.58  2390.64  4357.13
                             4365.38  4373.89  4384.73  4385.68  4407.80
                             4409.78  4423.74  4445.98  4476.20  4488.82
                             4493.29  4521.94  4551.32  4589.34  4631.85
                             4642.34  5125.91

 Zero-point correction=                           0.277938 (Hartree/Particle)
 Thermal correction to Energy=                    0.291333
 Thermal correction to Enthalpy=                  0.292277
 Thermal correction to Gibbs Free Energy=         0.236860
 Sum of electronic and zero-point Energies=           -539.303164
 Sum of electronic and thermal Energies=              -539.289769
 Sum of electronic and thermal Enthalpies=            -539.288825
 Sum of electronic and thermal Free Energies=         -539.344241

                     E (Thermal)             CV                S
                      KCal/Mol        Cal/Mol-Kelvin    Cal/Mol-Kelvin
 Total                  182.814             51.004            116.634
 Electronic               0.000              0.000              0.000
 Translational            0.889              2.981             41.439
 Rotational               0.889              2.981             31.683
 Vibrational            181.037             45.043             43.512
 Vibration     1          0.593              1.985              6.143
 Vibration     2          0.595              1.979              4.991
 Vibration     3          0.596              1.974              4.525
 Vibration     4          0.601              1.958              3.710
 Vibration     5          0.616              1.910              2.759
 Vibration     6          0.626              1.876              2.403
 Vibration     7          0.635              1.849              2.198
 Vibration     8          0.643              1.823              2.027
 Vibration     9          0.662              1.766              1.745
 Vibration    10          0.679              1.715              1.547
 Vibration    11          0.702              1.645              1.336
 Vibration    12          0.728              1.574              1.162
 Vibration    13          0.754              1.503              1.021
 Vibration    14          0.784              1.423              0.886
 Vibration    15          0.802              1.379              0.821
 Vibration    16          0.812              1.353              0.785
 Vibration    17          0.860              1.239              0.646
 Vibration    18          0.922              1.106              0.513
 Vibration    19          0.949              1.049              0.464

 Optimization completed.
    -- Stationary point found.
 Normal termination of Gaussian 16 at Wed Dec  9 22:36:29 2020.

 ----------------------------------------------------------------------
 # B3LYP/6-311++G(d,p) empiricaldispersion=gd3bj scf=xqc pop=npa geom=c
 heck
 ----------------------------------------------------------------------

 --------------------------------------
 CID_62198582_JID_3162_Energie_neutraal
 --------------------------------------
 Structure from the checkpoint file:  "JID_3162.chk"
 Charge =  0 Multiplicity = 1

 SCF Done:  E(RB3LYP) =  -539.729794166     A.U. after   14 cycles
 Normal termination of Gaussian 16 at Wed Dec  9 22:40:33 2020.

 ----------------------------------------------------------------------
 # B3LYP/6-311++G(d,p) empiricaldispersion=gd3bj scf=xqc pop=npa geom=c
 heck
 ----------------------------------------------------------------------

 ------------------------------------
 CID_62198582_JID_3162_Energie_kation
 ------------------------------------
 Structure from the checkpoint file:  "JID_3162.chk"
 Charge =  1 Multiplicity = 2

 SCF Done:  E(UB3LYP) =  -539.451427184     A.U. after   20 cycles
 Normal termination of Gaussian 16 at Wed Dec  9 22:48:49 2020.
 Gaussian 16:  ES64L-G16RevA.03 25-Dec-2016

 ----------------------------------------------------------------------
 # B3LYP/6-311++G(d,p) empiricaldispersion=gd3bj scf=xqc pop=npa geom=c
 heck
 ----------------------------------------------------------------------

 -----------------------------------
 CID_62198582_JID_3162_Energie_anion
 -----------------------------------
 Structure from the checkpoint file:  "JID_3162.chk"
 Charge = -1 Multiplicity = 2

                         Standard orientation:
 ---------------------------------------------------------------------
 Center     Atomic      Atomic             Coordinates (Angstroms)
 Number     Number       Type             X           Y           Z
 ---------------------------------------------------------------------
      1          6           0        2.347118    2.438806   -0.026446
      2          6           0        3.195273    1.178633   -0.224684
      3          6           0        2.969156    0.102009    0.848852
      4          6           0        1.537768   -0.450369    0.927609
      5          6           0        1.011204   -1.121058   -0.357744
      6          6           0        1.808768   -2.366679   -0.745628
      7          7           0       -0.396271   -1.494304   -0.230214
      8          6           0       -1.422377   -0.577935   -0.128952
      9          6           0       -1.337232    0.727924   -0.659304
     10          6           0       -2.441887    1.559879   -0.546139
     11          6           0       -3.601803    1.093953    0.078205
     12          6           0       -3.584518   -0.211156    0.564817
     13          7           0       -2.534771   -1.032633    0.479195
     14          1           0        1.274829    2.225851   -0.092358
     15          1           0        2.581536    3.195858   -0.782942
     16          1           0        2.531808    2.882907    0.959486
     17          1           0        3.004209    0.760174   -1.222130
     18          1           0        4.257233    1.456420   -0.217660
     19          1           0        3.674352   -0.722461    0.682901
     20          1           0        3.227425    0.525076    1.829418
     21          1           0        1.481047   -1.188554    1.739730
     22          1           0        0.845163    0.354225    1.200644
     23          1           0        1.078612   -0.410921   -1.188973
     24          1           0        1.784943   -3.109097    0.062795
     25          1           0        1.387549   -2.825548   -1.644973
     26          1           0        2.856507   -2.120007   -0.939324
     27          1           0       -0.577976   -2.312882    0.340963
     28          1           0       -0.436440    1.071185   -1.153949
     29          1           0       -2.397436    2.569385   -0.946408
     30          1           0       -4.482787    1.717389    0.185990
     31          1           0       -4.462099   -0.624494    1.060399
 ---------------------------------------------------------------------

 SCF Done:  E(UB3LYP) =  -539.715009011     A.U. after   33 cycles
 SCF Done:  E(UB3LYP) =  -539.715009011     a.u. after    1 cycles

 The electronic state is 2-A.
 Alpha  occ. eigenvalues --  -14.22191 -14.20015 -10.14285 -10.11170 -10.10472
 Alpha  occ. eigenvalues --  -10.08514 -10.07230 -10.07075 -10.06673 -10.06594
 Alpha  occ. eigenvalues --  -10.06429 -10.06256 -10.05456  -0.86930  -0.80748
 Alpha  occ. eigenvalues --   -0.70887  -0.69928  -0.67192  -0.63436  -0.61137
 Alpha  occ. eigenvalues --   -0.56115  -0.53615  -0.52294  -0.49840  -0.45773
 Alpha  occ. eigenvalues --   -0.43903  -0.40576  -0.38626  -0.37371  -0.36372
 Alpha  occ. eigenvalues --   -0.34279  -0.33937  -0.33558  -0.31991  -0.30050
 Alpha  occ. eigenvalues --   -0.29763  -0.29112  -0.28898  -0.28468  -0.26511
 Alpha  occ. eigenvalues --   -0.26158  -0.25283  -0.23330  -0.22272  -0.22185
 Alpha  occ. eigenvalues --   -0.20221  -0.18356  -0.16492  -0.11320   0.04511
 Alpha virt. eigenvalues --    0.06258   0.06733   0.07062   0.07686   0.08293
 Alpha virt. eigenvalues --    0.08743   0.09336   0.10008   0.10165   0.10407
 Alpha virt. eigenvalues --    0.10870   0.11576   0.12445   0.12809   0.13339

  Beta  occ. eigenvalues --  -14.22185 -14.19968 -10.14292 -10.11160 -10.10431
  Beta  occ. eigenvalues --  -10.08451 -10.07197 -10.07083 -10.06642 -10.06587
  Beta  occ. eigenvalues --  -10.06409 -10.06230 -10.05426  -0.86885  -0.80699
  Beta  occ. eigenvalues --   -0.70847  -0.69834  -0.67146  -0.63382  -0.61090
  Beta  occ. eigenvalues --   -0.56055  -0.53521  -0.52232  -0.49778  -0.45707
  Beta  occ. eigenvalues --   -0.43849  -0.40532  -0.38580  -0.37331  -0.36328
  Beta  occ. eigenvalues --   -0.34232  -0.33893  -0.33526  -0.31916  -0.29969
  Beta  occ. eigenvalues --   -0.29691  -0.29072  -0.28857  -0.28421  -0.26474
  Beta  occ. eigenvalues --   -0.26107  -0.25238  -0.23285  -0.22225  -0.22146
  Beta  occ. eigenvalues --   -0.20128  -0.18077  -0.16433  -0.11231
  Beta virt. eigenvalues --    0.06643   0.07059   0.07222   0.07739   0.08202
  Beta virt. eigenvalues --    0.08862   0.09159   0.09412   0.10385   0.10550
  Beta virt. eigenvalues --    0.10869   0.11349   0.11850   0.12767   0.13185

 Mulliken charges and spin densities:
               1          2
     1  C    1.087894  -1.707882
     2  C   -1.141420   0.995601
     3  C    1.138473  -1.540560
     4  C   -0.484296   0.670055
     5  C   -1.140244   0.505763
     6  C    1.713069  -2.323372
     7  N    0.076611   0.065892
     8  C   -1.201897   0.168128
     9  C    1.549367  -0.664072
    10  C   -1.419778   0.972189
    11  C    0.929590  -0.936442
    12  C   -0.336201   0.145691
    13  N   -0.029461   0.030063
    14  H    0.216452  -0.102504
    15  H   -0.464376   0.606138
    16  H   -0.148762   0.277273
    17  H   -0.140338   0.284961
    18  H   -0.450279   0.618727
    19  H   -0.130347   0.271721
    20  H   -0.241520   0.404576
    21  H   -0.107924   0.270264
    22  H    0.288762  -0.125894
    23  H    0.032247   0.145208
    24  H   -0.202605   0.343795
    25  H   -0.043696   0.195171
    26  H   -0.189307   0.353907
    27  H    0.285699  -0.011354
    28  H    0.201478  -0.055790
    29  H   -0.578706   0.763763
    30  H   -0.119973   0.264640
    31  H    0.051486   0.114344
 Sum of Mulliken charges =  -1.00000   1.00000

 Dipole moment (field-independent basis, Debye):
    X=             -4.0898    Y=             -2.7505    Z=              1.2130  Tot=              5.0758
 Quadrupole moment (field-independent basis, Debye-Ang):
   XX=           -158.7542   YY=           -133.7490   ZZ=           -111.3513
   XY=             -2.7609   XZ=             -0.4525   YZ=              2.5300

 Summary of Natural Population Analysis:

                                       Natural Population
                Natural  -----------------------------------------------
    Atom  No    Charge         Core      Valence    Rydberg      Total
 -----------------------------------------------------------------------
      C    1   -0.28726      0.99966     2.28168    0.00591     3.28726
      C    2   -0.19104      0.99964     2.18341    0.00798     3.19104
      C    3   -0.18981      0.99963     2.18129    0.00890     3.18981
      C    4   -0.19585      0.99960     2.18772    0.00853     3.19585
      C    5   -0.01270      0.99959     2.00192    0.01119     3.01270
      C    6   -0.28690      0.99965     2.28083    0.00643     3.28690
      N    7   -0.31209      0.99966     2.80157    0.01085     3.81209
      C    8    0.20594      0.99954     1.77984    0.01468     2.79406
      C    9   -0.14558      0.99952     2.13761    0.00845     3.14558
      C   10   -0.06593      0.99957     2.05572    0.01064     3.06593
      C   11   -0.15568      0.99956     2.14604    0.01009     3.15568
      C   12    0.03971      0.99959     1.94685    0.01385     2.96029
      N   13   -0.25815      0.99968     2.74776    0.01071     3.75815
      H   14    0.09536      0.00000     0.40314    0.00150     0.40464
      H   15    0.10077      0.00000     0.39792    0.00131     0.39923
      H   16    0.09506      0.00000     0.40386    0.00109     0.40494
      H   17    0.09206      0.00000     0.40633    0.00160     0.40794
      H   18    0.09787      0.00000     0.40046    0.00167     0.40213
      H   19    0.09774      0.00000     0.40067    0.00159     0.40226
      H   20    0.09628      0.00000     0.40265    0.00107     0.40372
      H   21    0.09637      0.00000     0.40247    0.00116     0.40363
      H   22    0.10113      0.00000     0.39712    0.00175     0.39887
      H   23    0.09538      0.00000     0.40182    0.00280     0.40462
      H   24    0.09564      0.00000     0.40320    0.00116     0.40436
      H   25    0.10333      0.00000     0.39561    0.00106     0.39667
      H   26    0.10513      0.00000     0.39381    0.00105     0.39487
      H   27    0.18709      0.00000     0.30939    0.00352     0.31291
      H   28    0.10593      0.00000     0.39216    0.00191     0.39407
      H   29    0.10208      0.00000     0.39675    0.00117     0.39792
      H   30    0.10209      0.00000     0.39699    0.00093     0.39791
      H   31    0.08602      0.00000     0.41294    0.00104     0.41398
 =======================================================================
   * Total *   -0.00000     12.99489    35.84952    0.15559    49.00000

 Normal termination of Gaussian 16 at Wed Dec  9 23:02:18 2020.
