 Gaussian 16, Revision A.03,

 -----------------------------------------------------------
 # opt freq B3LYP/6-31G(d) empiricaldispersion=gd3bj scf=xqc
 -----------------------------------------------------------

 -------------------------------
 CID_123198263_JID_2128_neutraal
 -------------------------------
 Symbolic Z-matrix:
 Charge =  0 Multiplicity = 1

 SCF Done:  E(RB3LYP) =  -470.320015110     A.U. after   17 cycles
 SCF Done:  E(RB3LYP) =  -470.364275990     A.U. after   14 cycles
 SCF Done:  E(RB3LYP) =  -470.403207941     A.U. after   13 cycles
 SCF Done:  E(RB3LYP) =  -470.408302306     A.U. after   13 cycles
 SCF Done:  E(RB3LYP) =  -470.409581146     A.U. after   12 cycles
 SCF Done:  E(RB3LYP) =  -470.409311618     A.U. after   12 cycles
 SCF Done:  E(RB3LYP) =  -470.410258736     A.U. after   12 cycles
 SCF Done:  E(RB3LYP) =  -470.410781169     A.U. after   11 cycles
 SCF Done:  E(RB3LYP) =  -470.410861909     A.U. after   11 cycles
 SCF Done:  E(RB3LYP) =  -470.410907460     A.U. after   11 cycles
 SCF Done:  E(RB3LYP) =  -470.513705519     A.U. after    9 cycles
 SCF Done:  E(RB3LYP) =  -470.513707816     A.U. after    7 cycles
 SCF Done:  E(RB3LYP) =  -470.513708411     A.U. after    7 cycles
 SCF Done:  E(RB3LYP) =  -470.513708528     A.U. after    6 cycles
 SCF Done:  E(RB3LYP) =  -470.513708560     A.U. after    6 cycles
 Optimization completed.
    -- Stationary point found.
 Normal termination of Gaussian 16 at Wed Dec  9 17:30:45 2020.

 --------------------------------------------------------------------
 #N Geom=AllCheck Guess=TCheck SCRF=Check GenChk RB3LYP/6-31G(d) Freq
 --------------------------------------------------------------------

 Structure from the checkpoint file:  "JID_2128.chk"
 -------------------------------
 CID_123198263_JID_2128_neutraal
 -------------------------------
 Charge =  0 Multiplicity = 1

 SCF Done:  E(RB3LYP) =  -470.513708561     A.U. after    1 cycles

  Exact polarizability: 141.819   3.386 119.457   0.500  -1.034 103.699
 Approx polarizability: 172.638   1.720 168.381  -1.707   2.562 163.743

                      1                      2                      3
                      A                      A                      A
 Frequencies --     50.4277                66.2389               101.5416
 Red. masses --      2.6539                 3.0441                 2.4364
 Frc consts  --      0.0040                 0.0079                 0.0148
 IR Inten    --      0.0798                 0.0895                 0.1044

                      4                      5                      6
                      A                      A                      A
 Frequencies --    126.2438               146.1419               192.8382
 Red. masses --      2.2969                 2.4365                 2.1140
 Frc consts  --      0.0216                 0.0307                 0.0463
 IR Inten    --      0.0105                 0.0432                 0.9850

                      7                      8                      9
                      A                      A                      A
 Frequencies --    214.1648               233.2692               235.8605
 Red. masses --      1.1542                 1.0651                 1.2269
 Frc consts  --      0.0312                 0.0341                 0.0402
 IR Inten    --      0.0342                 0.1505                 0.2159

                     10                     11                     12
                      A                      A                      A
 Frequencies --    250.0371               270.6909               274.9711
 Red. masses --      1.8115                 1.2652                 1.2904
 Frc consts  --      0.0667                 0.0546                 0.0575
 IR Inten    --      0.6154                 0.0109                 0.0054

                     13                     14                     15
                      A                      A                      A
 Frequencies --    288.5029               306.9382               318.1790
 Red. masses --      2.5331                 2.1987                 2.9444
 Frc consts  --      0.1242                 0.1220                 0.1756
 IR Inten    --      0.5855                 0.6314                 0.2057

                     16                     17                     18
                      A                      A                      A
 Frequencies --    382.4469               395.7013               430.4410
 Red. masses --      1.9938                 2.3231                 2.3419
 Frc consts  --      0.1718                 0.2143                 0.2557
 IR Inten    --      0.3070                 0.1018                 0.1295

                     19                     20                     21
                      A                      A                      A
 Frequencies --    434.4814               486.4581               507.5136
 Red. masses --      2.3352                 2.7481                 2.5675
 Frc consts  --      0.2597                 0.3831                 0.3896
 IR Inten    --      0.0987                 1.1648                 1.2316

                     22                     23                     24
                      A                      A                      A
 Frequencies --    568.4667               625.8459               788.0425
 Red. masses --      2.6004                 1.5084                 2.8510
 Frc consts  --      0.4951                 0.3481                 1.0432
 IR Inten    --      0.9809                 4.3052                 0.7608

                     25                     26                     27
                      A                      A                      A
 Frequencies --    833.0947               843.8266               852.1546
 Red. masses --      1.9034                 2.4696                 2.3293
 Frc consts  --      0.7783                 1.0361                 0.9966
 IR Inten    --      0.8099                 6.9069                21.6298

                     28                     29                     30
                      A                      A                      A
 Frequencies --    882.8153               890.9445               920.5846
 Red. masses --      2.3468                 2.6806                 1.9804
 Frc consts  --      1.0776                 1.2537                 0.9889
 IR Inten    --      1.0415                 3.1243                 0.0437

                     31                     32                     33
                      A                      A                      A
 Frequencies --    943.9356               957.3026               968.0536
 Red. masses --      1.2373                 1.4660                 1.8677
 Frc consts  --      0.6496                 0.7916                 1.0313
 IR Inten    --      1.5662                 1.0781                 0.6733

                     34                     35                     36
                      A                      A                      A
 Frequencies --    978.1292              1004.4736              1010.6203
 Red. masses --      1.5140                 1.7359                 1.5190
 Frc consts  --      0.8534                 1.0319                 0.9141
 IR Inten    --      0.1966                 2.7499                 0.3970

                     37                     38                     39
                      A                      A                      A
 Frequencies --   1018.6195              1037.4428              1087.9159
 Red. masses --      1.3364                 1.2876                 1.6196
 Frc consts  --      0.8170                 0.8165                 1.1294
 IR Inten    --     10.0257                 1.0352                 0.8138

                     40                     41                     42
                      A                      A                      A
 Frequencies --   1093.4612              1120.7749              1142.9986
 Red. masses --      1.5260                 1.6380                 1.8313
 Frc consts  --      1.0750                 1.2123                 1.4096
 IR Inten    --      1.2569                 0.1296                 0.4369

                     43                     44                     45
                      A                      A                      A
 Frequencies --   1154.0055              1157.4802              1163.6888
 Red. masses --      1.9584                 1.6349                 1.3217
 Frc consts  --      1.5366                 1.2905                 1.0545
 IR Inten    --      3.6816                 1.1090                 0.2107

                     46                     47                     48
                      A                      A                      A
 Frequencies --   1198.6152              1205.4238              1215.3544
 Red. masses --      1.2656                 1.9146                 2.0672
 Frc consts  --      1.0713                 1.6391                 1.7990
 IR Inten    --      2.8791                11.4409                 2.3231

                     49                     50                     51
                      A                      A                      A
 Frequencies --   1241.6437              1262.5942              1299.4918
 Red. masses --      2.1381                 2.3393                 1.6018
 Frc consts  --      1.9421                 2.1971                 1.5937
 IR Inten    --      4.5469                 4.2779                 3.9883

                     52                     53                     54
                      A                      A                      A
 Frequencies --   1315.3159              1328.0643              1351.1001
 Red. masses --      1.4041                 2.2259                 1.3971
 Frc consts  --      1.4312                 2.3131                 1.5026
 IR Inten    --      4.2127                 2.6848                 5.9594

                     55                     56                     57
                      A                      A                      A
 Frequencies --   1383.9310              1412.1962              1427.3296
 Red. masses --      1.3821                 1.4612                 1.2673
 Frc consts  --      1.5596                 1.7169                 1.5212
 IR Inten    --      0.2604                 1.5011                 7.8639

                     58                     59                     60
                      A                      A                      A
 Frequencies --   1429.7979              1433.3581              1439.0349
 Red. masses --      1.2583                 1.3716                 1.7858
 Frc consts  --      1.5156                 1.6603                 2.1789
 IR Inten    --      2.4556                 5.1841                 2.1755

                     61                     62                     63
                      A                      A                      A
 Frequencies --   1449.3251              1451.2387              1459.8578
 Red. masses --      1.5569                 1.2985                 1.5261
 Frc consts  --      1.9269                 1.6112                 1.9163
 IR Inten    --     12.2264                 6.3049                 5.4804

                     64                     65                     66
                      A                      A                      A
 Frequencies --   1510.2764              1517.8996              1521.2253
 Red. masses --      1.0719                 1.0486                 1.0456
 Frc consts  --      1.4406                 1.4234                 1.4256
 IR Inten    --      0.1390                 0.7971                 0.2420

                     67                     68                     69
                      A                      A                      A
 Frequencies --   1522.2637              1523.3710              1528.7940
 Red. masses --      1.0525                 1.0450                 1.0617
 Frc consts  --      1.4370                 1.4289                 1.4619
 IR Inten    --      3.3839                 2.3050                 3.8813

                     70                     71                     72
                      A                      A                      A
 Frequencies --   1532.6732              1535.5250              1536.2290
 Red. masses --      1.0756                 1.0508                 1.0513
 Frc consts  --      1.4886                 1.4598                 1.4618
 IR Inten    --      4.3391                 2.7168                 5.3256

                     73                     74                     75
                      A                      A                      A
 Frequencies --   1543.0574              1543.8753              3019.4023
 Red. masses --      1.0652                 1.0571                 1.0595
 Frc consts  --      1.4943                 1.4845                 5.6912
 IR Inten    --      5.1006                 9.1917                15.5118

                     76                     77                     78
                      A                      A                      A
 Frequencies --   3028.9600              3034.8803              3042.4727
 Red. masses --      1.0797                 1.0366                 1.0427
 Frc consts  --      5.8363                 5.6252                 5.6867
 IR Inten    --     11.7744                29.1234                63.2135

                     79                     80                     81
                      A                      A                      A
 Frequencies --   3043.7848              3045.3281              3048.4256
 Red. masses --      1.0474                 1.0375                 1.0721
 Frc consts  --      5.7171                 5.6691                 5.8698
 IR Inten    --      9.2317                50.2188                72.4521

                     82                     83                     84
                      A                      A                      A
 Frequencies --   3048.9150              3053.8454              3057.0717
 Red. masses --      1.0807                 1.0445                 1.0970
 Frc consts  --      5.9189                 5.7393                 6.0403
 IR Inten    --      9.3095                 8.4130                44.5506

                     85                     86                     87
                      A                      A                      A
 Frequencies --   3095.7304              3103.4754              3108.4719
 Red. masses --      1.1013                 1.1007                 1.1025
 Frc consts  --      6.2183                 6.2465                 6.2767
 IR Inten    --      4.1262                65.9224                37.2462

                     88                     89                     90
                      A                      A                      A
 Frequencies --   3110.5993              3110.6708              3113.6164
 Red. masses --      1.1022                 1.1023                 1.1021
 Frc consts  --      6.2834                 6.2845                 6.2953
 IR Inten    --     10.4674                25.3145                47.5310

                     91                     92                     93
                      A                      A                      A
 Frequencies --   3116.1333              3118.1627              3124.0639
 Red. masses --      1.1009                 1.1017                 1.1020
 Frc consts  --      6.2985                 6.3112                 6.3367
 IR Inten    --     55.9771                45.6530                35.8569

                     94                     95                     96
                      A                      A                      A
 Frequencies --   3144.2213              3245.4604              3257.6268
 Red. masses --      1.0976                 1.0900                 1.0989
 Frc consts  --      6.3933                 6.7642                 6.8709
 IR Inten    --     20.0547                 4.4177                 2.3429

 - Thermochemistry -
 -------------------
 Temperature   298.150 Kelvin.  Pressure   1.00000 Atm.
 Atom     1 has atomic number  6 and mass  12.00000

 Molecular mass:   166.17215 amu.
 Principal axes and moments of inertia in atomic units:
                           1         2         3
     Eigenvalues --  1285.927453277.772624013.52336
           X            0.99999  -0.00153   0.00429
           Y            0.00155   0.99999  -0.00419
           Z           -0.00428   0.00419   0.99998
 This molecule is an asymmetric top.
 Rotational symmetry number  1.
 Warning -- assumption of classical behavior for rotation
           may cause significant error
 Rotational temperatures (Kelvin)      0.06736     0.02642     0.02158
 Rotational constants (GHZ):           1.40345     0.55060     0.44967
 Zero-point vibrational energy     825112.0 (Joules/Mol)
                                  197.20649 (Kcal/Mol)
 Warning -- explicit consideration of  22 degrees of freedom as
           vibrations may cause significant error
 Vibrational temperatures:     72.55    95.30   146.10   181.64   210.27
          (Kelvin)            277.45   308.14   335.62   339.35   359.75
                              389.46   395.62   415.09   441.62   457.79
                              550.26   569.33   619.31   625.12   699.90
                              730.20   817.90   900.45  1133.82  1198.64
                             1214.08  1226.06  1270.17  1281.87  1324.52
                             1358.11  1377.34  1392.81  1407.31  1445.21
                             1454.06  1465.57  1492.65  1565.27  1573.25
                             1612.55  1644.52  1660.36  1665.36  1674.29
                             1724.54  1734.34  1748.62  1786.45  1816.59
                             1869.68  1892.45  1910.79  1943.93  1991.17
                             2031.84  2053.61  2057.16  2062.28  2070.45
                             2085.26  2088.01  2100.41  2172.95  2183.92
                             2188.70  2190.20  2191.79  2199.59  2205.17
                             2209.28  2210.29  2220.12  2221.29  4344.25
                             4358.00  4366.52  4377.44  4379.33  4381.55
                             4386.00  4386.71  4393.80  4398.44  4454.07
                             4465.21  4472.40  4475.46  4475.56  4479.80
                             4483.42  4486.34  4494.83  4523.83  4669.49
                             4687.00

 Zero-point correction=                           0.314269 (Hartree/Particle)
 Thermal correction to Energy=                    0.328682
 Thermal correction to Enthalpy=                  0.329627
 Thermal correction to Gibbs Free Energy=         0.274298
 Sum of electronic and zero-point Energies=           -470.199440
 Sum of electronic and thermal Energies=              -470.185026
 Sum of electronic and thermal Enthalpies=            -470.184082
 Sum of electronic and thermal Free Energies=         -470.239410

                     E (Thermal)             CV                S
                      KCal/Mol        Cal/Mol-Kelvin    Cal/Mol-Kelvin
 Total                  206.251             55.449            116.448
 Electronic               0.000              0.000              0.000
 Translational            0.889              2.981             41.232
 Rotational               0.889              2.981             31.204
 Vibrational            204.474             49.488             44.012
 Vibration     1          0.595              1.977              4.801
 Vibration     2          0.598              1.970              4.262
 Vibration     3          0.604              1.948              3.425
 Vibration     4          0.611              1.927              3.002
 Vibration     5          0.617              1.907              2.722
 Vibration     6          0.635              1.850              2.200
 Vibration     7          0.644              1.819              2.008
 Vibration     8          0.654              1.790              1.854
 Vibration     9          0.655              1.786              1.834
 Vibration    10          0.663              1.763              1.730
 Vibration    11          0.674              1.727              1.592
 Vibration    12          0.677              1.720              1.565
 Vibration    13          0.685              1.695              1.483
 Vibration    14          0.697              1.661              1.379
 Vibration    15          0.705              1.639              1.319
 Vibration    16          0.752              1.508              1.029
 Vibration    17          0.762              1.479              0.979
 Vibration    18          0.792              1.404              0.857
 Vibration    19          0.795              1.395              0.844
 Vibration    20          0.842              1.280              0.693
 Vibration    21          0.863              1.233              0.640
 Vibration    22          0.924              1.099              0.507

 Optimization completed.
    -- Stationary point found.
 Normal termination of Gaussian 16 at Wed Dec  9 17:40:59 2020.

 ----------------------------------------------------------------------
 # B3LYP/6-311++G(d,p) empiricaldispersion=gd3bj scf=xqc pop=npa geom=c
 heck
 ----------------------------------------------------------------------

 ---------------------------------------
 CID_123198263_JID_2128_Energie_neutraal
 ---------------------------------------
 Structure from the checkpoint file:  "JID_2128.chk"
 Charge =  0 Multiplicity = 1

 SCF Done:  E(RB3LYP) =  -470.640791329     A.U. after   14 cycles
 Normal termination of Gaussian 16 at Wed Dec  9 17:46:09 2020.

 ----------------------------------------------------------------------
 # B3LYP/6-311++G(d,p) empiricaldispersion=gd3bj scf=xqc pop=npa geom=c
 heck
 ----------------------------------------------------------------------

 -------------------------------------
 CID_123198263_JID_2128_Energie_kation
 -------------------------------------
 Structure from the checkpoint file:  "JID_2128.chk"
 Charge =  1 Multiplicity = 2

 SCF Done:  E(UB3LYP) =  -470.324649162     A.U. after   20 cycles
 Normal termination of Gaussian 16 at Wed Dec  9 17:55:49 2020.
 Gaussian 16:  ES64L-G16RevA.03 25-Dec-2016

 ----------------------------------------------------------------------
 # B3LYP/6-311++G(d,p) empiricaldispersion=gd3bj scf=xqc pop=npa geom=c
 heck
 ----------------------------------------------------------------------

 ------------------------------------
 CID_123198263_JID_2128_Energie_anion
 ------------------------------------
 Structure from the checkpoint file:  "JID_2128.chk"
 Charge = -1 Multiplicity = 2

                         Standard orientation:
 ---------------------------------------------------------------------
 Center     Atomic      Atomic             Coordinates (Angstroms)
 Number     Number       Type             X           Y           Z
 ---------------------------------------------------------------------
      1          6           0       -4.118321   -1.022680   -0.117739
      2          6           0       -2.717813   -0.834395    0.426004
      3          6           0       -1.606091   -0.498889   -0.522762
      4          6           0       -2.117831    0.539582    0.433432
      5          6           0       -0.666030    0.162527    0.440641
      6          6           0        0.425433    1.126235   -0.029384
      7          6           0       -0.081948    2.098999   -1.108438
      8          6           0        0.887544    1.950105    1.188169
      9          6           0        1.626557    0.345560   -0.628847
     10          6           0        2.235985   -0.798924    0.215708
     11          6           0        1.614943   -2.161998   -0.123917
     12          6           0        3.758171   -0.853557    0.026020
     13          1           0       -4.870552   -0.825980    0.654707
     14          1           0       -4.267682   -2.048216   -0.474395
     15          1           0       -4.308967   -0.342421   -0.956098
     16          1           0       -2.472399   -1.491364    1.269044
     17          1           0       -1.621169   -0.475869   -1.603523
     18          1           0       -2.592076    1.481980    0.198913
     19          1           0       -0.337080   -0.449710    1.288366
     20          1           0       -0.873105    2.751902   -0.725463
     21          1           0        0.739139    2.740802   -1.447329
     22          1           0       -0.470909    1.569752   -1.984683
     23          1           0        1.273894    1.310038    1.988599
     24          1           0        1.682207    2.650491    0.904690
     25          1           0        0.053649    2.528361    1.601356
     26          1           0        1.327523   -0.062180   -1.604620
     27          1           0        2.408086    1.088329   -0.840684
     28          1           0        2.046272   -0.595188    1.278456
     29          1           0        1.850149   -2.437442   -1.160419
     30          1           0        2.015033   -2.948777    0.526773
     31          1           0        0.526595   -2.154520   -0.023946
     32          1           0        4.232796    0.082603    0.342621
     33          1           0        4.203109   -1.672205    0.604002
     34          1           0        4.011892   -1.015782   -1.029694
 ---------------------------------------------------------------------

 SCF Done:  E(UB3LYP) =  -470.623084304     A.U. after   33 cycles
 SCF Done:  E(UB3LYP) =  -470.623084304     a.u. after    1 cycles

 The electronic state is 2-A.
 Alpha  occ. eigenvalues --  -10.09120 -10.08719 -10.08684 -10.08056 -10.07995
 Alpha  occ. eigenvalues --  -10.07383 -10.06589 -10.06193 -10.05872 -10.05814
 Alpha  occ. eigenvalues --  -10.05783 -10.05497  -0.82760  -0.72919  -0.68741
 Alpha  occ. eigenvalues --   -0.64124  -0.58849  -0.58415  -0.57795  -0.54791
 Alpha  occ. eigenvalues --   -0.48015  -0.47710  -0.46903  -0.44070  -0.39249
 Alpha  occ. eigenvalues --   -0.37175  -0.36009  -0.34837  -0.33220  -0.32352
 Alpha  occ. eigenvalues --   -0.32059  -0.31532  -0.30127  -0.29140  -0.28656
 Alpha  occ. eigenvalues --   -0.28404  -0.27174  -0.26468  -0.25779  -0.24842
 Alpha  occ. eigenvalues --   -0.23939  -0.22687  -0.21801  -0.21230  -0.20726
 Alpha  occ. eigenvalues --   -0.18829  -0.14353   0.04529
 Alpha virt. eigenvalues --    0.06251   0.06926   0.07529   0.08451   0.08518
 Alpha virt. eigenvalues --    0.09165   0.09666   0.09985   0.10595   0.10961
 Alpha virt. eigenvalues --    0.11384   0.12114   0.12257   0.13067   0.13293

  Beta  occ. eigenvalues --  -10.09114 -10.08714 -10.08681 -10.08045 -10.07985
  Beta  occ. eigenvalues --  -10.07376 -10.06555 -10.06180 -10.05845 -10.05793
  Beta  occ. eigenvalues --  -10.05759 -10.05481  -0.82749  -0.72902  -0.68718
  Beta  occ. eigenvalues --   -0.64088  -0.58806  -0.58370  -0.57758  -0.54750
  Beta  occ. eigenvalues --   -0.47973  -0.47669  -0.46858  -0.44028  -0.39212
  Beta  occ. eigenvalues --   -0.37144  -0.35979  -0.34813  -0.33193  -0.32320
  Beta  occ. eigenvalues --   -0.32031  -0.31500  -0.30090  -0.29106  -0.28631
  Beta  occ. eigenvalues --   -0.28367  -0.27141  -0.26440  -0.25754  -0.24819
  Beta  occ. eigenvalues --   -0.23910  -0.22664  -0.21775  -0.21204  -0.20706
  Beta  occ. eigenvalues --   -0.18815  -0.14341
  Beta virt. eigenvalues --    0.06543   0.07163   0.07605   0.07982   0.08879
  Beta virt. eigenvalues --    0.09198   0.09616   0.10034   0.10341   0.10999
  Beta virt. eigenvalues --    0.11463   0.11842   0.12440   0.12571   0.13325

 Mulliken charges and spin densities:
               1          2
     1  C    2.090020  -2.835020
     2  C   -0.851243   0.920686
     3  C    0.137955  -0.603223
     4  C   -0.715807   0.532126
     5  C    1.526325  -1.766381
     6  C   -1.440090   2.259284
     7  C    0.570181  -1.088994
     8  C    0.351677  -0.999480
     9  C    0.473566  -1.064506
    10  C   -1.597856   2.087895
    11  C    0.034275  -0.729071
    12  C    0.722770  -1.364262
    13  H   -0.270616   0.414113
    14  H   -0.128687   0.270943
    15  H   -0.240589   0.385253
    16  H   -0.379512   0.564699
    17  H   -0.177137   0.360530
    18  H   -0.464860   0.637870
    19  H    0.184476   0.049835
    20  H    0.073309   0.056674
    21  H   -0.307162   0.455428
    22  H   -0.123066   0.272490
    23  H   -0.076864   0.209116
    24  H   -0.244003   0.403827
    25  H    0.022866   0.133203
    26  H    0.003435   0.123370
    27  H    0.221601  -0.040554
    28  H    0.133223  -0.000844
    29  H   -0.011443   0.143677
    30  H   -0.181362   0.313357
    31  H    0.265159  -0.113674
    32  H   -0.241029   0.371793
    33  H   -0.293293   0.432771
    34  H   -0.066220   0.207072
 Sum of Mulliken charges =  -1.00000   1.00000

 Dipole moment (field-independent basis, Debye):
    X=              0.9616    Y=             -0.3843    Z=              0.4004  Tot=              1.1102
 Quadrupole moment (field-independent basis, Debye-Ang):
   XX=           -164.0628   YY=           -127.0943   ZZ=           -114.0237
   XY=             -1.0177   XZ=             -3.1992   YZ=              2.6996

 Summary of Natural Population Analysis:

                                       Natural Population
                Natural  -----------------------------------------------
    Atom  No    Charge         Core      Valence    Rydberg      Total
 -----------------------------------------------------------------------
      C    1   -0.28553      0.99965     2.28098    0.00490     3.28553
      C    2   -0.10178      0.99959     2.09109    0.01109     3.10178
      C    3   -0.11292      0.99949     2.10057    0.01285     3.11292
      C    4   -0.10837      0.99950     2.09614    0.01273     3.10837
      C    5   -0.10206      0.99955     2.08885    0.01366     3.10206
      C    6   -0.04612      0.99956     2.03358    0.01298     3.04612
      C    7   -0.28461      0.99963     2.27704    0.00794     3.28461
      C    8   -0.28176      0.99963     2.27498    0.00715     3.28176
      C    9   -0.18128      0.99958     2.17109    0.01061     3.18128
      C   10   -0.11967      0.99962     2.11076    0.00930     3.11967
      C   11   -0.28213      0.99964     2.27766    0.00483     3.28213
      C   12   -0.28037      0.99965     2.27489    0.00582     3.28037
      H   13    0.10072      0.00000     0.39796    0.00132     0.39928
      H   14    0.10041      0.00000     0.39834    0.00125     0.39959
      H   15    0.10022      0.00000     0.39802    0.00175     0.39978
      H   16    0.09137      0.00000     0.40699    0.00164     0.40863
      H   17    0.10975      0.00000     0.38901    0.00123     0.39025
      H   18    0.11017      0.00000     0.38859    0.00124     0.38983
      H   19    0.09616      0.00000     0.40125    0.00259     0.40384
      H   20    0.10050      0.00000     0.39831    0.00119     0.39950
      H   21    0.10142      0.00000     0.39757    0.00101     0.39858
      H   22    0.10101      0.00000     0.39772    0.00127     0.39899
      H   23    0.09896      0.00000     0.39992    0.00112     0.40104
      H   24    0.09971      0.00000     0.39932    0.00097     0.40029
      H   25    0.10085      0.00000     0.39819    0.00096     0.39915
      H   26    0.09787      0.00000     0.40071    0.00142     0.40213
      H   27    0.09808      0.00000     0.40054    0.00139     0.40192
      H   28    0.09229      0.00000     0.40559    0.00212     0.40771
      H   29    0.09402      0.00000     0.40496    0.00102     0.40598
      H   30    0.09619      0.00000     0.40290    0.00091     0.40381
      H   31    0.10514      0.00000     0.39367    0.00119     0.39486
      H   32    0.09908      0.00000     0.39989    0.00104     0.40092
      H   33    0.09774      0.00000     0.40126    0.00100     0.40226
      H   34    0.09493      0.00000     0.40409    0.00097     0.40507
 =======================================================================
   * Total *    0.00000     11.99509    34.86245    0.14246    47.00000

 Normal termination of Gaussian 16 at Wed Dec  9 18:09:18 2020.
