 Gaussian 16, Revision A.03,

 -----------------------------------------------------------
 # opt freq B3LYP/6-31G(d) empiricaldispersion=gd3bj scf=xqc
 -----------------------------------------------------------

 ------------------------------
 CID_79962587_JID_1578_neutraal
 ------------------------------
 Symbolic Z-matrix:
 Charge =  0 Multiplicity = 1

 SCF Done:  E(RB3LYP) =  -861.888836076     A.U. after   13 cycles
 SCF Done:  E(RB3LYP) =  -861.891175978     A.U. after   11 cycles
 SCF Done:  E(RB3LYP) =  -861.891364658     A.U. after   11 cycles
 SCF Done:  E(RB3LYP) =  -861.892651231     A.U. after   11 cycles
 SCF Done:  E(RB3LYP) =  -861.893586787     A.U. after   11 cycles
 SCF Done:  E(RB3LYP) =  -861.893912275     A.U. after   11 cycles
 SCF Done:  E(RB3LYP) =  -861.894395223     A.U. after   11 cycles
 SCF Done:  E(RB3LYP) =  -861.894611178     A.U. after   10 cycles
 SCF Done:  E(RB3LYP) =  -861.894707297     A.U. after   11 cycles
 SCF Done:  E(RB3LYP) =  -861.894766054     A.U. after    9 cycles
 SCF Done:  E(RB3LYP) =  -861.902946579     A.U. after   11 cycles
 SCF Done:  E(RB3LYP) =  -861.902966625     A.U. after   10 cycles
 SCF Done:  E(RB3LYP) =  -861.902970587     A.U. after    9 cycles
 SCF Done:  E(RB3LYP) =  -861.902970869     A.U. after    7 cycles
 SCF Done:  E(RB3LYP) =  -861.902971735     A.U. after    9 cycles
 SCF Done:  E(RB3LYP) =  -861.902971738     A.U. after    7 cycles
 Optimization completed.
    -- Stationary point found.
 Normal termination of Gaussian 16 at Tue Dec  8 20:02:53 2020.

 --------------------------------------------------------------------
 #N Geom=AllCheck Guess=TCheck SCRF=Check GenChk RB3LYP/6-31G(d) Freq
 --------------------------------------------------------------------

 Structure from the checkpoint file:  "JID_1578.chk"
 ------------------------------
 CID_79962587_JID_1578_neutraal
 ------------------------------
 Charge =  0 Multiplicity = 1

 SCF Done:  E(RB3LYP) =  -861.902971738     A.U. after    1 cycles

  Exact polarizability: 120.082  -2.381  98.036  -2.376   4.298  86.568
 Approx polarizability: 150.802  -1.528 148.344  -5.478   7.216 132.741

                      1                      2                      3
                      A                      A                      A
 Frequencies --     44.6106                78.3728                80.1215
 Red. masses --      3.2541                 3.0014                 4.7799
 Frc consts  --      0.0038                 0.0109                 0.0181
 IR Inten    --      2.9599                 0.0110                 0.6038

                      4                      5                      6
                      A                      A                      A
 Frequencies --    134.3158               176.9384               193.9404
 Red. masses --      3.5037                 3.8240                 3.6530
 Frc consts  --      0.0372                 0.0705                 0.0810
 IR Inten    --      3.7544                 2.6557                 2.8348

                      7                      8                      9
                      A                      A                      A
 Frequencies --    269.4244               280.1926               302.8036
 Red. masses --      3.2495                 2.2875                 2.6863
 Frc consts  --      0.1390                 0.1058                 0.1451
 IR Inten    --      0.1754                 3.1597                 1.5589

                     10                     11                     12
                      A                      A                      A
 Frequencies --    339.3371               374.8620               437.1407
 Red. masses --      3.6875                 7.9759                 1.2130
 Frc consts  --      0.2502                 0.6603                 0.1366
 IR Inten    --      0.7144                 0.3257               125.7411

                     13                     14                     15
                      A                      A                      A
 Frequencies --    478.1370               521.6515               542.2589
 Red. masses --      2.9232                 3.5608                 2.2363
 Frc consts  --      0.3937                 0.5709                 0.3874
 IR Inten    --     19.4200                 9.1193                 1.5936

                     16                     17                     18
                      A                      A                      A
 Frequencies --    663.3248               668.1077               750.5588
 Red. masses --      4.3962                 3.6137                 4.1289
 Frc consts  --      1.1397                 0.9504                 1.3704
 IR Inten    --      4.0351                 9.3721                11.3961

                     19                     20                     21
                      A                      A                      A
 Frequencies --    774.0676               813.0460               842.5432
 Red. masses --      1.3599                 2.0355                 1.3717
 Frc consts  --      0.4801                 0.7928                 0.5737
 IR Inten    --      2.8093                11.1873                 3.5830

                     22                     23                     24
                      A                      A                      A
 Frequencies --    854.1576               892.9601               941.0787
 Red. masses --      1.5875                 2.2659                 2.8288
 Frc consts  --      0.6824                 1.0645                 1.4760
 IR Inten    --      6.3554                 4.1596                11.5487

                     25                     26                     27
                      A                      A                      A
 Frequencies --    958.5898               983.4872               987.3366
 Red. masses --      3.4538                 1.7345                 1.9236
 Frc consts  --      1.8699                 0.9885                 1.1048
 IR Inten    --      8.5790                12.4487                 5.2433

                     28                     29                     30
                      A                      A                      A
 Frequencies --   1050.3507              1062.9717              1073.4335
 Red. masses --      1.5870                 1.6297                 1.5755
 Frc consts  --      1.0315                 1.0849                 1.0696
 IR Inten    --     27.5647                16.9292                15.1989

                     31                     32                     33
                      A                      A                      A
 Frequencies --   1080.2377              1083.6921              1091.6320
 Red. masses --      2.4761                 1.6613                 2.2931
 Frc consts  --      1.7024                 1.1495                 1.6100
 IR Inten    --     81.8023                11.1084                33.4290

                     34                     35                     36
                      A                      A                      A
 Frequencies --   1124.7826              1152.1532              1177.0931
 Red. masses --      3.7905                 1.1098                 1.7663
 Frc consts  --      2.8254                 0.8680                 1.4419
 IR Inten    --     75.9095                 1.4467                 4.5522

                     37                     38                     39
                      A                      A                      A
 Frequencies --   1210.6132              1218.6933              1227.7282
 Red. masses --      1.4081                 1.2776                 1.8437
 Frc consts  --      1.2159                 1.1179                 1.6374
 IR Inten    --      0.8108                11.9221                31.6466

                     40                     41                     42
                      A                      A                      A
 Frequencies --   1240.2789              1264.0947              1282.4208
 Red. masses --      1.7571                 1.2623                 1.2634
 Frc consts  --      1.5925                 1.1884                 1.2242
 IR Inten    --      8.9082                12.3863                10.3352

                     43                     44                     45
                      A                      A                      A
 Frequencies --   1297.4220              1322.0078              1342.2716
 Red. masses --      1.3798                 1.4028                 1.2020
 Frc consts  --      1.3684                 1.4445                 1.2760
 IR Inten    --     20.5593                 7.3897                23.8323

                     46                     47                     48
                      A                      A                      A
 Frequencies --   1382.4418              1401.4511              1428.7578
 Red. masses --      1.4365                 1.2087                 1.3435
 Frc consts  --      1.6176                 1.3987                 1.6159
 IR Inten    --      4.7053                11.9180                34.8777

                     49                     50                     51
                      A                      A                      A
 Frequencies --   1452.7505              1453.7375              1497.6990
 Red. masses --      1.2697                 1.5172                 1.0883
 Frc consts  --      1.5789                 1.8891                 1.4383
 IR Inten    --     64.7133                16.3358                 1.9745

                     52                     53                     54
                      A                      A                      A
 Frequencies --   1503.6657              1506.0122              1537.2373
 Red. masses --      1.0927                 1.0941                 1.3670
 Frc consts  --      1.4556                 1.4620                 1.9033
 IR Inten    --      3.5421                 5.6423                 1.6395

                     55                     56                     57
                      A                      A                      A
 Frequencies --   1543.7150              3020.4497              3028.3836
 Red. masses --      1.0880                 1.0694                 1.0831
 Frc consts  --      1.5276                 5.7480                 5.8526
 IR Inten    --      2.9213                66.0264                 9.6259

                     58                     59                     60
                      A                      A                      A
 Frequencies --   3056.8872              3076.4025              3092.7486
 Red. masses --      1.0858                 1.0630                 1.0608
 Frc consts  --      5.9780                 5.9274                 5.9780
 IR Inten    --     29.4251                 8.6627                 9.5030

                     61                     62                     63
                      A                      A                      A
 Frequencies --   3094.1389              3131.0206              3141.5801
 Red. masses --      1.0894                 1.1079                 1.0602
 Frc consts  --      6.1447                 6.3992                 6.1648
 IR Inten    --     62.6616                10.4580                16.2193

                     64                     65                     66
                      A                      A                      A
 Frequencies --   3143.5434              3150.5963              3163.5222
 Red. masses --      1.0994                 1.0566                 1.0891
 Frc consts  --      6.4010                 6.1795                 6.4217
 IR Inten    --     10.8399                17.1248                 7.7794

                     67                     68                     69
                      A                      A                      A
 Frequencies --   3216.5076              3232.8495              3712.5624
 Red. masses --      1.1188                 1.1161                 1.0651
 Frc consts  --      6.8197                 6.8729                 8.6492
 IR Inten    --      2.6036                21.6571                31.1534

 - Thermochemistry -
 -------------------
 Temperature   298.150 Kelvin.  Pressure   1.00000 Atm.
 Atom     1 has atomic number  6 and mass  12.00000

 Molecular mass:   174.07145 amu.
 Principal axes and moments of inertia in atomic units:
                           1         2         3
     Eigenvalues --  1032.799683083.264843545.83725
           X            0.99949  -0.03198  -0.00260
           Y            0.03200   0.99945   0.00899
           Z            0.00231  -0.00907   0.99996
 This molecule is an asymmetric top.
 Rotational symmetry number  1.
 Warning -- assumption of classical behavior for rotation
           may cause significant error
 Rotational temperatures (Kelvin)      0.08386     0.02809     0.02443
 Rotational constants (GHZ):           1.74743     0.58533     0.50897
 Zero-point vibrational energy     566156.1 (Joules/Mol)
                                  135.31455 (Kcal/Mol)
 Warning -- explicit consideration of  15 degrees of freedom as
           vibrations may cause significant error
 Vibrational temperatures:     64.18   112.76   115.28   193.25   254.57
          (Kelvin)            279.04   387.64   403.13   435.67   488.23
                              539.34   628.95   687.93   750.54   780.19
                              954.38   961.26  1079.89  1113.71  1169.79
                             1212.23  1228.94  1284.77  1354.00  1379.20
                             1415.02  1420.56  1511.22  1529.38  1544.43
                             1554.22  1559.19  1570.61  1618.31  1657.69
                             1693.57  1741.80  1753.43  1766.43  1784.48
                             1818.75  1845.12  1866.70  1902.07  1931.23
                             1989.03  2016.38  2055.66  2090.18  2091.60
                             2154.85  2163.44  2166.82  2211.74  2221.06
                             4345.75  4357.17  4398.18  4426.26  4449.78
                             4451.78  4504.84  4520.03  4522.86  4533.01
                             4551.60  4627.84  4651.35  5341.55

 Zero-point correction=                           0.215637 (Hartree/Particle)
 Thermal correction to Energy=                    0.226919
 Thermal correction to Enthalpy=                  0.227863
 Thermal correction to Gibbs Free Energy=         0.177842
 Sum of electronic and zero-point Energies=           -861.687334
 Sum of electronic and thermal Energies=              -861.676053
 Sum of electronic and thermal Enthalpies=            -861.675109
 Sum of electronic and thermal Free Energies=         -861.725129

                     E (Thermal)             CV                S
                      KCal/Mol        Cal/Mol-Kelvin    Cal/Mol-Kelvin
 Total                  142.394             42.830            105.277
 Electronic               0.000              0.000              0.000
 Translational            0.889              2.981             41.370
 Rotational               0.889              2.981             30.802
 Vibrational            140.616             36.868             33.105
 Vibration     1          0.595              1.980              5.043
 Vibration     2          0.600              1.964              3.931
 Vibration     3          0.600              1.963              3.888
 Vibration     4          0.613              1.919              2.883
 Vibration     5          0.628              1.871              2.360
 Vibration     6          0.635              1.848              2.190
 Vibration     7          0.674              1.729              1.600
 Vibration     8          0.680              1.710              1.532
 Vibration     9          0.694              1.668              1.401
 Vibration    10          0.719              1.597              1.215
 Vibration    11          0.746              1.524              1.060
 Vibration    12          0.797              1.389              0.836
 Vibration    13          0.835              1.299              0.715
 Vibration    14          0.877              1.202              0.606
 Vibration    15          0.897              1.157              0.560

 Optimization completed.
    -- Stationary point found.
 Normal termination of Gaussian 16 at Tue Dec  8 20:08:37 2020.

 ----------------------------------------------------------------------
 # B3LYP/6-311++G(d,p) empiricaldispersion=gd3bj scf=xqc pop=npa geom=c
 heck
 ----------------------------------------------------------------------

 --------------------------------------
 CID_79962587_JID_1578_Energie_neutraal
 --------------------------------------
 Structure from the checkpoint file:  "JID_1578.chk"
 Charge =  0 Multiplicity = 1

 SCF Done:  E(RB3LYP) =  -862.071314022     A.U. after   14 cycles
 Normal termination of Gaussian 16 at Tue Dec  8 20:11:23 2020.

 ----------------------------------------------------------------------
 # B3LYP/6-311++G(d,p) empiricaldispersion=gd3bj scf=xqc pop=npa geom=c
 heck
 ----------------------------------------------------------------------

 ------------------------------------
 CID_79962587_JID_1578_Energie_kation
 ------------------------------------
 Structure from the checkpoint file:  "JID_1578.chk"
 Charge =  1 Multiplicity = 2

 SCF Done:  E(UB3LYP) =  -861.759621957     A.U. after   26 cycles
 Normal termination of Gaussian 16 at Tue Dec  8 20:18:35 2020.
 Gaussian 16:  ES64L-G16RevA.03 25-Dec-2016

 ----------------------------------------------------------------------
 # B3LYP/6-311++G(d,p) empiricaldispersion=gd3bj scf=xqc pop=npa geom=c
 heck
 ----------------------------------------------------------------------

 -----------------------------------
 CID_79962587_JID_1578_Energie_anion
 -----------------------------------
 Structure from the checkpoint file:  "JID_1578.chk"
 Charge = -1 Multiplicity = 2

                         Standard orientation:
 ---------------------------------------------------------------------
 Center     Atomic      Atomic             Coordinates (Angstroms)
 Number     Number       Type             X           Y           Z
 ---------------------------------------------------------------------
      1          6           0        2.567042   -1.562347    0.491064
      2          6           0        3.550362   -0.423724    0.394024
      3          6           0        2.079126   -0.130575    0.493291
      4          6           0        1.359136    0.430463   -0.715285
      5          6           0       -0.170919    0.333087   -0.595857
      6          6           0       -0.682688   -1.076290   -0.326830
      7         16           0       -2.524118   -1.147334   -0.382791
      8          6           0       -2.863836    0.540427    0.278195
      9          6           0       -1.723032    1.020572    1.165517
     10          8           0       -0.517947    1.259693    0.447710
     11          8           0        1.709798    1.786905   -0.965183
     12          1           0        2.512924   -2.127692    1.417135
     13          1           0        2.391044   -2.159545   -0.400476
     14          1           0        4.176939   -0.207450    1.254322
     15          1           0        4.031932   -0.241228   -0.562884
     16          1           0        1.717936    0.262494    1.441233
     17          1           0        1.669721   -0.125289   -1.609178
     18          1           0       -0.602174    0.694983   -1.539773
     19          1           0       -0.323063   -1.754903   -1.105080
     20          1           0       -0.317077   -1.443080    0.634746
     21          1           0       -3.788536    0.477142    0.858771
     22          1           0       -3.020045    1.243671   -0.545427
     23          1           0       -1.553613    0.294100    1.973622
     24          1           0       -1.982259    1.980424    1.624988
     25          1           0        1.246214    2.301260   -0.282256
 ---------------------------------------------------------------------

 SCF Done:  E(UB3LYP) =  -862.055106625     A.U. after   31 cycles

 The electronic state is 2-A.
 Alpha  occ. eigenvalues --  -88.73984 -19.03226 -19.02103 -10.13239 -10.12794
 Alpha  occ. eigenvalues --  -10.12279 -10.10220 -10.09940 -10.07801 -10.07562
 Alpha  occ. eigenvalues --  -10.07483  -7.82588  -5.78985  -5.78643  -5.77931
 Alpha  occ. eigenvalues --   -0.95108  -0.91983  -0.76476  -0.71130  -0.69134
 Alpha  occ. eigenvalues --   -0.60662  -0.56310  -0.53897  -0.50593  -0.49051
 Alpha  occ. eigenvalues --   -0.45056  -0.42191  -0.40827  -0.40380  -0.38098
 Alpha  occ. eigenvalues --   -0.36908  -0.34028  -0.32658  -0.31648  -0.30735
 Alpha  occ. eigenvalues --   -0.29761  -0.28458  -0.27056  -0.26625  -0.25879
 Alpha  occ. eigenvalues --   -0.23398  -0.21224  -0.20289  -0.19419  -0.17806
 Alpha  occ. eigenvalues --   -0.16125  -0.12636   0.04723
 Alpha virt. eigenvalues --    0.06475   0.07281   0.08104   0.08886   0.09447
 Alpha virt. eigenvalues --    0.09831   0.10400   0.10906   0.11630   0.12074
 Alpha virt. eigenvalues --    0.12431   0.13105   0.13758   0.14467   0.15535

  Beta  occ. eigenvalues --  -88.73981 -19.03224 -19.02099 -10.13233 -10.12783
  Beta  occ. eigenvalues --  -10.12234 -10.10198 -10.09909 -10.07792 -10.07531
  Beta  occ. eigenvalues --  -10.07470  -7.82585  -5.78984  -5.78637  -5.77929
  Beta  occ. eigenvalues --   -0.95097  -0.91973  -0.76455  -0.71096  -0.69091
  Beta  occ. eigenvalues --   -0.60622  -0.56240  -0.53865  -0.50531  -0.49007
  Beta  occ. eigenvalues --   -0.44978  -0.42145  -0.40799  -0.40352  -0.38037
  Beta  occ. eigenvalues --   -0.36868  -0.33979  -0.32612  -0.31607  -0.30705
  Beta  occ. eigenvalues --   -0.29724  -0.28414  -0.27028  -0.26591  -0.25853
  Beta  occ. eigenvalues --   -0.23374  -0.21198  -0.20259  -0.19393  -0.17790
  Beta  occ. eigenvalues --   -0.16108  -0.12617
  Beta virt. eigenvalues --    0.07089   0.07788   0.07995   0.08503   0.09392
  Beta virt. eigenvalues --    0.10033   0.10375   0.10697   0.11199   0.11861
  Beta virt. eigenvalues --    0.12621   0.12875   0.13386   0.14084   0.14669

 Mulliken charges and spin densities:
               1          2
     1  C    0.670406  -1.152771
     2  C    0.787927  -1.273344
     3  C   -1.678297   2.229443
     4  C    1.991719  -3.048056
     5  C   -1.457253   1.614926
     6  C    0.567129  -0.823616
     7  S   -0.075841  -0.120268
     8  C   -0.212792   0.032717
     9  C    1.208446  -1.659091
    10  O   -0.187241   0.047228
    11  O   -0.173617   0.014699
    12  H   -0.297798   0.448520
    13  H   -0.255035   0.400172
    14  H   -0.073335   0.218775
    15  H    0.031176   0.105061
    16  H   -0.397977   0.669902
    17  H   -0.204693   0.411490
    18  H    0.085661   0.135109
    19  H    0.061150   0.133840
    20  H   -0.008586   0.209629
    21  H   -0.812877   1.060911
    22  H    0.100482   0.071271
    23  H   -0.123349   0.276499
    24  H   -0.777621   0.964180
    25  H    0.232214   0.032774
 Sum of Mulliken charges =  -1.00000   1.00000

 Dipole moment (field-independent basis, Debye):
    X=              2.0724    Y=             -0.3163    Z=             -3.7440  Tot=              4.2909
 Quadrupole moment (field-independent basis, Debye-Ang):
   XX=           -140.4927   YY=           -116.0373   ZZ=           -115.5158
   XY=              9.5073   XZ=              8.6377   YZ=             -1.8791

 Summary of Natural Population Analysis:

                                       Natural Population
                Natural  -----------------------------------------------
    Atom  No    Charge         Core      Valence    Rydberg      Total
 -----------------------------------------------------------------------
      C    1   -0.19835      0.99962     2.18885    0.00988     3.19835
      C    2   -0.19312      0.99962     2.18524    0.00827     3.19312
      C    3   -0.13304      0.99956     2.12012    0.01336     3.13304
      C    4    0.05994      0.99949     1.92472    0.01585     2.94006
      C    5    0.05646      0.99950     1.92973    0.01431     2.94354
      C    6   -0.26218      0.99955     2.25272    0.00991     3.26218
      S    7    0.08129      4.99966     2.90159    0.01746     7.91871
      C    8   -0.26054      0.99960     2.25111    0.00984     3.26054
      C    9   -0.01235      0.99956     1.99801    0.01479     3.01235
      O   10   -0.31864      0.99988     3.30815    0.01061     4.31864
      O   11   -0.37172      0.99990     3.36575    0.00607     4.37172
      H   12    0.10570      0.00000     0.39270    0.00160     0.39430
      H   13    0.10128      0.00000     0.39719    0.00153     0.39872
      H   14    0.10205      0.00000     0.39706    0.00089     0.39795
      H   15    0.10148      0.00000     0.39761    0.00091     0.39852
      H   16    0.11044      0.00000     0.38786    0.00170     0.38956
      H   17    0.08831      0.00000     0.40993    0.00176     0.41169
      H   18    0.08904      0.00000     0.40933    0.00163     0.41096
      H   19    0.11301      0.00000     0.38526    0.00173     0.38699
      H   20    0.10813      0.00000     0.38956    0.00231     0.39187
      H   21    0.11477      0.00000     0.38212    0.00311     0.38523
      H   22    0.10017      0.00000     0.39788    0.00195     0.39983
      H   23    0.08434      0.00000     0.41315    0.00251     0.41566
      H   24    0.09952      0.00000     0.39675    0.00373     0.40048
      H   25    0.23402      0.00000     0.26275    0.00323     0.26598
 =======================================================================
   * Total *   -0.00000     14.99592    31.84513    0.15895    47.00000

 Normal termination of Gaussian 16 at Tue Dec  8 20:27:27 2020.
