 Gaussian 16, Revision A.03,

 -----------------------------------------------------------
 # opt freq B3LYP/6-31G(d) empiricaldispersion=gd3bj scf=xqc
 -----------------------------------------------------------

 ------------------------------
 CID_89042919_JID_2095_neutraal
 ------------------------------
 Symbolic Z-matrix:
 Charge =  0 Multiplicity = 1

 SCF Done:  E(RB3LYP) =  -948.102962315     A.U. after   16 cycles
 SCF Done:  E(RB3LYP) =  -948.121342077     A.U. after   14 cycles
 SCF Done:  E(RB3LYP) =  -948.125650816     A.U. after   13 cycles
 SCF Done:  E(RB3LYP) =  -948.126279403     A.U. after   12 cycles
 SCF Done:  E(RB3LYP) =  -948.126443053     A.U. after   11 cycles
 SCF Done:  E(RB3LYP) =  -948.126468929     A.U. after    9 cycles
 SCF Done:  E(RB3LYP) =  -948.126487784     A.U. after   11 cycles
 SCF Done:  E(RB3LYP) =  -948.126497594     A.U. after   10 cycles
 SCF Done:  E(RB3LYP) =  -948.126510572     A.U. after   11 cycles
 SCF Done:  E(RB3LYP) =  -948.126524082     A.U. after   11 cycles
 SCF Done:  E(RB3LYP) =  -948.126549339     A.U. after   10 cycles
 SCF Done:  E(RB3LYP) =  -948.126549784     A.U. after    8 cycles
 SCF Done:  E(RB3LYP) =  -948.126549821     A.U. after    8 cycles
 SCF Done:  E(RB3LYP) =  -948.126549835     A.U. after    7 cycles
 SCF Done:  E(RB3LYP) =  -948.126549847     A.U. after    7 cycles
 Optimization completed.
    -- Stationary point found.
 Normal termination of Gaussian 16 at Wed Dec  9 16:49:37 2020.

 --------------------------------------------------------------------
 #N Geom=AllCheck Guess=TCheck SCRF=Check GenChk RB3LYP/6-31G(d) Freq
 --------------------------------------------------------------------

 Structure from the checkpoint file:  "JID_2095.chk"
 ------------------------------
 CID_89042919_JID_2095_neutraal
 ------------------------------
 Charge =  0 Multiplicity = 1

 SCF Done:  E(RB3LYP) =  -948.126549847     A.U. after    1 cycles

  Exact polarizability: 148.836   0.443 107.062   1.495   0.200  68.440
 Approx polarizability: 228.567   1.521 150.861   7.726   0.481 108.419

                      1                      2                      3
                      A                      A                      A
 Frequencies --     40.5705                41.4375                55.8206
 Red. masses --      2.6739                 2.0922                 3.2937
 Frc consts  --      0.0026                 0.0021                 0.0060
 IR Inten    --      2.2548                 1.1468                 0.6188

                      4                      5                      6
                      A                      A                      A
 Frequencies --    100.0551               110.3590               135.4321
 Red. masses --      3.4252                 2.3398                 8.5296
 Frc consts  --      0.0202                 0.0168                 0.0922
 IR Inten    --      1.0341                 1.8786                 1.0947

                      7                      8                      9
                      A                      A                      A
 Frequencies --    155.2582               174.5877               261.6241
 Red. masses --      4.5052                 5.3313                 1.2276
 Frc consts  --      0.0640                 0.0957                 0.0495
 IR Inten    --      1.1152                 0.5312                 1.2306

                     10                     11                     12
                      A                      A                      A
 Frequencies --    269.8685               282.8752               311.1342
 Red. masses --      1.1362                 4.3877                 3.5178
 Frc consts  --      0.0488                 0.2069                 0.2006
 IR Inten    --      0.7587                 0.6341                 0.0835

                     13                     14                     15
                      A                      A                      A
 Frequencies --    351.7439               363.8193               428.0570
 Red. masses --      4.8142                 7.9343                 1.8567
 Frc consts  --      0.3509                 0.6188                 0.2004
 IR Inten    --      0.3693                 1.0933                15.0213

                     16                     17                     18
                      A                      A                      A
 Frequencies --    471.3675               505.1048               564.6654
 Red. masses --      5.2333                 7.5552                 2.5943
 Frc consts  --      0.6851                 1.1357                 0.4874
 IR Inten    --      1.3035                52.0782               101.4840

                     19                     20                     21
                      A                      A                      A
 Frequencies --    586.8933               666.4581               691.2650
 Red. masses --      9.8930                 8.3727                10.4080
 Frc consts  --      2.0077                 2.1911                 2.9303
 IR Inten    --     56.6969                36.2256                22.5106

                     22                     23                     24
                      A                      A                      A
 Frequencies --    738.5289               748.4165               820.9046
 Red. masses --     11.5243                 6.1386                 1.0940
 Frc consts  --      3.7034                 2.0259                 0.4343
 IR Inten    --      1.2598                95.3548                 0.9215

                     25                     26                     27
                      A                      A                      A
 Frequencies --    824.5302               886.6358               910.6695
 Red. masses --      1.0935                 3.2444                 3.8206
 Frc consts  --      0.4380                 1.5027                 1.8668
 IR Inten    --      0.5972                32.9854                 0.5145

                     28                     29                     30
                      A                      A                      A
 Frequencies --    972.3979              1054.6899              1073.4588
 Red. masses --      2.0573                 3.1975                 2.7617
 Frc consts  --      1.1462                 2.0956                 1.8750
 IR Inten    --      6.6666                70.3962                10.1029

                     31                     32                     33
                      A                      A                      A
 Frequencies --   1147.5034              1167.2346              1179.6011
 Red. masses --      2.1376                17.3047                 1.5040
 Frc consts  --      1.6584                13.8909                 1.2331
 IR Inten    --     13.3072               233.5652                 3.4849

                     34                     35                     36
                      A                      A                      A
 Frequencies --   1191.4369              1196.3577              1306.8983
 Red. masses --      1.5306                 2.9274                 1.1469
 Frc consts  --      1.2802                 2.4686                 1.1542
 IR Inten    --      4.1642                16.2088                13.8602

                     37                     38                     39
                      A                      A                      A
 Frequencies --   1310.2204              1315.4991              1381.7012
 Red. masses --      3.4573                 1.1681                 1.4057
 Frc consts  --      3.4968                 1.1910                 1.5811
 IR Inten    --    204.1492                16.1322                58.0982

                     40                     41                     42
                      A                      A                      A
 Frequencies --   1410.8084              1441.5512              1446.0068
 Red. masses --      1.4592                 1.7446                 1.3661
 Frc consts  --      1.7112                 2.1360                 1.6829
 IR Inten    --     30.8204                35.1724                55.7349

                     43                     44                     45
                      A                      A                      A
 Frequencies --   1461.4477              1488.6501              1516.2117
 Red. masses --      2.5326                 1.4402                 1.0397
 Frc consts  --      3.1870                 1.8804                 1.4082
 IR Inten    --     31.3203                 6.3419                 7.2426

                     46                     47                     48
                      A                      A                      A
 Frequencies --   1524.4660              1525.6696              1531.5644
 Red. masses --      1.0388                 1.0556                 1.0484
 Frc consts  --      1.4225                 1.4477                 1.4489
 IR Inten    --      7.2495                 5.3313                20.4198

                     49                     50                     51
                      A                      A                      A
 Frequencies --   1542.8437              1553.3652              1660.0108
 Red. masses --      1.0870                 1.0833                 8.1762
 Frc consts  --      1.5244                 1.5401                13.2747
 IR Inten    --      8.2953                14.5281               671.8201

                     52                     53                     54
                      A                      A                      A
 Frequencies --   1678.1983              3055.1993              3064.1050
 Red. masses --      7.4909                 1.0377                 1.0358
 Frc consts  --     12.4300                 5.7068                 5.7299
 IR Inten    --    129.4413                17.8324                 9.0699

                     55                     56                     57
                      A                      A                      A
 Frequencies --   3066.0870              3081.5946              3100.2625
 Red. masses --      1.0606                 1.0580                 1.1027
 Frc consts  --      5.8746                 5.9197                 6.2445
 IR Inten    --     33.6523                 8.9647                 3.4478

                     58                     59                     60
                      A                      A                      A
 Frequencies --   3120.4176              3127.2864              3137.8183
 Red. masses --      1.1077                 1.1048                 1.1019
 Frc consts  --      6.3545                 6.3659                 6.3921
 IR Inten    --      0.6235                40.3960                20.4082

                     61                     62                     63
                      A                      A                      A
 Frequencies --   3140.0487              3145.3306              3598.7043
 Red. masses --      1.1009                 1.1063                 1.0759
 Frc consts  --      6.3956                 6.4486                 8.2092
 IR Inten    --     21.2445                35.0802                45.4555

 - Thermochemistry -
 -------------------
 Temperature   298.150 Kelvin.  Pressure   1.00000 Atm.
 Atom     1 has atomic number  6 and mass  12.00000

 Molecular mass:   189.05720 amu.
 Principal axes and moments of inertia in atomic units:
                           1         2         3
     Eigenvalues --  1907.075572976.401844724.96966
           X            0.99977   0.02100  -0.00323
           Y           -0.02100   0.99978  -0.00072
           Z            0.00322   0.00078   0.99999
 This molecule is an asymmetric top.
 Rotational symmetry number  1.
 Warning -- assumption of classical behavior for rotation
           may cause significant error
 Rotational temperatures (Kelvin)      0.04542     0.02910     0.01833
 Rotational constants (GHZ):           0.94634     0.60635     0.38196
 Zero-point vibrational energy     479778.7 (Joules/Mol)
                                  114.66985 (Kcal/Mol)
 Warning -- explicit consideration of  19 degrees of freedom as
           vibrations may cause significant error
 Vibrational temperatures:     58.37    59.62    80.31   143.96   158.78
          (Kelvin)            194.86   223.38   251.19   376.42   388.28
                              406.99   447.65   506.08   523.45   615.88
                              678.19   726.73   812.43   844.41   958.88
                              994.58  1062.58  1076.80  1181.10  1186.32
                             1275.67  1310.25  1399.06  1517.46  1544.47
                             1651.00  1679.39  1697.18  1714.21  1721.29
                             1880.34  1885.11  1892.71  1987.96  2029.84
                             2074.07  2080.48  2102.70  2141.84  2181.49
                             2193.37  2195.10  2203.58  2219.81  2234.95
                             2388.39  2414.55  4395.75  4408.56  4411.42
                             4433.73  4460.59  4489.58  4499.47  4514.62
                             4517.83  4525.43  5177.73

 Zero-point correction=                           0.182738 (Hartree/Particle)
 Thermal correction to Energy=                    0.196017
 Thermal correction to Enthalpy=                  0.196961
 Thermal correction to Gibbs Free Energy=         0.141345
 Sum of electronic and zero-point Energies=           -947.943812
 Sum of electronic and thermal Energies=              -947.930533
 Sum of electronic and thermal Enthalpies=            -947.929589
 Sum of electronic and thermal Free Energies=         -947.985205

                     E (Thermal)             CV                S
                      KCal/Mol        Cal/Mol-Kelvin    Cal/Mol-Kelvin
 Total                  123.003             46.635            117.054
 Electronic               0.000              0.000              0.000
 Translational            0.889              2.981             41.616
 Rotational               0.889              2.981             31.662
 Vibrational            121.225             40.674             43.776
 Vibration     1          0.594              1.981              5.231
 Vibration     2          0.594              1.981              5.189
 Vibration     3          0.596              1.975              4.600
 Vibration     4          0.604              1.949              3.453
 Vibration     5          0.606              1.941              3.263
 Vibration     6          0.613              1.918              2.867
 Vibration     7          0.620              1.897              2.607
 Vibration     8          0.627              1.874              2.386
 Vibration     9          0.669              1.743              1.651
 Vibration    10          0.674              1.729              1.597
 Vibration    11          0.682              1.705              1.516
 Vibration    12          0.700              1.652              1.356
 Vibration    13          0.728              1.572              1.158
 Vibration    14          0.737              1.547              1.106
 Vibration    15          0.790              1.409              0.865
 Vibration    16          0.828              1.314              0.734
 Vibration    17          0.860              1.239              0.645
 Vibration    18          0.920              1.108              0.515
 Vibration    19          0.944              1.060              0.473

                           ! Non-Optimized Parameters !
 Normal termination of Gaussian 16 at Wed Dec  9 16:54:14 2020.

 ----------------------------------------------------------------------
 # B3LYP/6-311++G(d,p) empiricaldispersion=gd3bj scf=xqc pop=npa geom=c
 heck
 ----------------------------------------------------------------------

 --------------------------------------
 CID_89042919_JID_2095_Energie_neutraal
 --------------------------------------
 Structure from the checkpoint file:  "JID_2095.chk"
 Charge =  0 Multiplicity = 1

 SCF Done:  E(RB3LYP) =  -948.313286788     A.U. after   16 cycles
 Normal termination of Gaussian 16 at Wed Dec  9 16:56:16 2020.

 ----------------------------------------------------------------------
 # B3LYP/6-311++G(d,p) empiricaldispersion=gd3bj scf=xqc pop=npa geom=c
 heck
 ----------------------------------------------------------------------

 ------------------------------------
 CID_89042919_JID_2095_Energie_kation
 ------------------------------------
 Structure from the checkpoint file:  "JID_2095.chk"
 Charge =  1 Multiplicity = 2

 SCF Done:  E(UB3LYP) =  -947.994986370     A.U. after   26 cycles
 Normal termination of Gaussian 16 at Wed Dec  9 17:00:18 2020.
 Gaussian 16:  ES64L-G16RevA.03 25-Dec-2016

 ----------------------------------------------------------------------
 # B3LYP/6-311++G(d,p) empiricaldispersion=gd3bj scf=xqc pop=npa geom=c
 heck
 ----------------------------------------------------------------------

 -----------------------------------
 CID_89042919_JID_2095_Energie_anion
 -----------------------------------
 Structure from the checkpoint file:  "JID_2095.chk"
 Charge = -1 Multiplicity = 2

                         Standard orientation:
 ---------------------------------------------------------------------
 Center     Atomic      Atomic             Coordinates (Angstroms)
 Number     Number       Type             X           Y           Z
 ---------------------------------------------------------------------
      1          6           0       -3.181451   -2.572210    0.115945
      2          6           0       -2.290093   -1.335686    0.093423
      3          7           0       -0.895947   -1.749307   -0.081279
      4          6           0        0.220395   -0.990043   -0.095529
      5          7           0        1.413256   -1.500674   -0.144227
      6         16           0        2.558108   -0.209076   -0.334866
      7          8           0        3.480331   -0.186695    0.828501
      8          7           0        1.358760    1.088257   -0.139572
      9          6           0        0.213347    0.521314   -0.086831
     10          8           0       -0.959863    1.152507   -0.028527
     11          6           0       -0.899616    2.602753   -0.002880
     12          6           0       -2.324087    3.108883    0.083987
     13          1           0       -3.095554   -3.136789   -0.819260
     14          1           0       -4.227938   -2.278813    0.239491
     15          1           0       -2.916777   -3.235444    0.947504
     16          1           0       -2.582740   -0.671143   -0.724658
     17          1           0       -2.402100   -0.767644    1.023526
     18          1           0       -0.705267   -2.743406   -0.066302
     19          1           0       -0.292051    2.903943    0.855792
     20          1           0       -0.387479    2.939303   -0.909345
     21          1           0       -2.812909    2.746175    0.993617
     22          1           0       -2.324842    4.203514    0.105554
     23          1           0       -2.909272    2.781029   -0.781004
 ---------------------------------------------------------------------

 SCF Done:  E(UB3LYP) =  -948.320046048     A.U. after   33 cycles
 SCF Done:  E(UB3LYP) =  -948.320046048     a.u. after    1 cycles

 The electronic state is 2-A.
 Alpha  occ. eigenvalues --  -88.82933 -19.04367 -18.94894 -14.21155 -14.15964
 Alpha  occ. eigenvalues --  -14.15156 -10.12668 -10.12296 -10.10961 -10.09909
 Alpha  occ. eigenvalues --  -10.07403 -10.07114  -7.90085  -5.86396  -5.86313
 Alpha  occ. eigenvalues --   -5.85645  -0.96921  -0.89886  -0.84014  -0.79064
 Alpha  occ. eigenvalues --   -0.72432  -0.67398  -0.65178  -0.56790  -0.54272
 Alpha  occ. eigenvalues --   -0.51405  -0.47679  -0.45249  -0.40391  -0.38591
 Alpha  occ. eigenvalues --   -0.37608  -0.36473  -0.34650  -0.32130  -0.31709
 Alpha  occ. eigenvalues --   -0.30251  -0.29824  -0.28464  -0.28241  -0.27515
 Alpha  occ. eigenvalues --   -0.27096  -0.24462  -0.23945  -0.21976  -0.18041
 Alpha  occ. eigenvalues --   -0.17371  -0.15355  -0.13337  -0.11467  -0.09866
 Alpha  occ. eigenvalues --    0.04249
 Alpha virt. eigenvalues --    0.06045   0.06937   0.08877   0.09419   0.10178
 Alpha virt. eigenvalues --    0.10471   0.10792   0.12580   0.13058   0.13308
 Alpha virt. eigenvalues --    0.14415   0.14468   0.14840   0.15325   0.16567

  Beta  occ. eigenvalues --  -88.82929 -19.04259 -18.94806 -14.21077 -14.15683
  Beta  occ. eigenvalues --  -14.14934 -10.12422 -10.12299 -10.10724 -10.09901
  Beta  occ. eigenvalues --  -10.07386 -10.07086  -7.90077  -5.86395  -5.86299
  Beta  occ. eigenvalues --   -5.85642  -0.96660  -0.89605  -0.83689  -0.78697
  Beta  occ. eigenvalues --   -0.72005  -0.67311  -0.65068  -0.56380  -0.54177
  Beta  occ. eigenvalues --   -0.51274  -0.47349  -0.45042  -0.40115  -0.38347
  Beta  occ. eigenvalues --   -0.37442  -0.36360  -0.34463  -0.31903  -0.30956
  Beta  occ. eigenvalues --   -0.30185  -0.29705  -0.28272  -0.28012  -0.27438
  Beta  occ. eigenvalues --   -0.26910  -0.24349  -0.23440  -0.21225  -0.17596
  Beta  occ. eigenvalues --   -0.17015  -0.14300  -0.12972  -0.10792  -0.09272
  Beta virt. eigenvalues --    0.06412   0.07184   0.09215   0.09450   0.09839
  Beta virt. eigenvalues --    0.10409   0.10471   0.10835   0.12604   0.13077
  Beta virt. eigenvalues --    0.13358   0.14446   0.14619   0.14866   0.15396

 Mulliken charges and spin densities:
               1          2
     1  C    0.345085  -1.111323
     2  C   -0.441704   0.350978
     3  N   -0.191273   0.035598
     4  C   -0.134474   0.159519
     5  N   -0.354013   0.115810
     6  S    0.439638   0.103621
     7  O   -0.395050  -0.023761
     8  N   -0.347486   0.140494
     9  C   -0.105131   0.140477
    10  O   -0.108190   0.028550
    11  C   -0.106255   0.191254
    12  C   -0.069036  -0.594218
    13  H   -0.099891   0.241705
    14  H   -0.317702   0.466009
    15  H    0.049311   0.089342
    16  H    0.189853  -0.002981
    17  H    0.039617   0.164643
    18  H    0.323359  -0.007364
    19  H    0.162409   0.035252
    20  H    0.183607  -0.004175
    21  H   -0.017812   0.166533
    22  H    0.007323   0.120586
    23  H   -0.052185   0.193451
 Sum of Mulliken charges =  -1.00000   1.00000

 Dipole moment (field-independent basis, Debye):
    X=             -4.0296    Y=              1.6876    Z=             -1.9914  Tot=              4.8012
 Quadrupole moment (field-independent basis, Debye-Ang):
   XX=           -142.9618   YY=           -100.5100   ZZ=            -93.1397
   XY=             -1.0680   XZ=             -4.1508   YZ=             -1.1911

 Summary of Natural Population Analysis:

                                       Natural Population
                Natural  -----------------------------------------------
    Atom  No    Charge         Core      Valence    Rydberg      Total
 -----------------------------------------------------------------------
      C    1   -0.29031      0.99967     2.28540    0.00525     3.29031
      C    2   -0.08470      0.99964     2.07393    0.01113     3.08470
      N    3   -0.29853      0.99965     2.78894    0.00994     3.79853
      C    4    0.22856      0.99955     1.75239    0.01950     2.77144
      N    5   -0.34504      0.99967     2.83322    0.01215     3.84504
      S    6    0.71555      4.99954     2.20929    0.07562     7.28445
      O    7   -0.46467      0.99992     3.45759    0.00715     4.46467
      N    8   -0.32468      0.99964     2.81347    0.01157     3.82468
      C    9    0.29448      0.99948     1.68495    0.02108     2.70552
      O   10   -0.27033      0.99985     3.26049    0.00999     4.27033
      C   11   -0.01631      0.99959     2.00403    0.01269     3.01631
      C   12   -0.29573      0.99966     2.29058    0.00549     3.29573
      H   13    0.09679      0.00000     0.40199    0.00121     0.40321
      H   14    0.10335      0.00000     0.39563    0.00103     0.39665
      H   15    0.09522      0.00000     0.40364    0.00114     0.40478
      H   16    0.09399      0.00000     0.40422    0.00179     0.40601
      H   17    0.09471      0.00000     0.40352    0.00177     0.40529
      H   18    0.18686      0.00000     0.31000    0.00315     0.31314
      H   19    0.09190      0.00000     0.40660    0.00150     0.40810
      H   20    0.08962      0.00000     0.40884    0.00154     0.41038
      H   21    0.10174      0.00000     0.39701    0.00125     0.39826
      H   22    0.09756      0.00000     0.40177    0.00067     0.40244
      H   23    0.09999      0.00000     0.39878    0.00123     0.40001
 =======================================================================
   * Total *    0.00000     15.99585    33.78632    0.21783    50.00000

 Normal termination of Gaussian 16 at Wed Dec  9 17:05:25 2020.
