 Gaussian 16, Revision A.03,

 -----------------------------------------------------------
 # opt freq B3LYP/6-31G(d) empiricaldispersion=gd3bj scf=xqc
 -----------------------------------------------------------

 -------------------------------
 CID_150942596_JID_1089_neutraal
 -------------------------------
 Symbolic Z-matrix:
 Charge =  0 Multiplicity = 1

 SCF Done:  E(RB3LYP) =  -485.571861491     A.U. after   13 cycles
 SCF Done:  E(RB3LYP) =  -485.571903999     A.U. after   11 cycles
 SCF Done:  E(RB3LYP) =  -485.572125834     A.U. after   12 cycles
 SCF Done:  E(RB3LYP) =  -485.574083144     A.U. after   11 cycles
 SCF Done:  E(RB3LYP) =  -485.574383755     A.U. after   10 cycles
 SCF Done:  E(RB3LYP) =  -485.574527332     A.U. after   11 cycles
 SCF Done:  E(RB3LYP) =  -485.574632550     A.U. after   10 cycles
 SCF Done:  E(RB3LYP) =  -485.574752980     A.U. after   10 cycles
 SCF Done:  E(RB3LYP) =  -485.574842769     A.U. after    9 cycles
 SCF Done:  E(RB3LYP) =  -485.574878992     A.U. after   11 cycles
 SCF Done:  E(RB3LYP) =  -485.574956605     A.U. after    9 cycles
 SCF Done:  E(RB3LYP) =  -485.574948948     A.U. after    9 cycles
 SCF Done:  E(RB3LYP) =  -485.574957802     A.U. after    9 cycles
 SCF Done:  E(RB3LYP) =  -485.574957687     A.U. after    7 cycles
 SCF Done:  E(RB3LYP) =  -485.574957840     A.U. after    8 cycles
 SCF Done:  E(RB3LYP) =  -485.574957856     A.U. after    6 cycles
 Optimization completed.
    -- Stationary point found.
 Normal termination of Gaussian 16 at Tue Dec  8 19:19:56 2020.

 --------------------------------------------------------------------
 #N Geom=AllCheck Guess=TCheck SCRF=Check GenChk RB3LYP/6-31G(d) Freq
 --------------------------------------------------------------------

 Structure from the checkpoint file:  "JID_1089.chk"
 -------------------------------
 CID_150942596_JID_1089_neutraal
 -------------------------------
 Charge =  0 Multiplicity = 1

 SCF Done:  E(RB3LYP) =  -485.574957856     A.U. after    1 cycles

  Exact polarizability: 119.011  -0.823 111.095   0.274  -3.005  93.596
 Approx polarizability: 144.306  -0.671 147.868   0.941  -6.692 141.684

                      1                      2                      3
                      A                      A                      A
 Frequencies --     51.1626                60.4432                71.2281
 Red. masses --      2.4900                 2.6904                 2.5385
 Frc consts  --      0.0038                 0.0058                 0.0076
 IR Inten    --      0.0038                 0.0342                 0.0333

                      4                      5                      6
                      A                      A                      A
 Frequencies --     85.4561               117.3516               164.5158
 Red. masses --      2.3525                 2.2038                 2.2987
 Frc consts  --      0.0101                 0.0179                 0.0367
 IR Inten    --      0.0380                 0.1481                 2.1670

                      7                      8                      9
                      A                      A                      A
 Frequencies --    210.8954               219.1586               233.1231
 Red. masses --      1.1608                 1.8150                 1.7404
 Frc consts  --      0.0304                 0.0514                 0.0557
 IR Inten    --      0.7870                 0.8911                 1.1228

                     10                     11                     12
                      A                      A                      A
 Frequencies --    241.8209               269.1606               280.2007
 Red. masses --      2.3777                 1.8689                 2.0484
 Frc consts  --      0.0819                 0.0798                 0.0948
 IR Inten    --      1.1683                 2.4422                 0.1186

                     13                     14                     15
                      A                      A                      A
 Frequencies --    299.7972               314.9811               349.7695
 Red. masses --      1.1639                 1.5388                 2.2330
 Frc consts  --      0.0616                 0.0899                 0.1610
 IR Inten    --      0.5286                 1.3716                 5.9648

                     16                     17                     18
                      A                      A                      A
 Frequencies --    375.8781               424.5643               453.2794
 Red. masses --      2.0613                 1.8641                 2.8677
 Frc consts  --      0.1716                 0.1980                 0.3471
 IR Inten    --      0.8471                 0.4936                 9.2364

                     19                     20                     21
                      A                      A                      A
 Frequencies --    476.2165               529.6543               603.5672
 Red. masses --      2.4200                 2.7661                 2.5415
 Frc consts  --      0.3234                 0.4572                 0.5455
 IR Inten    --      0.3348                 0.4912                 5.2504

                     22                     23                     24
                      A                      A                      A
 Frequencies --    744.1129               778.3494               813.3481
 Red. masses --      2.5318                 1.2877                 1.6780
 Frc consts  --      0.8260                 0.4597                 0.6540
 IR Inten    --      9.6166                 6.6426                 0.3773

                     25                     26                     27
                      A                      A                      A
 Frequencies --    826.6274               874.4109               875.0546
 Red. masses --      1.7634                 2.4158                 1.9516
 Frc consts  --      0.7099                 1.0883                 0.8804
 IR Inten    --      2.6440                 0.3245                 0.2408

                     28                     29                     30
                      A                      A                      A
 Frequencies --    909.0394               940.0530               955.2142
 Red. masses --      2.1893                 1.1704                 1.6343
 Frc consts  --      1.0659                 0.6094                 0.8786
 IR Inten    --     16.5046                 0.7013                 2.0012

                     31                     32                     33
                      A                      A                      A
 Frequencies --    970.1088               985.2206              1004.6437
 Red. masses --      1.9806                 1.8640                 1.5896
 Frc consts  --      1.0982                 1.0660                 0.9453
 IR Inten    --      2.0038                13.8095                 0.9254

                     34                     35                     36
                      A                      A                      A
 Frequencies --   1058.6043              1083.6692              1117.9058
 Red. masses --      2.8459                 3.9300                 1.9258
 Frc consts  --      1.8791                 2.7192                 1.4180
 IR Inten    --      3.4601                58.9883                15.3991

                     37                     38                     39
                      A                      A                      A
 Frequencies --   1127.6896              1133.1318              1151.0305
 Red. masses --      2.0007                 1.9538                 2.0184
 Frc consts  --      1.4990                 1.4780                 1.5755
 IR Inten    --     35.9854                 3.8280                 1.6952

                     40                     41                     42
                      A                      A                      A
 Frequencies --   1168.8428              1184.8179              1206.5627
 Red. masses --      2.1157                 2.1133                 1.7339
 Frc consts  --      1.7030                 1.7479                 1.4872
 IR Inten    --      5.1832                 9.7232                 2.6273

                     43                     44                     45
                      A                      A                      A
 Frequencies --   1222.7952              1274.9684              1307.2533
 Red. masses --      1.9644                 1.2879                 1.2463
 Frc consts  --      1.7306                 1.2335                 1.2548
 IR Inten    --      5.3748                 0.7674                 2.6959

                     46                     47                     48
                      A                      A                      A
 Frequencies --   1341.0469              1357.1806              1363.2988
 Red. masses --      1.1143                 1.1746                 1.3521
 Frc consts  --      1.1807                 1.2747                 1.4806
 IR Inten    --      1.2442                 1.2935                 7.0384

                     49                     50                     51
                      A                      A                      A
 Frequencies --   1381.4892              1394.4973              1406.5885
 Red. masses --      1.3467                 1.2772                 1.3647
 Frc consts  --      1.5144                 1.4634                 1.5908
 IR Inten    --     14.5322                13.2657                 4.2488

                     52                     53                     54
                      A                      A                      A
 Frequencies --   1414.5667              1420.0492              1434.3568
 Red. masses --      1.3050                 1.2484                 1.3115
 Frc consts  --      1.5386                 1.4832                 1.5897
 IR Inten    --      7.3110                11.7670                12.9948

                     55                     56                     57
                      A                      A                      A
 Frequencies --   1439.3760              1441.6102              1448.1620
 Red. masses --      1.2425                 1.2543                 1.3419
 Frc consts  --      1.5166                 1.5358                 1.6581
 IR Inten    --     19.5513                 5.6758                 7.8019

                     58                     59                     60
                      A                      A                      A
 Frequencies --   1508.1801              1510.4994              1513.7333
 Red. masses --      1.0778                 1.0774                 1.0563
 Frc consts  --      1.4445                 1.4484                 1.4261
 IR Inten    --      4.0732                 3.8563                 0.1248

                     61                     62                     63
                      A                      A                      A
 Frequencies --   1516.8894              1522.6999              1522.9613
 Red. masses --      1.0544                 1.0597                 1.0646
 Frc consts  --      1.4294                 1.4476                 1.4548
 IR Inten    --      7.6378                 0.7889                 1.7289

                     64                     65                     66
                      A                      A                      A
 Frequencies --   1527.7336              1533.5910              1535.5305
 Red. masses --      1.0602                 1.0542                 1.0486
 Frc consts  --      1.4579                 1.4608                 1.4567
 IR Inten    --      0.2071                 4.4515                 3.9212

                     67                     68                     69
                      A                      A                      A
 Frequencies --   1537.7456              1544.3517              1549.9282
 Red. masses --      1.0610                 1.0537                 1.0594
 Frc consts  --      1.4782                 1.4806                 1.4994
 IR Inten    --      5.0767                 6.7854                 5.1693

                     70                     71                     72
                      A                      A                      A
 Frequencies --   3016.1804              3031.3843              3039.2624
 Red. masses --      1.0644                 1.0705                 1.0814
 Frc consts  --      5.7053                 5.7958                 5.8854
 IR Inten    --     27.0923                28.9877                13.0035

                     73                     74                     75
                      A                      A                      A
 Frequencies --   3040.0817              3042.9796              3053.9391
 Red. masses --      1.0658                 1.0457                 1.0403
 Frc consts  --      5.8034                 5.7048                 5.7166
 IR Inten    --     36.4688                40.1934                 9.5716

                     76                     77                     78
                      A                      A                      A
 Frequencies --   3057.6142              3061.8914              3064.2343
 Red. masses --      1.0449                 1.0450                 1.0388
 Frc consts  --      5.7557                 5.7723                 5.7470
 IR Inten    --     32.7064                44.2090                16.9728

                     79                     80                     81
                      A                      A                      A
 Frequencies --   3082.3457              3097.6663              3098.3866
 Red. masses --      1.0939                 1.1020                 1.1011
 Frc consts  --      6.1235                 6.2303                 6.2282
 IR Inten    --     35.0714                15.4397                24.8124

                     82                     83                     84
                      A                      A                      A
 Frequencies --   3103.6465              3112.6329              3121.6067
 Red. masses --      1.0925                 1.1011                 1.1010
 Frc consts  --      6.2002                 6.2851                 6.3212
 IR Inten    --     41.1227                47.4037                13.8580

                     85                     86                     87
                      A                      A                      A
 Frequencies --   3124.2154              3126.3055              3128.9841
 Red. masses --      1.0970                 1.1009                 1.0956
 Frc consts  --      6.3088                 6.3395                 6.3196
 IR Inten    --     87.8788                36.2723                12.0082

                     88                     89                     90
                      A                      A                      A
 Frequencies --   3135.8114              3146.0722              3156.7688
 Red. masses --      1.1035                 1.1020                 1.1034
 Frc consts  --      6.3931                 6.4264                 6.4784
 IR Inten    --     23.4702                27.8859                24.0478

 - Thermochemistry -
 -------------------
 Temperature   298.150 Kelvin.  Pressure   1.00000 Atm.
 Atom     1 has atomic number  6 and mass  12.00000

 Molecular mass:   159.16231 amu.
 Principal axes and moments of inertia in atomic units:
                           1         2         3
     Eigenvalues --  1331.167242463.777003190.49963
           X            1.00000   0.00263   0.00101
           Y           -0.00264   0.99989   0.01450
           Z           -0.00097  -0.01450   0.99989
 This molecule is an asymmetric top.
 Rotational symmetry number  1.
 Warning -- assumption of classical behavior for rotation
           may cause significant error
 Rotational temperatures (Kelvin)      0.06507     0.03515     0.02715
 Rotational constants (GHZ):           1.35576     0.73251     0.56566
 Zero-point vibrational energy     780884.9 (Joules/Mol)
                                  186.63596 (Kcal/Mol)
 Warning -- explicit consideration of  21 degrees of freedom as
           vibrations may cause significant error
 Vibrational temperatures:     73.61    86.96   102.48   122.95   168.84
          (Kelvin)            236.70   303.43   315.32   335.41   347.93
                              387.26   403.15   431.34   453.19   503.24
                              540.80   610.85   652.17   685.17   762.05
                              868.40  1070.61  1119.87  1170.23  1189.33
                             1258.08  1259.01  1307.90  1352.53  1374.34
                             1395.77  1417.51  1445.46  1523.10  1559.16
                             1608.42  1622.49  1630.32  1656.08  1681.70
                             1704.69  1735.97  1759.33  1834.40  1880.85
                             1929.47  1952.68  1961.48  1987.65  2006.37
                             2023.77  2035.25  2043.13  2063.72  2070.94
                             2074.16  2083.58  2169.93  2173.27  2177.92
                             2182.47  2190.83  2191.20  2198.07  2206.50
                             2209.29  2212.47  2221.98  2230.00  4339.61
                             4361.49  4372.82  4374.00  4378.17  4393.94
                             4399.22  4405.38  4408.75  4434.81  4456.85
                             4457.89  4465.46  4478.38  4491.30  4495.05
                             4498.06  4501.91  4511.73  4526.50  4541.89

 Zero-point correction=                           0.297423 (Hartree/Particle)
 Thermal correction to Energy=                    0.311515
 Thermal correction to Enthalpy=                  0.312459
 Thermal correction to Gibbs Free Energy=         0.257106
 Sum of electronic and zero-point Energies=           -485.277535
 Sum of electronic and thermal Energies=              -485.263443
 Sum of electronic and thermal Enthalpies=            -485.262499
 Sum of electronic and thermal Free Energies=         -485.317852

                     E (Thermal)             CV                S
                      KCal/Mol        Cal/Mol-Kelvin    Cal/Mol-Kelvin
 Total                  195.478             52.132            116.501
 Electronic               0.000              0.000              0.000
 Translational            0.889              2.981             41.103
 Rotational               0.889              2.981             30.726
 Vibrational            193.701             46.170             44.671
 Vibration     1          0.595              1.977              4.772
 Vibration     2          0.597              1.973              4.443
 Vibration     3          0.598              1.968              4.119
 Vibration     4          0.601              1.959              3.761
 Vibration     5          0.608              1.935              3.144
 Vibration     6          0.623              1.886              2.497
 Vibration     7          0.643              1.824              2.036
 Vibration     8          0.647              1.812              1.966
 Vibration     9          0.654              1.790              1.855
 Vibration    10          0.658              1.776              1.789
 Vibration    11          0.674              1.730              1.602
 Vibration    12          0.680              1.710              1.532
 Vibration    13          0.692              1.674              1.418
 Vibration    14          0.702              1.645              1.336
 Vibration    15          0.727              1.576              1.167
 Vibration    16          0.747              1.522              1.056
 Vibration    17          0.787              1.417              0.877
 Vibration    18          0.812              1.354              0.786
 Vibration    19          0.833              1.303              0.720
 Vibration    20          0.885              1.184              0.588
 Vibration    21          0.962              1.024              0.444

 Optimization completed.
    -- Stationary point found.
 Normal termination of Gaussian 16 at Tue Dec  8 19:28:00 2020.

 ----------------------------------------------------------------------
 # B3LYP/6-311++G(d,p) empiricaldispersion=gd3bj scf=xqc pop=npa geom=c
 heck
 ----------------------------------------------------------------------

 ---------------------------------------
 CID_150942596_JID_1089_Energie_neutraal
 ---------------------------------------
 Structure from the checkpoint file:  "JID_1089.chk"
 Charge =  0 Multiplicity = 1

 SCF Done:  E(RB3LYP) =  -485.714247662     A.U. after   12 cycles
 Normal termination of Gaussian 16 at Tue Dec  8 19:31:21 2020.

 ----------------------------------------------------------------------
 # B3LYP/6-311++G(d,p) empiricaldispersion=gd3bj scf=xqc pop=npa geom=c
 heck
 ----------------------------------------------------------------------

 -------------------------------------
 CID_150942596_JID_1089_Energie_kation
 -------------------------------------
 Structure from the checkpoint file:  "JID_1089.chk"
 Charge =  1 Multiplicity = 2

 SCF Done:  E(UB3LYP) =  -485.411954794     A.U. after   18 cycles
 Normal termination of Gaussian 16 at Tue Dec  8 19:38:23 2020.
 Gaussian 16:  ES64L-G16RevA.03 25-Dec-2016

 ----------------------------------------------------------------------
 # B3LYP/6-311++G(d,p) empiricaldispersion=gd3bj scf=xqc pop=npa geom=c
 heck
 ----------------------------------------------------------------------

 ------------------------------------
 CID_150942596_JID_1089_Energie_anion
 ------------------------------------
 Structure from the checkpoint file:  "JID_1089.chk"
 Charge = -1 Multiplicity = 2

                         Standard orientation:
 ---------------------------------------------------------------------
 Center     Atomic      Atomic             Coordinates (Angstroms)
 Number     Number       Type             X           Y           Z
 ---------------------------------------------------------------------
      1          6           0       -3.376523   -1.118733   -0.707090
      2          6           0       -2.678357    0.107832   -0.111173
      3          6           0       -1.797918   -0.223014    1.105603
      4          6           0       -0.502514   -0.982959    0.791709
      5          7           0        0.654378   -0.121004    0.505429
      6          6           0        1.904141   -0.915030    0.379265
      7          6           0        1.910339   -1.933625   -0.770295
      8          6           0        3.123615    0.004786    0.293077
      9          8           0        0.390088    0.503695   -0.777482
     10          6           0        0.659678    1.909305   -0.741643
     11          6           0       -0.195844    2.713524    0.226899
     12          1           0       -2.653970   -1.861553   -1.064126
     13          1           0       -4.006251   -0.840043   -1.559565
     14          1           0       -4.017035   -1.610051    0.036231
     15          1           0       -2.067189    0.587168   -0.880787
     16          1           0       -3.440646    0.837112    0.194635
     17          1           0       -1.537859    0.689725    1.650980
     18          1           0       -2.389467   -0.837076    1.799232
     19          1           0       -0.206775   -1.567155    1.670606
     20          1           0       -0.679370   -1.698453   -0.024846
     21          1           0        1.964146   -1.453815    1.334308
     22          1           0        1.743933   -1.422105   -1.722469
     23          1           0        2.878863   -2.443473   -0.814741
     24          1           0        1.138267   -2.699660   -0.652083
     25          1           0        3.082783    0.777722    1.066720
     26          1           0        4.041400   -0.577537    0.430495
     27          1           0        3.184380    0.489176   -0.686588
     28          1           0        1.720075    2.085189   -0.529147
     29          1           0        0.471581    2.219329   -1.775973
     30          1           0       -0.019614    2.381878    1.252975
     31          1           0        0.073265    3.774308    0.155917
     32          1           0       -1.261562    2.614254    0.001952
 ---------------------------------------------------------------------

 SCF Done:  E(UB3LYP) =  -485.695957231     A.U. after   27 cycles

 The electronic state is 2-A.
 Alpha  occ. eigenvalues --  -19.04020 -14.24654 -10.11285 -10.09681 -10.08661
 Alpha  occ. eigenvalues --  -10.06042 -10.05828 -10.05800 -10.05553 -10.05480
 Alpha  occ. eigenvalues --  -10.05065  -0.95728  -0.77097  -0.69367  -0.66388
 Alpha  occ. eigenvalues --   -0.64003  -0.59601  -0.58326  -0.53586  -0.51465
 Alpha  occ. eigenvalues --   -0.47167  -0.45591  -0.40092  -0.37782  -0.37278
 Alpha  occ. eigenvalues --   -0.35221  -0.34782  -0.33418  -0.32421  -0.31855
 Alpha  occ. eigenvalues --   -0.30191  -0.29259  -0.28410  -0.27956  -0.27307
 Alpha  occ. eigenvalues --   -0.27240  -0.25885  -0.25289  -0.24359  -0.23235
 Alpha  occ. eigenvalues --   -0.22636  -0.22115  -0.21898  -0.16568  -0.12651
 Alpha  occ. eigenvalues --    0.04669
 Alpha virt. eigenvalues --    0.06658   0.06751   0.07805   0.08705   0.08990
 Alpha virt. eigenvalues --    0.09497   0.09574   0.10372   0.11355   0.11635
 Alpha virt. eigenvalues --    0.11979   0.12505   0.12852   0.13089   0.14500

  Beta  occ. eigenvalues --  -19.04014 -14.24647 -10.11270 -10.09666 -10.08645
  Beta  occ. eigenvalues --  -10.06031 -10.05817 -10.05780 -10.05527 -10.05452
  Beta  occ. eigenvalues --  -10.05038  -0.95715  -0.77074  -0.69337  -0.66354
  Beta  occ. eigenvalues --   -0.63970  -0.59561  -0.58274  -0.53537  -0.51411
  Beta  occ. eigenvalues --   -0.47113  -0.45547  -0.40052  -0.37749  -0.37253
  Beta  occ. eigenvalues --   -0.35188  -0.34742  -0.33384  -0.32392  -0.31816
  Beta  occ. eigenvalues --   -0.30156  -0.29232  -0.28375  -0.27923  -0.27276
  Beta  occ. eigenvalues --   -0.27208  -0.25857  -0.25258  -0.24322  -0.23203
  Beta  occ. eigenvalues --   -0.22603  -0.22083  -0.21869  -0.16547  -0.12615
  Beta virt. eigenvalues --    0.06749   0.07489   0.07640   0.08275   0.09359
  Beta virt. eigenvalues --    0.09495   0.09884   0.10086   0.10755   0.11782
  Beta virt. eigenvalues --    0.12074   0.12424   0.12853   0.13075   0.13351

 Mulliken charges and spin densities:
               1          2
     1  C    1.007160  -1.637366
     2  C   -1.095457   1.015094
     3  C    0.787118  -0.893103
     4  C   -0.350133  -0.110241
     5  N   -0.048287   0.024960
     6  C   -1.285761   1.328988
     7  C    0.785194  -1.335960
     8  C    0.963207  -1.521018
     9  O    0.035223   0.035603
    10  C   -0.168824   0.018617
    11  C    0.428875  -0.941569
    12  H   -0.259446   0.402866
    13  H   -0.342813   0.475804
    14  H   -0.115989   0.239759
    15  H    0.230350  -0.101660
    16  H   -0.207997   0.349094
    17  H    0.251934  -0.123469
    18  H   -0.168305   0.323155
    19  H   -0.297888   0.441802
    20  H    0.876516  -0.776720
    21  H   -0.333051   0.486664
    22  H    0.147044   0.009622
    23  H   -0.369553   0.514846
    24  H   -0.472533   0.615896
    25  H   -0.096651   0.246651
    26  H   -0.213585   0.357063
    27  H   -0.200919   0.346873
    28  H    0.092643   0.024954
    29  H   -0.172512   0.324712
    30  H    0.053615   0.105574
    31  H   -0.360533   0.495329
    32  H   -0.098640   0.257179
 Sum of Mulliken charges =  -1.00000   1.00000

 Dipole moment (field-independent basis, Debye):
    X=             -0.5488    Y=              1.9582    Z=             -0.2787  Tot=              2.0527
 Quadrupole moment (field-independent basis, Debye-Ang):
   XX=           -142.0817   YY=           -125.3146   ZZ=           -105.7478
   XY=              3.4277   XZ=             -4.9279   YZ=              1.2622

 Summary of Natural Population Analysis:

                                       Natural Population
                Natural  -----------------------------------------------
    Atom  No    Charge         Core      Valence    Rydberg      Total
 -----------------------------------------------------------------------
      C    1   -0.28340      0.99967     2.27957    0.00416     3.28340
      C    2   -0.19456      0.99963     2.18646    0.00847     3.19456
      C    3   -0.19515      0.99962     2.18637    0.00915     3.19515
      C    4   -0.09098      0.99958     2.07886    0.01253     3.09098
      N    5   -0.12296      0.99969     2.60878    0.01449     3.62296
      C    6   -0.01336      0.99959     2.00028    0.01349     3.01336
      C    7   -0.29830      0.99964     2.29259    0.00608     3.29830
      C    8   -0.28891      0.99964     2.28270    0.00657     3.28891
      O    9   -0.23974      0.99990     3.23013    0.00971     4.23974
      C   10   -0.00642      0.99959     1.99436    0.01248     3.00642
      C   11   -0.30280      0.99966     2.29824    0.00490     3.30280
      H   12    0.09614      0.00000     0.40256    0.00130     0.40386
      H   13    0.09739      0.00000     0.40150    0.00111     0.40261
      H   14    0.09330      0.00000     0.40531    0.00139     0.40670
      H   15    0.10228      0.00000     0.39594    0.00178     0.39772
      H   16    0.09175      0.00000     0.40708    0.00117     0.40825
      H   17    0.10163      0.00000     0.39674    0.00162     0.39837
      H   18    0.09532      0.00000     0.40359    0.00109     0.40468
      H   19    0.09869      0.00000     0.39972    0.00159     0.40131
      H   20    0.08718      0.00000     0.41086    0.00196     0.41282
      H   21    0.09605      0.00000     0.40198    0.00198     0.40395
      H   22    0.10452      0.00000     0.39424    0.00124     0.39548
      H   23    0.10128      0.00000     0.39758    0.00114     0.39872
      H   24    0.10046      0.00000     0.39848    0.00106     0.39954
      H   25    0.10243      0.00000     0.39612    0.00145     0.39757
      H   26    0.10170      0.00000     0.39720    0.00110     0.39830
      H   27    0.09685      0.00000     0.40176    0.00139     0.40315
      H   28    0.08067      0.00000     0.41759    0.00173     0.41933
      H   29    0.08648      0.00000     0.41239    0.00114     0.41352
      H   30    0.10440      0.00000     0.39405    0.00155     0.39560
      H   31    0.09916      0.00000     0.39968    0.00116     0.40084
      H   32    0.09889      0.00000     0.39991    0.00120     0.40111
 =======================================================================
   * Total *    0.00000     10.99620    33.87264    0.13116    45.00000

 Normal termination of Gaussian 16 at Tue Dec  8 19:48:50 2020.
