 Gaussian 16, Revision A.03,

 -----------------------------------------------------------
 # opt freq B3LYP/6-31G(d) empiricaldispersion=gd3bj scf=xqc
 -----------------------------------------------------------

 ------------------------------
 CID_63354099_JID_9042_neutraal
 ------------------------------
 Symbolic Z-matrix:
 Charge =  0 Multiplicity = 1

 SCF Done:  E(RB3LYP) =  -872.016605806     A.U. after   16 cycles
 SCF Done:  E(RB3LYP) =  -872.021914017     A.U. after   15 cycles
 SCF Done:  E(RB3LYP) =  -872.023305059     A.U. after   14 cycles
 SCF Done:  E(RB3LYP) =  -872.021461831     A.U. after   16 cycles
 SCF Done:  E(RB3LYP) =  -872.025223196     A.U. after   14 cycles
 SCF Done:  E(RB3LYP) =  -872.025716058     A.U. after   13 cycles
 SCF Done:  E(RB3LYP) =  -872.027619140     A.U. after   15 cycles
 SCF Done:  E(RB3LYP) =  -872.028453536     A.U. after   15 cycles
 SCF Done:  E(RB3LYP) =  -872.029903990     A.U. after   14 cycles
 SCF Done:  E(RB3LYP) =  -872.031476040     A.U. after   14 cycles
 SCF Done:  E(RB3LYP) =  -872.032747950     A.U. after   11 cycles
 SCF Done:  E(RB3LYP) =  -872.032766286     A.U. after   10 cycles
 SCF Done:  E(RB3LYP) =  -872.032781350     A.U. after   10 cycles
 SCF Done:  E(RB3LYP) =  -872.032797304     A.U. after   10 cycles
 SCF Done:  E(RB3LYP) =  -872.032799827     A.U. after    9 cycles
 SCF Done:  E(RB3LYP) =  -872.032799941     A.U. after    8 cycles
 Optimization completed.
    -- Stationary point found.
 Normal termination of Gaussian 16 at Thu Dec 17 20:14:52 2020.

 --------------------------------------------------------------------
 #N Geom=AllCheck Guess=TCheck SCRF=Check GenChk RB3LYP/6-31G(d) Freq
 --------------------------------------------------------------------

 Structure from the checkpoint file:  "JID_9042.chk"
 ------------------------------
 CID_63354099_JID_9042_neutraal
 ------------------------------
 Charge =  0 Multiplicity = 1

 SCF Done:  E(RB3LYP) =  -872.032799941     A.U. after    1 cycles

  Exact polarizability: 246.927  -3.527 205.561  -0.134   0.187  72.015
 Approx polarizability: 353.833 -11.706 363.266  -0.288  -0.848 113.065

                      1                      2                      3
                      A                      A                      A
 Frequencies --     24.0531                48.3017                64.5766
 Red. masses --      6.2243                11.8830                 3.0939
 Frc consts  --      0.0021                 0.0163                 0.0076
 IR Inten    --      0.9746                 0.0480                 0.2725

                      4                      5                      6
                      A                      A                      A
 Frequencies --     76.6112                86.8757               137.8202
 Red. masses --      5.8913                 5.0647                 5.3327
 Frc consts  --      0.0204                 0.0225                 0.0597
 IR Inten    --      0.8407                 3.8947                 1.4811

                      7                      8                      9
                      A                      A                      A
 Frequencies --    145.3613               175.9368               207.0591
 Red. masses --      3.0669                 5.2069                 5.1929
 Frc consts  --      0.0382                 0.0950                 0.1312
 IR Inten    --      0.3758                 2.3478                 2.0069

                     10                     11                     12
                      A                      A                      A
 Frequencies --    238.5815               245.2197               288.1705
 Red. masses --      4.9765                 5.5897                 4.9444
 Frc consts  --      0.1669                 0.1980                 0.2419
 IR Inten    --      3.4695                 1.7211                 0.1980

                     13                     14                     15
                      A                      A                      A
 Frequencies --    329.1187               332.8406               369.2098
 Red. masses --      4.9259                 3.3633                 1.3478
 Frc consts  --      0.3144                 0.2195                 0.1083
 IR Inten    --      5.5720                 1.4040               278.8356

                     16                     17                     18
                      A                      A                      A
 Frequencies --    385.5895               419.4521               439.0760
 Red. masses --      4.2979                 5.8695                 3.2989
 Frc consts  --      0.3765                 0.6084                 0.3747
 IR Inten    --     16.6511                 5.7801                 0.0797

                     19                     20                     21
                      A                      A                      A
 Frequencies --    482.0110               497.9612               509.9400
 Red. masses --      1.5364                 3.2037                 2.8978
 Frc consts  --      0.2103                 0.4681                 0.4440
 IR Inten    --     44.8312                 5.5669                16.4838

                     22                     23                     24
                      A                      A                      A
 Frequencies --    546.5879               590.1014               635.7990
 Red. masses --      6.4052                 5.6229                 3.4483
 Frc consts  --      1.1275                 1.1536                 0.8213
 IR Inten    --      4.6400                 6.7318                 5.0192

                     25                     26                     27
                      A                      A                      A
 Frequencies --    667.5384               671.2701               695.8578
 Red. masses --      6.4647                 3.8673                 6.2260
 Frc consts  --      1.6973                 1.0267                 1.7762
 IR Inten    --      2.2920                 0.6678                 4.4798

                     28                     29                     30
                      A                      A                      A
 Frequencies --    719.7142               733.0757               756.1568
 Red. masses --      2.2634                 8.1613                 4.7859
 Frc consts  --      0.6908                 2.5841                 1.6123
 IR Inten    --     24.6353                47.1400                18.8524

                     31                     32                     33
                      A                      A                      A
 Frequencies --    801.4230               806.7466               833.0282
 Red. masses --      1.0906                 2.7840                 1.4276
 Frc consts  --      0.4127                 1.0676                 0.5837
 IR Inten    --      4.4534                 3.5474                 0.5200

                     34                     35                     36
                      A                      A                      A
 Frequencies --    835.6869               843.8783               856.3113
 Red. masses --      1.6961                 2.7734                 5.4322
 Frc consts  --      0.6979                 1.1636                 2.3469
 IR Inten    --     31.8861                14.0524                11.5549

                     37                     38                     39
                      A                      A                      A
 Frequencies --    895.3970               925.7088               960.3248
 Red. masses --      4.1839                 2.4944                 4.1201
 Frc consts  --      1.9764                 1.2594                 2.2387
 IR Inten    --      2.8624                 3.4632                40.0998

                     40                     41                     42
                      A                      A                      A
 Frequencies --    963.5790               978.3544              1005.2441
 Red. masses --      1.4260                 1.4197                 7.7802
 Frc consts  --      0.7801                 0.8006                 4.6322
 IR Inten    --      1.0233                 6.7173                 5.0651

                     43                     44                     45
                      A                      A                      A
 Frequencies --   1007.4395              1025.0197              1027.8162
 Red. masses --      1.3229                 5.9509                 4.1269
 Frc consts  --      0.7911                 3.6838                 2.5687
 IR Inten    --      0.2049                 6.7293                39.3739

                     46                     47                     48
                      A                      A                      A
 Frequencies --   1070.0647              1082.5859              1095.2106
 Red. masses --      1.3017                 1.4861                 1.3388
 Frc consts  --      0.8782                 1.0262                 0.9461
 IR Inten    --     24.1455                 3.7172                 2.8123

                     49                     50                     51
                      A                      A                      A
 Frequencies --   1106.1968              1116.1590              1121.6765
 Red. masses --      1.6400                 1.4798                 1.9490
 Frc consts  --      1.1824                 1.0862                 1.4447
 IR Inten    --     23.9496                15.4676                36.3467

                     52                     53                     54
                      A                      A                      A
 Frequencies --   1134.4506              1195.1265              1200.0812
 Red. masses --      1.1055                 1.1433                 1.5192
 Frc consts  --      0.8383                 0.9621                 1.2891
 IR Inten    --      1.9472                14.0029                27.4418

                     55                     56                     57
                      A                      A                      A
 Frequencies --   1215.3822              1219.9993              1239.6879
 Red. masses --      3.9579                 1.3590                 1.9173
 Frc consts  --      3.4447                 1.1918                 1.7361
 IR Inten    --      8.5220                 0.3626                23.0535

                     58                     59                     60
                      A                      A                      A
 Frequencies --   1308.5216              1322.9580              1379.5811
 Red. masses --      1.4870                 5.5387                 7.2376
 Frc consts  --      1.5001                 5.7115                 8.1159
 IR Inten    --      3.0418                16.2419                14.5138

                     61                     62                     63
                      A                      A                      A
 Frequencies --   1392.2451              1400.3849              1422.6305
 Red. masses --      1.8668                11.3812                 5.1735
 Frc consts  --      2.1320                13.1503                 6.1690
 IR Inten    --     41.1950               372.0369               109.9528

                     64                     65                     66
                      A                      A                      A
 Frequencies --   1464.5772              1479.1455              1494.6792
 Red. masses --      3.8012                 1.0893                 3.5868
 Frc consts  --      4.8039                 1.4042                 4.7212
 IR Inten    --     52.6450                 2.5645                46.3723

                     67                     68                     69
                      A                      A                      A
 Frequencies --   1503.2580              1521.8625              1533.1150
 Red. masses --      2.5224                 1.6878                 2.8241
 Frc consts  --      3.3584                 2.3032                 3.9110
 IR Inten    --      9.6656                41.4324                 0.8389

                     70                     71                     72
                      A                      A                      A
 Frequencies --   1605.7369              1625.6938              1633.0008
 Red. masses --      7.0346                 6.6883                 5.2537
 Frc consts  --     10.6866                10.4147                 8.2544
 IR Inten    --    203.1045               236.0124               115.8598

                     73                     74                     75
                      A                      A                      A
 Frequencies --   1648.9565              1676.6157              1681.5091
 Red. masses --      4.2488                 1.6716                 8.0720
 Frc consts  --      6.8067                 2.7685                13.4471
 IR Inten    --    105.0795               504.4862                43.7316

                     76                     77                     78
                      A                      A                      A
 Frequencies --   3156.5391              3158.0211              3179.5860
 Red. masses --      1.0505                 1.0579                 1.0900
 Frc consts  --      6.1669                 6.2165                 6.4925
 IR Inten    --     16.9509                13.5113                11.2014

                     79                     80                     81
                      A                      A                      A
 Frequencies --   3205.7960              3206.9689              3240.0170
 Red. masses --      1.0918                 1.0897                 1.0919
 Frc consts  --      6.6110                 6.6029                 6.7534
 IR Inten    --     14.5109                10.8320                 2.4558

                     82                     83                     84
                      A                      A                      A
 Frequencies --   3240.1029              3252.3297              3255.6246
 Red. masses --      1.1197                 1.1167                 1.0927
 Frc consts  --      6.9256                 6.9595                 6.8239
 IR Inten    --      0.2914                14.9220                 1.5462

                     85                     86                     87
                      A                      A                      A
 Frequencies --   3275.5315              3590.0864              3708.7857
 Red. masses --      1.0903                 1.0462                 1.1025
 Frc consts  --      6.8924                 7.9448                 8.9352
 IR Inten    --      5.8420                61.4336                31.0511

 - Thermochemistry -
 -------------------
 Temperature   298.150 Kelvin.  Pressure   1.00000 Atm.
 Atom     1 has atomic number  6 and mass  12.00000

 Molecular mass:   256.09603 amu.
 Principal axes and moments of inertia in atomic units:
                           1         2         3
     Eigenvalues --  2579.115528804.43741**********
           X            1.00000   0.00178  -0.00033
           Y           -0.00178   1.00000   0.00209
           Z            0.00033  -0.00209   1.00000
 This molecule is an asymmetric top.
 Rotational symmetry number  1.
 Warning -- assumption of classical behavior for rotation
           may cause significant error
 Rotational temperatures (Kelvin)      0.03358     0.00984     0.00770
 Rotational constants (GHZ):           0.69975     0.20498     0.16055
 Zero-point vibrational energy     631905.2 (Joules/Mol)
                                  151.02898 (Kcal/Mol)
 Warning -- explicit consideration of  23 degrees of freedom as
           vibrations may cause significant error
 Vibrational temperatures:     34.61    69.50    92.91   110.23   124.99
          (Kelvin)            198.29   209.14   253.13   297.91   343.27
                              352.82   414.61   473.53   478.88   531.21
                              554.78   603.50   631.73   693.51   716.46
                              733.69   786.42   849.02   914.77   960.44
                              965.81  1001.18  1035.51  1054.73  1087.94
                             1153.07  1160.73  1198.54  1202.37  1214.15
                             1232.04  1288.28  1331.89  1381.69  1386.38
                             1407.63  1446.32  1449.48  1474.77  1478.80
                             1539.58  1557.60  1575.76  1591.57  1605.90
                             1613.84  1632.22  1719.52  1726.65  1748.66
                             1755.31  1783.63  1882.67  1903.44  1984.91
                             2003.13  2014.84  2046.85  2107.20  2128.16
                             2150.51  2162.85  2189.62  2205.81  2310.30
                             2339.01  2349.52  2372.48  2412.28  2419.32
                             4541.56  4543.69  4574.72  4612.43  4614.11
                             4661.66  4661.79  4679.38  4684.12  4712.76
                             5165.33  5336.12

 Zero-point correction=                           0.240680 (Hartree/Particle)
 Thermal correction to Energy=                    0.256458
 Thermal correction to Enthalpy=                  0.257402
 Thermal correction to Gibbs Free Energy=         0.196055
 Sum of electronic and zero-point Energies=           -871.792120
 Sum of electronic and thermal Energies=              -871.776342
 Sum of electronic and thermal Enthalpies=            -871.775398
 Sum of electronic and thermal Free Energies=         -871.836745

                     E (Thermal)             CV                S
                      KCal/Mol        Cal/Mol-Kelvin    Cal/Mol-Kelvin
 Total                  160.930             61.125            129.116
 Electronic               0.000              0.000              0.000
 Translational            0.889              2.981             42.521
 Rotational               0.889              2.981             33.900
 Vibrational            159.152             55.164             52.695
 Vibration     1          0.593              1.985              6.268
 Vibration     2          0.595              1.978              4.886
 Vibration     3          0.597              1.971              4.312
 Vibration     4          0.599              1.965              3.976
 Vibration     5          0.601              1.958              3.729
 Vibration     6          0.614              1.916              2.834
 Vibration     7          0.617              1.908              2.732
 Vibration     8          0.628              1.872              2.371
 Vibration     9          0.641              1.830              2.069
 Vibration    10          0.657              1.782              1.813
 Vibration    11          0.660              1.771              1.765
 Vibration    12          0.685              1.696              1.485
 Vibration    13          0.712              1.617              1.264
 Vibration    14          0.715              1.610              1.246
 Vibration    15          0.742              1.536              1.083
 Vibration    16          0.754              1.501              1.017
 Vibration    17          0.782              1.428              0.894
 Vibration    18          0.799              1.385              0.830
 Vibration    19          0.838              1.290              0.705
 Vibration    20          0.853              1.255              0.663
 Vibration    21          0.865              1.228              0.634
 Vibration    22          0.902              1.147              0.551
 Vibration    23          0.947              1.053              0.467

                           ! Non-Optimized Parameters !
 Normal termination of Gaussian 16 at Thu Dec 17 20:27:45 2020.

 ----------------------------------------------------------------------
 # B3LYP/6-311++G(d,p) empiricaldispersion=gd3bj scf=xqc pop=npa geom=c
 heck
 ----------------------------------------------------------------------

 --------------------------------------
 CID_63354099_JID_9042_Energie_neutraal
 --------------------------------------
 Structure from the checkpoint file:  "JID_9042.chk"
 Charge =  0 Multiplicity = 1

 SCF Done:  E(RB3LYP) =  -872.270534885     A.U. after   15 cycles
 Normal termination of Gaussian 16 at Thu Dec 17 20:33:10 2020.

 ----------------------------------------------------------------------
 # B3LYP/6-311++G(d,p) empiricaldispersion=gd3bj scf=xqc pop=npa geom=c
 heck
 ----------------------------------------------------------------------

 ------------------------------------
 CID_63354099_JID_9042_Energie_kation
 ------------------------------------
 Structure from the checkpoint file:  "JID_9042.chk"
 Charge =  1 Multiplicity = 2

 SCF Done:  E(UB3LYP) =  -871.964216609     A.U. after   27 cycles
 Normal termination of Gaussian 16 at Thu Dec 17 20:46:51 2020.
 Gaussian 16:  ES64L-G16RevA.03 25-Dec-2016

 ----------------------------------------------------------------------
 # B3LYP/6-311++G(d,p) empiricaldispersion=gd3bj scf=xqc pop=npa geom=c
 heck
 ----------------------------------------------------------------------

 -----------------------------------
 CID_63354099_JID_9042_Energie_anion
 -----------------------------------
 Structure from the checkpoint file:  "JID_9042.chk"
 Charge = -1 Multiplicity = 2

                         Standard orientation:
 ---------------------------------------------------------------------
 Center     Atomic      Atomic             Coordinates (Angstroms)
 Number     Number       Type             X           Y           Z
 ---------------------------------------------------------------------
      1          6           0       -4.148831   -1.996850   -0.741292
      2          6           0       -4.145583   -1.994186    0.752961
      3          6           0       -4.156883   -0.672062    0.003391
      4          6           0       -2.935753    0.163774   -0.001165
      5          6           0       -3.009602    1.550518   -0.004462
      6          6           0       -1.792699    2.257979   -0.007484
      7          7           0       -0.611913    1.619951   -0.003268
      8          6           0       -0.650631    0.281246   -0.004442
      9          7           0       -1.748818   -0.479145   -0.001965
     10          6           0        0.659252   -0.422726   -0.003148
     11          6           0        1.849468    0.311124   -0.002370
     12          6           0        3.059820   -0.370708   -0.000212
     13          6           0        3.135018   -1.762653    0.000083
     14          6           0        1.944546   -2.485579   -0.001043
     15          6           0        0.717215   -1.824003   -0.002242
     16          7           0        4.309253    0.405497    0.002556
     17          8           0        4.223125    1.632945    0.008982
     18          8           0        5.370327   -0.219600   -0.001059
     19          7           0       -1.745639    3.623036   -0.050992
     20          1           0       -5.058073   -2.276807   -1.265023
     21          1           0       -3.221919   -2.251598   -1.244780
     22          1           0       -5.052416   -2.272591    1.281710
     23          1           0       -3.216380   -2.247215    1.253126
     24          1           0       -5.089053   -0.114363    0.004026
     25          1           0       -3.964479    2.066045   -0.011214
     26          1           0        1.824846    1.391788   -0.003708
     27          1           0        4.103309   -2.246409    0.001311
     28          1           0        1.975034   -3.570694   -0.000762
     29          1           0       -0.214523   -2.377284   -0.002734
     30          1           0       -0.846173    4.040472    0.144684
     31          1           0       -2.559988    4.151269    0.224221
 ---------------------------------------------------------------------

 SCF Done:  E(UB3LYP) =  -872.306694329     A.U. after   25 cycles

 The electronic state is 2-A.
 Alpha  occ. eigenvalues --  -18.95948 -18.95757 -14.33854 -14.24310 -14.19253
 Alpha  occ. eigenvalues --  -14.18849 -10.15540 -10.12543 -10.12498 -10.10278
 Alpha  occ. eigenvalues --  -10.09487 -10.09456 -10.07422 -10.06340 -10.04560
 Alpha  occ. eigenvalues --  -10.04191 -10.04188 -10.02948 -10.02737  -1.03751
 Alpha  occ. eigenvalues --   -0.88746  -0.86586  -0.83733  -0.78945  -0.75290
 Alpha  occ. eigenvalues --   -0.73093  -0.68560  -0.63914  -0.62192  -0.57789
 Alpha  occ. eigenvalues --   -0.54951  -0.53482  -0.52253  -0.50311  -0.46876
 Alpha  occ. eigenvalues --   -0.46048  -0.44713  -0.41448  -0.40759  -0.39052
 Alpha  occ. eigenvalues --   -0.38750  -0.36582  -0.35720  -0.35538  -0.34318
 Alpha  occ. eigenvalues --   -0.33687  -0.33563  -0.31917  -0.30386  -0.29815
 Alpha  occ. eigenvalues --   -0.29137  -0.28461  -0.26662  -0.25138  -0.23085
 Alpha  occ. eigenvalues --   -0.22731  -0.22071  -0.21942  -0.19267  -0.17296
 Alpha  occ. eigenvalues --   -0.15049  -0.14646  -0.14496  -0.13277  -0.12712
 Alpha  occ. eigenvalues --   -0.11711  -0.11292   0.02312
 Alpha virt. eigenvalues --    0.05403   0.06079   0.06262   0.07579   0.08173
 Alpha virt. eigenvalues --    0.08550   0.09401   0.10345   0.11196   0.12309
 Alpha virt. eigenvalues --    0.12594   0.12791   0.13160   0.13921   0.14037

  Beta  occ. eigenvalues --  -18.95637 -18.95325 -14.33359 -14.24304 -14.19247
  Beta  occ. eigenvalues --  -14.18812 -10.15501 -10.12552 -10.12392 -10.10278
  Beta  occ. eigenvalues --  -10.09487 -10.09456 -10.07379 -10.06300 -10.04582
  Beta  occ. eigenvalues --  -10.04308 -10.04188 -10.02635 -10.02385  -1.02931
  Beta  occ. eigenvalues --   -0.88659  -0.85884  -0.83676  -0.78924  -0.75241
  Beta  occ. eigenvalues --   -0.72820  -0.68411  -0.63394  -0.61980  -0.57758
  Beta  occ. eigenvalues --   -0.54722  -0.52688  -0.52252  -0.50149  -0.46814
  Beta  occ. eigenvalues --   -0.45973  -0.44572  -0.41186  -0.40750  -0.38906
  Beta  occ. eigenvalues --   -0.38446  -0.36507  -0.35517  -0.33944  -0.33445
  Beta  occ. eigenvalues --   -0.33239  -0.33201  -0.31774  -0.30157  -0.29749
  Beta  occ. eigenvalues --   -0.29113  -0.28412  -0.26498  -0.24700  -0.22909
  Beta  occ. eigenvalues --   -0.22716  -0.21847  -0.21485  -0.19207  -0.17046
  Beta  occ. eigenvalues --   -0.14721  -0.14540  -0.12917  -0.12388  -0.11517
  Beta  occ. eigenvalues --   -0.10919  -0.10538
  Beta virt. eigenvalues --    0.05381   0.06205   0.06702   0.07534   0.08145
  Beta virt. eigenvalues --    0.08372   0.09360   0.09539   0.10316   0.11171
  Beta virt. eigenvalues --    0.12378   0.12583   0.12944   0.13218   0.13919

 Mulliken charges and spin densities:
               1          2
     1  C   -0.433650  -0.001790
     2  C   -0.431228  -0.000990
     3  C    0.063543  -0.000054
     4  C    0.281632  -0.011446
     5  C   -0.196069   0.046974
     6  C    0.163273   0.018023
     7  N   -0.038829  -0.003990
     8  C   -1.185292   0.065413
     9  N    0.104457   0.017898
    10  C    1.607468  -0.010092
    11  C   -0.750523   0.002272
    12  C   -0.472011  -0.043918
    13  C    0.180291   0.306728
    14  C   -0.449553  -0.087814
    15  C   -0.775274   0.274709
    16  N   -0.238781   0.168358
    17  O   -0.172137   0.160433
    18  O   -0.143849   0.122258
    19  N   -0.317930   0.005615
    20  H    0.126414  -0.000247
    21  H    0.192247   0.002868
    22  H    0.125220   0.000057
    23  H    0.193008   0.002539
    24  H    0.232393   0.000351
    25  H    0.131682  -0.004441
    26  H    0.269292  -0.000188
    27  H    0.202336  -0.018451
    28  H    0.138339   0.005884
    29  H    0.096011  -0.023305
    30  H    0.267947  -0.000198
    31  H    0.229574   0.006543
 Sum of Mulliken charges =  -1.00000   1.00000

 Dipole moment (field-independent basis, Debye):
    X=            -15.3333    Y=              0.6109    Z=              0.6249  Tot=             15.3582
 Quadrupole moment (field-independent basis, Debye-Ang):
   XX=           -190.9305   YY=           -115.8817   ZZ=           -118.6301
   XY=            -12.8245   XZ=             -1.2230   YZ=              2.9744

 Summary of Natural Population Analysis:

                                       Natural Population
                Natural  -----------------------------------------------
    Atom  No    Charge         Core      Valence    Rydberg      Total
 -----------------------------------------------------------------------
      C    1   -0.19158      0.99963     2.18534    0.00661     3.19158
      C    2   -0.19174      0.99963     2.18551    0.00660     3.19174
      C    3   -0.12605      0.99956     2.11709    0.00939     3.12605
      C    4    0.12226      0.99953     1.86446    0.01375     2.87774
      C    5   -0.16973      0.99941     2.16287    0.00745     3.16973
      C    6    0.21758      0.99957     1.76918    0.01367     2.78242
      N    7   -0.27805      0.99964     2.76711    0.01130     3.77805
      C    8    0.24764      0.99957     1.73611    0.01668     2.75236
      N    9   -0.27737      0.99965     2.76690    0.01082     3.77737
      C   10   -0.06913      0.99950     2.05911    0.01052     3.06913
      C   11   -0.07123      0.99941     2.06258    0.00924     3.07123
      C   12    0.03576      0.99940     1.95307    0.01177     2.96424
      C   13   -0.02972      0.99953     2.02063    0.00957     3.02972
      C   14   -0.13911      0.99960     2.12983    0.00968     3.13911
      C   15   -0.00561      0.99944     1.99821    0.00796     3.00561
      N   16    0.29290      0.99972     2.18004    0.02734     3.20710
      O   17   -0.19009      0.99990     3.18212    0.00808     4.19009
      O   18   -0.20852      0.99990     3.20077    0.00785     4.20852
      N   19   -0.39276      0.99970     2.88496    0.00810     3.89276
      H   20    0.09646      0.00000     0.40257    0.00096     0.40354
      H   21    0.11441      0.00000     0.38454    0.00105     0.38559
      H   22    0.09640      0.00000     0.40263    0.00096     0.40360
      H   23    0.11434      0.00000     0.38461    0.00105     0.38566
      H   24    0.10133      0.00000     0.39759    0.00108     0.39867
      H   25    0.09638      0.00000     0.40231    0.00131     0.40362
      H   26    0.12322      0.00000     0.37540    0.00138     0.37678
      H   27    0.10878      0.00000     0.38997    0.00125     0.39122
      H   28    0.09195      0.00000     0.40695    0.00110     0.40805
      H   29    0.09947      0.00000     0.39945    0.00108     0.40053
      H   30    0.19656      0.00000     0.30208    0.00136     0.30344
      H   31    0.18532      0.00000     0.31348    0.00120     0.31468
 =======================================================================
   * Total *    0.00004     18.99231    47.78746    0.22019    66.99996

 Normal termination of Gaussian 16 at Thu Dec 17 20:59:15 2020.
