 Gaussian 16, Revision A.03,

 -----------------------------------------------------------
 # opt freq B3LYP/6-31G(d) empiricaldispersion=gd3bj scf=xqc
 -----------------------------------------------------------

 ------------------------------
 CID_82694668_JID_3921_neutraal
 ------------------------------
 Symbolic Z-matrix:
 Charge =  0 Multiplicity = 1

 SCF Done:  E(RB3LYP) =  -575.452812221     A.U. after   15 cycles
 SCF Done:  E(RB3LYP) =  -575.454635951     A.U. after   13 cycles
 SCF Done:  E(RB3LYP) =  -575.453603454     A.U. after   13 cycles
 SCF Done:  E(RB3LYP) =  -575.456110284     A.U. after   13 cycles
 SCF Done:  E(RB3LYP) =  -575.456458505     A.U. after   13 cycles
 SCF Done:  E(RB3LYP) =  -575.456593515     A.U. after   13 cycles
 SCF Done:  E(RB3LYP) =  -575.456665233     A.U. after   13 cycles
 SCF Done:  E(RB3LYP) =  -575.456694562     A.U. after   12 cycles
 SCF Done:  E(RB3LYP) =  -575.456745371     A.U. after   12 cycles
 SCF Done:  E(RB3LYP) =  -575.456836420     A.U. after   12 cycles
 SCF Done:  E(RB3LYP) =  -575.457093813     A.U. after   11 cycles
 SCF Done:  E(RB3LYP) =  -575.457094886     A.U. after    9 cycles
 SCF Done:  E(RB3LYP) =  -575.457095532     A.U. after   10 cycles
 SCF Done:  E(RB3LYP) =  -575.457095591     A.U. after    7 cycles
 SCF Done:  E(RB3LYP) =  -575.457095591     A.U. after    7 cycles
 Optimization completed.
    -- Stationary point found.
 Normal termination of Gaussian 16 at Sun Dec 13 12:31:21 2020.

 --------------------------------------------------------------------
 #N Geom=AllCheck Guess=TCheck SCRF=Check GenChk RB3LYP/6-31G(d) Freq
 --------------------------------------------------------------------

 Structure from the checkpoint file:  "JID_3921.chk"
 ------------------------------
 CID_82694668_JID_3921_neutraal
 ------------------------------
 Charge =  0 Multiplicity = 1

 SCF Done:  E(RB3LYP) =  -575.457095591     A.U. after    1 cycles

  Exact polarizability: 135.980  -6.575 131.127 -11.936  -4.702  87.201
 Approx polarizability: 184.950  -3.175 185.028 -27.577 -15.793 136.984

                      1                      2                      3
                      A                      A                      A
 Frequencies --     15.6349                31.5445                33.6968
 Red. masses --      5.4423                 2.5594                 4.4163
 Frc consts  --      0.0008                 0.0015                 0.0030
 IR Inten    --      2.3571                 0.8024                 1.8131

                      4                      5                      6
                      A                      A                      A
 Frequencies --     71.6598                80.8513               109.0513
 Red. masses --      2.7863                 3.6610                 2.6021
 Frc consts  --      0.0084                 0.0141                 0.0182
 IR Inten    --      0.3684                 2.0419                 3.4028

                      7                      8                      9
                      A                      A                      A
 Frequencies --    116.7456               176.6303               196.6043
 Red. masses --      3.3681                 2.6711                 1.3916
 Frc consts  --      0.0270                 0.0491                 0.0317
 IR Inten    --      2.2776                 0.9713                 0.8231

                     10                     11                     12
                      A                      A                      A
 Frequencies --    215.6709               254.6159               296.0287
 Red. masses --      1.3183                 2.1356                 1.6693
 Frc consts  --      0.0361                 0.0816                 0.0862
 IR Inten    --      1.5091                 3.7355                 1.4093

                     13                     14                     15
                      A                      A                      A
 Frequencies --    329.1401               335.1396               416.6014
 Red. masses --      2.8140                 2.3038                 3.2422
 Frc consts  --      0.1796                 0.1525                 0.3315
 IR Inten    --      1.1022                 3.3634                 2.8246

                     16                     17                     18
                      A                      A                      A
 Frequencies --    460.1307               491.7056               510.6644
 Red. masses --      3.3023                 2.9239                 2.2663
 Frc consts  --      0.4119                 0.4165                 0.3482
 IR Inten    --      3.2765                 1.6729                10.3690

                     19                     20                     21
                      A                      A                      A
 Frequencies --    588.8517               655.1064               697.7107
 Red. masses --      3.3990                 3.6473                 5.3761
 Frc consts  --      0.6944                 0.9223                 1.5420
 IR Inten    --      0.3722                11.9668                 1.3027

                     22                     23                     24
                      A                      A                      A
 Frequencies --    727.3445               756.6139               798.6869
 Red. masses --      2.9728                 2.1194                 1.2400
 Frc consts  --      0.9266                 0.7148                 0.4661
 IR Inten    --      1.1199                 1.2017                 6.1040

                     25                     26                     27
                      A                      A                      A
 Frequencies --    802.2433               809.3449               824.5353
 Red. masses --      1.4031                 1.3890                 2.3357
 Frc consts  --      0.5321                 0.5361                 0.9356
 IR Inten    --      4.1988                 9.5444                 3.7458

                     28                     29                     30
                      A                      A                      A
 Frequencies --    896.7760               963.5090               974.0424
 Red. masses --      1.5689                 2.2784                 2.4347
 Frc consts  --      0.7434                 1.2462                 1.3610
 IR Inten    --      6.4462                10.7756                 4.7376

                     31                     32                     33
                      A                      A                      A
 Frequencies --    980.7432              1031.2846              1064.1937
 Red. masses --      2.3263                 2.7170                 2.0547
 Frc consts  --      1.3183                 1.7026                 1.3710
 IR Inten    --      3.6840                12.8005                17.0679

                     34                     35                     36
                      A                      A                      A
 Frequencies --   1075.9815              1086.6245              1092.3652
 Red. masses --      1.7285                 2.0848                 2.2685
 Frc consts  --      1.1790                 1.4504                 1.5948
 IR Inten    --      1.8926                 4.4885                18.1675

                     37                     38                     39
                      A                      A                      A
 Frequencies --   1096.1592              1109.8035              1161.0875
 Red. masses --      1.8150                 1.7848                 2.1516
 Frc consts  --      1.2849                 1.2952                 1.7090
 IR Inten    --     10.3546                 3.1133                 5.8839

                     40                     41                     42
                      A                      A                      A
 Frequencies --   1183.1790              1238.5523              1248.8811
 Red. masses --      1.4807                 1.9642                 1.3868
 Frc consts  --      1.2213                 1.7753                 1.2744
 IR Inten    --      6.9731                 4.7493                 0.6243

                     43                     44                     45
                      A                      A                      A
 Frequencies --   1294.4831              1308.5609              1331.8277
 Red. masses --      1.2658                 1.3389                 2.1439
 Frc consts  --      1.2497                 1.3508                 2.2406
 IR Inten    --      2.7659                 6.8899                15.9927

                     46                     47                     48
                      A                      A                      A
 Frequencies --   1363.3777              1372.0287              1375.5582
 Red. masses --      1.4034                 1.4587                 1.5505
 Frc consts  --      1.5370                 1.6178                 1.7285
 IR Inten    --     28.4456                12.7284                 6.7851

                     49                     50                     51
                      A                      A                      A
 Frequencies --   1406.1384              1434.5090              1437.8044
 Red. masses --      1.3257                 1.2973                 1.5046
 Frc consts  --      1.5443                 1.5729                 1.8327
 IR Inten    --     24.5577                 3.1218                 5.7587

                     52                     53                     54
                      A                      A                      A
 Frequencies --   1438.7229              1450.4775              1490.9631
 Red. masses --      1.6459                 1.5022                 1.1755
 Frc consts  --      2.0072                 1.8621                 1.5396
 IR Inten    --      5.0278                28.6171                 3.0616

                     55                     56                     57
                      A                      A                      A
 Frequencies --   1494.8219              1505.7454              1510.2033
 Red. masses --      2.9658                 1.1240                 1.1646
 Frc consts  --      3.9046                 1.5015                 1.5649
 IR Inten    --      8.6223                 4.9473                 7.9046

                     58                     59                     60
                      A                      A                      A
 Frequencies --   1517.6022              1525.8330              1526.9834
 Red. masses --      1.7926                 1.1530                 1.1323
 Frc consts  --      2.4324                 1.5816                 1.5556
 IR Inten    --     17.4995                 0.3980                20.8243

                     61                     62                     63
                      A                      A                      A
 Frequencies --   1527.6009              1535.4279              1541.0054
 Red. masses --      1.1635                 1.0831                 1.2382
 Frc consts  --      1.5997                 1.5045                 1.7325
 IR Inten    --      2.8762                 4.4099                 5.2671

                     64                     65                     66
                      A                      A                      A
 Frequencies --   1608.1476              1830.0058              2974.8055
 Red. masses --      6.1987                 9.1957                 1.0859
 Frc consts  --      9.4449                18.1443                 5.6621
 IR Inten    --     33.4395               182.8246                67.1654

                     67                     68                     69
                      A                      A                      A
 Frequencies --   3044.3486              3045.3918              3046.6731
 Red. masses --      1.0666                 1.0658                 1.0634
 Frc consts  --      5.8245                 5.8238                 5.8156
 IR Inten    --     21.9963                28.7421                17.1527

                     70                     71                     72
                      A                      A                      A
 Frequencies --   3050.2609              3054.8659              3093.0703
 Red. masses --      1.0348                 1.0350                 1.0951
 Frc consts  --      5.6724                 5.6910                 6.1726
 IR Inten    --     32.5900                26.2355                 4.3481

                     73                     74                     75
                      A                      A                      A
 Frequencies --   3096.5919              3096.7277              3119.3754
 Red. masses --      1.0845                 1.0754                 1.0989
 Frc consts  --      6.1272                 6.0759                 6.3003
 IR Inten    --      7.2380                14.9243                31.8586

                     76                     77                     78
                      A                      A                      A
 Frequencies --   3119.8311              3124.1528              3127.1676
 Red. masses --      1.1017                 1.1022                 1.1035
 Frc consts  --      6.3179                 6.3385                 6.3583
 IR Inten    --     41.5748                46.3573                38.1809

                     79                     80                     81
                      A                      A                      A
 Frequencies --   3132.9283              3148.3211              3261.2388
 Red. masses --      1.1034                 1.1073                 1.0968
 Frc consts  --      6.3807                 6.4663                 6.8731
 IR Inten    --     29.8716                 7.4453                 3.1488

 - Thermochemistry -
 -------------------
 Temperature   298.150 Kelvin.  Pressure   1.00000 Atm.
 Atom     1 has atomic number  6 and mass  12.00000

 Molecular mass:   180.12626 amu.
 Principal axes and moments of inertia in atomic units:
                           1         2         3
     Eigenvalues --  2190.642212999.787684771.40776
           X            0.99339  -0.11476   0.00092
           Y            0.11475   0.99339   0.00346
           Z           -0.00131  -0.00333   0.99999
 This molecule is an asymmetric top.
 Rotational symmetry number  1.
 Warning -- assumption of classical behavior for rotation
           may cause significant error
 Rotational temperatures (Kelvin)      0.03954     0.02887     0.01815
 Rotational constants (GHZ):           0.82384     0.60162     0.37824
 Zero-point vibrational energy     660155.1 (Joules/Mol)
                                  157.78086 (Kcal/Mol)
 Warning -- explicit consideration of  19 degrees of freedom as
           vibrations may cause significant error
 Vibrational temperatures:     22.50    45.39    48.48   103.10   116.33
          (Kelvin)            156.90   167.97   254.13   282.87   310.30
                              366.34   425.92   473.56   482.19   599.40
                              662.03   707.45   734.73   847.23   942.55
                             1003.85  1046.49  1088.60  1149.13  1154.25
                             1164.47  1186.32  1290.26  1386.27  1401.43
                             1411.07  1483.79  1531.14  1548.10  1563.41
                             1571.67  1577.13  1596.76  1670.55  1702.33
                             1782.00  1796.86  1862.47  1882.73  1916.20
                             1961.60  1974.04  1979.12  2023.12  2063.94
                             2068.68  2070.00  2086.91  2145.16  2150.72
                             2166.43  2172.85  2183.49  2195.33  2196.99
                             2197.88  2209.14  2217.16  2313.77  2632.97
                             4280.08  4380.14  4381.64  4383.48  4388.65
                             4395.27  4450.24  4455.31  4455.50  4488.09
                             4488.74  4494.96  4499.30  4507.59  4529.73
                             4692.20

 Zero-point correction=                           0.251440 (Hartree/Particle)
 Thermal correction to Energy=                    0.265755
 Thermal correction to Enthalpy=                  0.266699
 Thermal correction to Gibbs Free Energy=         0.207215
 Sum of electronic and zero-point Energies=           -575.205656
 Sum of electronic and thermal Energies=              -575.191340
 Sum of electronic and thermal Enthalpies=            -575.190396
 Sum of electronic and thermal Free Energies=         -575.249880

                     E (Thermal)             CV                S
                      KCal/Mol        Cal/Mol-Kelvin    Cal/Mol-Kelvin
 Total                  166.764             50.692            125.194
 Electronic               0.000              0.000              0.000
 Translational            0.889              2.981             41.472
 Rotational               0.889              2.981             31.817
 Vibrational            164.986             44.730             51.905
 Vibration     1          0.593              1.986              7.123
 Vibration     2          0.594              1.983              5.730
 Vibration     3          0.594              1.983              5.599
 Vibration     4          0.598              1.968              4.107
 Vibration     5          0.600              1.962              3.870
 Vibration     6          0.606              1.942              3.286
 Vibration     7          0.608              1.935              3.154
 Vibration     8          0.628              1.871              2.364
 Vibration     9          0.636              1.845              2.165
 Vibration    10          0.645              1.817              1.995
 Vibration    11          0.665              1.755              1.698
 Vibration    12          0.690              1.681              1.439
 Vibration    13          0.712              1.617              1.264
 Vibration    14          0.716              1.605              1.235
 Vibration    15          0.780              1.434              0.904
 Vibration    16          0.818              1.338              0.766
 Vibration    17          0.847              1.268              0.679
 Vibration    18          0.866              1.226              0.632
 Vibration    19          0.946              1.056              0.469

 Optimization completed.
    -- Stationary point found.
 Normal termination of Gaussian 16 at Sun Dec 13 12:38:20 2020.

 ----------------------------------------------------------------------
 # B3LYP/6-311++G(d,p) empiricaldispersion=gd3bj scf=xqc pop=npa geom=c
 heck
 ----------------------------------------------------------------------

 --------------------------------------
 CID_82694668_JID_3921_Energie_neutraal
 --------------------------------------
 Structure from the checkpoint file:  "JID_3921.chk"
 Charge =  0 Multiplicity = 1

 SCF Done:  E(RB3LYP) =  -575.617333965     A.U. after   15 cycles
 Normal termination of Gaussian 16 at Sun Dec 13 12:41:48 2020.

 ----------------------------------------------------------------------
 # B3LYP/6-311++G(d,p) empiricaldispersion=gd3bj scf=xqc pop=npa geom=c
 heck
 ----------------------------------------------------------------------

 ------------------------------------
 CID_82694668_JID_3921_Energie_kation
 ------------------------------------
 Structure from the checkpoint file:  "JID_3921.chk"
 Charge =  1 Multiplicity = 2

 SCF Done:  E(UB3LYP) =  -575.305616732     A.U. after   33 cycles
 SCF Done:  E(UB3LYP) =  -575.305616732     a.u. after    1 cycles
 Normal termination of Gaussian 16 at Sun Dec 13 12:52:01 2020.
 Gaussian 16:  ES64L-G16RevA.03 25-Dec-2016

 ----------------------------------------------------------------------
 # B3LYP/6-311++G(d,p) empiricaldispersion=gd3bj scf=xqc pop=npa geom=c
 heck
 ----------------------------------------------------------------------

 -----------------------------------
 CID_82694668_JID_3921_Energie_anion
 -----------------------------------
 Structure from the checkpoint file:  "JID_3921.chk"
 Charge = -1 Multiplicity = 2

                         Standard orientation:
 ---------------------------------------------------------------------
 Center     Atomic      Atomic             Coordinates (Angstroms)
 Number     Number       Type             X           Y           Z
 ---------------------------------------------------------------------
      1          6           0        0.197381    3.557506    0.501846
      2          6           0       -0.071161    2.603385   -0.675429
      3          6           0        0.400556    1.204650   -0.417734
      4          6           0        1.564091    0.559068   -0.797639
      5          6           0        1.491212   -0.735478   -0.225132
      6          7           0        0.360321   -0.883738    0.467511
      7          7           0       -0.285681    0.308284    0.355312
      8          6           0       -1.638694    0.408467    0.866203
      9          6           0       -2.698019   -0.123337   -0.120840
     10          6           0       -2.529160   -1.602655   -0.416997
     11          8           0       -3.305189   -2.448144   -0.028138
     12          6           0        2.500825   -1.842796   -0.284906
     13          6           0        3.761701   -1.539286    0.540088
     14          1           0       -0.319509    3.227881    1.409773
     15          1           0       -0.143108    4.571624    0.266451
     16          1           0        1.267826    3.595089    0.727142
     17          1           0       -1.142013    2.608646   -0.917731
     18          1           0        0.443844    2.974102   -1.567916
     19          1           0        2.361058    0.972718   -1.399991
     20          1           0       -1.672843   -0.159189    1.798935
     21          1           0       -1.846867    1.455777    1.098495
     22          1           0       -3.696080    0.026878    0.303101
     23          1           0       -2.620338    0.440359   -1.060417
     24          1           0       -1.637628   -1.873527   -1.015316
     25          1           0        2.025482   -2.758112    0.082935
     26          1           0        2.784678   -2.024332   -1.329836
     27          1           0        3.504745   -1.386951    1.593697
     28          1           0        4.479573   -2.364673    0.477074
     29          1           0        4.257825   -0.630099    0.182180
 ---------------------------------------------------------------------

 SCF Done:  E(UB3LYP) =  -575.609439922     A.U. after   32 cycles

 The electronic state is 2-A.
 Alpha  occ. eigenvalues --  -18.99921 -14.27917 -14.21892 -10.13260 -10.11591
 Alpha  occ. eigenvalues --  -10.10704 -10.09113 -10.08116 -10.07817 -10.07556
 Alpha  occ. eigenvalues --  -10.07414 -10.05919 -10.05590  -0.94250  -0.93011
 Alpha  occ. eigenvalues --   -0.75529  -0.70975  -0.68548  -0.64600  -0.64005
 Alpha  occ. eigenvalues --   -0.57123  -0.54090  -0.52929  -0.49010  -0.46010
 Alpha  occ. eigenvalues --   -0.43495  -0.39980  -0.38647  -0.36638  -0.35639
 Alpha  occ. eigenvalues --   -0.35153  -0.34166  -0.33239  -0.32012  -0.31707
 Alpha  occ. eigenvalues --   -0.30499  -0.29369  -0.28689  -0.27528  -0.27386
 Alpha  occ. eigenvalues --   -0.26574  -0.25989  -0.25181  -0.25055  -0.24233
 Alpha  occ. eigenvalues --   -0.18900  -0.14590  -0.14012  -0.13606   0.04348
 Alpha virt. eigenvalues --    0.06326   0.06720   0.07885   0.08275   0.09088
 Alpha virt. eigenvalues --    0.09224   0.10062   0.10595   0.11197   0.11380
 Alpha virt. eigenvalues --    0.11840   0.12017   0.12574   0.12713   0.13291

  Beta  occ. eigenvalues --  -18.99739 -14.27916 -14.21882 -10.13087 -10.11542
  Beta  occ. eigenvalues --  -10.10707 -10.09113 -10.08112 -10.07777 -10.07562
  Beta  occ. eigenvalues --  -10.07402 -10.05867 -10.05564  -0.94240  -0.92666
  Beta  occ. eigenvalues --   -0.75502  -0.70933  -0.68507  -0.64521  -0.63938
  Beta  occ. eigenvalues --   -0.57020  -0.54013  -0.52822  -0.48884  -0.45804
  Beta  occ. eigenvalues --   -0.43417  -0.39912  -0.38571  -0.36516  -0.35597
  Beta  occ. eigenvalues --   -0.35089  -0.34093  -0.33133  -0.31920  -0.31597
  Beta  occ. eigenvalues --   -0.30372  -0.29265  -0.28631  -0.27431  -0.27105
  Beta  occ. eigenvalues --   -0.26485  -0.25953  -0.25100  -0.24589  -0.24155
  Beta  occ. eigenvalues --   -0.18862  -0.14489  -0.13990  -0.13499
  Beta virt. eigenvalues --    0.06379   0.07363   0.08276   0.08472   0.08721
  Beta virt. eigenvalues --    0.09441   0.09657   0.10205   0.10749   0.11424
  Beta virt. eigenvalues --    0.11653   0.12258   0.12402   0.12629   0.12974

 Mulliken charges and spin densities:
               1          2
     1  C    1.784096  -2.314861
     2  C   -1.403687   1.134548
     3  C    0.711804  -0.588346
     4  C   -0.387863   0.061395
     5  C    0.923185  -0.743605
     6  N   -0.141082   0.085505
     7  N    0.285869   0.030994
     8  C    0.105465  -0.272676
     9  C    0.099271  -0.345650
    10  C   -0.022335   0.007243
    11  O   -0.304902   0.060866
    12  C   -0.468158  -0.114940
    13  C   -0.246556  -0.329101
    14  H   -0.260803   0.407701
    15  H   -0.709270   0.864982
    16  H   -0.027109   0.162542
    17  H   -0.340417   0.489347
    18  H   -0.427819   0.602306
    19  H   -0.418088   0.599347
    20  H    0.228917  -0.046799
    21  H   -0.453848   0.602461
    22  H   -0.065294   0.245020
    23  H    0.067031   0.070624
    24  H    0.128289  -0.018174
    25  H    0.152763  -0.006013
    26  H    0.068617   0.066371
    27  H    0.082044   0.065763
    28  H    0.021587   0.104734
    29  H    0.018293   0.118417
 Sum of Mulliken charges =  -1.00000   1.00000

 Dipole moment (field-independent basis, Debye):
    X=              3.4859    Y=             -4.9271    Z=             -0.0143  Tot=              6.0356
 Quadrupole moment (field-independent basis, Debye-Ang):
   XX=           -133.9830   YY=           -152.0342   ZZ=           -103.3224
   XY=             -6.0122   XZ=              3.8142   YZ=              3.7198

 Summary of Natural Population Analysis:

                                       Natural Population
                Natural  -----------------------------------------------
    Atom  No    Charge         Core      Valence    Rydberg      Total
 -----------------------------------------------------------------------
      C    1   -0.27789      0.99966     2.27316    0.00508     3.27789
      C    2   -0.21110      0.99961     2.20213    0.00936     3.21110
      C    3    0.09770      0.99952     1.88978    0.01301     2.90230
      C    4   -0.16165      0.99945     2.15350    0.00870     3.16165
      C    5    0.07281      0.99959     1.91091    0.01669     2.92719
      N    6   -0.16454      0.99970     2.65390    0.01094     3.66454
      N    7   -0.11766      0.99961     2.60486    0.01319     3.61766
      C    8   -0.07926      0.99960     2.06824    0.01143     3.07926
      C    9   -0.24388      0.99961     2.23539    0.00887     3.24388
      C   10    0.24566      0.99974     1.73484    0.01976     2.75434
      O   11   -0.26862      0.99988     3.26209    0.00665     4.26862
      C   12   -0.20220      0.99960     2.19509    0.00751     3.20220
      C   13   -0.27935      0.99966     2.27594    0.00375     3.27935
      H   14    0.09712      0.00000     0.40141    0.00148     0.40288
      H   15    0.10264      0.00000     0.39470    0.00265     0.39736
      H   16    0.09763      0.00000     0.40111    0.00125     0.40237
      H   17    0.10682      0.00000     0.39081    0.00237     0.39318
      H   18    0.10782      0.00000     0.39053    0.00165     0.39218
      H   19    0.10797      0.00000     0.39108    0.00095     0.39203
      H   20    0.10572      0.00000     0.39293    0.00134     0.39428
      H   21    0.10882      0.00000     0.38914    0.00204     0.39118
      H   22    0.10792      0.00000     0.39078    0.00130     0.39208
      H   23    0.10614      0.00000     0.39237    0.00148     0.39386
      H   24    0.04967      0.00000     0.44839    0.00194     0.45033
      H   25    0.10452      0.00000     0.39427    0.00121     0.39548
      H   26    0.09810      0.00000     0.40077    0.00113     0.40190
      H   27    0.09870      0.00000     0.40018    0.00112     0.40130
      H   28    0.09311      0.00000     0.40588    0.00100     0.40689
      H   29    0.09726      0.00000     0.40142    0.00132     0.40274
 =======================================================================
   * Total *   -0.00000     12.99523    35.84561    0.15917    49.00000

 Normal termination of Gaussian 16 at Sun Dec 13 13:01:26 2020.
