 Gaussian 16, Revision A.03,

 -----------------------------------------------------------
 # opt freq B3LYP/6-31G(d) empiricaldispersion=gd3bj scf=xqc
 -----------------------------------------------------------

 -------------------------------
 CID_66028622_JID_10929_neutraal
 -------------------------------
 Symbolic Z-matrix:
 Charge =  0 Multiplicity = 1

 SCF Done:  E(RB3LYP) =  -953.248658126     A.U. after   19 cycles
 SCF Done:  E(RB3LYP) =  -953.240580306     A.U. after   16 cycles
 SCF Done:  E(RB3LYP) =  -953.254891299     A.U. after   13 cycles
 SCF Done:  E(RB3LYP) =  -953.260467626     A.U. after   14 cycles
 SCF Done:  E(RB3LYP) =  -953.264126155     A.U. after   14 cycles
 SCF Done:  E(RB3LYP) =  -953.265248361     A.U. after   16 cycles
 SCF Done:  E(RB3LYP) =  -953.268760423     A.U. after   14 cycles
 SCF Done:  E(RB3LYP) =  -953.269760595     A.U. after   15 cycles
 SCF Done:  E(RB3LYP) =  -953.268823890     A.U. after   15 cycles
 SCF Done:  E(RB3LYP) =  -953.271040787     A.U. after   14 cycles
 SCF Done:  E(RB3LYP) =  -953.272659175     A.U. after   11 cycles
 SCF Done:  E(RB3LYP) =  -953.272662822     A.U. after   10 cycles
 SCF Done:  E(RB3LYP) =  -953.272665192     A.U. after    9 cycles
 SCF Done:  E(RB3LYP) =  -953.272666276     A.U. after    8 cycles
 SCF Done:  E(RB3LYP) =  -953.272666441     A.U. after    7 cycles
 SCF Done:  E(RB3LYP) =  -953.272666512     A.U. after    7 cycles
 Optimization completed.
    -- Stationary point found.
 Normal termination of Gaussian 16 at Sun Dec 13 13:54:10 2020.

 --------------------------------------------------------------------
 #N Geom=AllCheck Guess=TCheck SCRF=Check GenChk RB3LYP/6-31G(d) Freq
 --------------------------------------------------------------------

 Structure from the checkpoint file:  "JID_10929.chk"
 -------------------------------
 CID_66028622_JID_10929_neutraal
 -------------------------------
 Charge =  0 Multiplicity = 1

 SCF Done:  E(RB3LYP) =  -953.272666512     A.U. after    1 cycles

  Exact polarizability: 200.489   3.439 184.892 -10.477  -1.220 130.686
 Approx polarizability: 292.138   4.834 291.408 -22.741  -4.650 191.366

                      1                      2                      3
                      A                      A                      A
 Frequencies --     36.2704                46.3577                58.2100
 Red. masses --      4.9815                 5.1831                 4.6200
 Frc consts  --      0.0039                 0.0066                 0.0092
 IR Inten    --      0.0296                 0.5615                 0.1265

                      4                      5                      6
                      A                      A                      A
 Frequencies --     63.5454                72.5619                83.5903
 Red. masses --      2.8133                 3.4571                 2.4899
 Frc consts  --      0.0067                 0.0107                 0.0103
 IR Inten    --      0.0907                 0.0450                 0.2237

                      7                      8                      9
                      A                      A                      A
 Frequencies --     99.5590               117.3158               135.0483
 Red. masses --      3.4937                 3.8043                 2.9170
 Frc consts  --      0.0204                 0.0308                 0.0313
 IR Inten    --      1.9873                 2.4753                 1.7856

                     10                     11                     12
                      A                      A                      A
 Frequencies --    157.7906               164.5408               192.1276
 Red. masses --      2.7364                 3.3782                 1.3460
 Frc consts  --      0.0401                 0.0539                 0.0293
 IR Inten    --      1.4422                 1.8789                 0.8658

                     13                     14                     15
                      A                      A                      A
 Frequencies --    205.9506               210.7552               227.3005
 Red. masses --      2.6451                 2.7108                 3.1797
 Frc consts  --      0.0661                 0.0709                 0.0968
 IR Inten    --      0.8004                 1.0081                 3.0940

                     16                     17                     18
                      A                      A                      A
 Frequencies --    251.5811               263.6060               277.4716
 Red. masses --      1.6629                 2.6255                 3.9097
 Frc consts  --      0.0620                 0.1075                 0.1774
 IR Inten    --      1.8398                 1.4672                 7.1925

                     19                     20                     21
                      A                      A                      A
 Frequencies --    298.6936               304.9428               329.4062
 Red. masses --      2.9121                 2.2674                 2.2125
 Frc consts  --      0.1531                 0.1242                 0.1415
 IR Inten    --      1.9525                 3.2773                 4.8668

                     22                     23                     24
                      A                      A                      A
 Frequencies --    338.7676               387.9093               406.5540
 Red. masses --      1.2238                 4.5874                 5.4307
 Frc consts  --      0.0828                 0.4067                 0.5289
 IR Inten    --     47.1258                 2.3595                 0.5502

                     25                     26                     27
                      A                      A                      A
 Frequencies --    415.6731               424.8500               507.6951
 Red. masses --      4.4343                 3.3515                 4.1848
 Frc consts  --      0.4514                 0.3564                 0.6355
 IR Inten    --      4.6417                 5.5421                 0.1652

                     28                     29                     30
                      A                      A                      A
 Frequencies --    545.7056               588.3475               622.4046
 Red. masses --      3.2909                 3.9945                 3.4415
 Frc consts  --      0.5774                 0.8147                 0.7855
 IR Inten    --      2.2233                 4.2835                12.4266

                     31                     32                     33
                      A                      A                      A
 Frequencies --    641.5687               647.0244               670.3747
 Red. masses --      2.9460                 4.1326                 4.8264
 Frc consts  --      0.7144                 1.0193                 1.2779
 IR Inten    --      2.8722                15.1793                 1.8315

                     34                     35                     36
                      A                      A                      A
 Frequencies --    703.2775               725.0547               776.3295
 Red. masses --      5.4294                 2.7450                10.8302
 Frc consts  --      1.5822                 0.8502                 3.8457
 IR Inten    --      8.7538                 3.0539                18.1051

                     37                     38                     39
                      A                      A                      A
 Frequencies --    786.9238               803.1634               828.8957
 Red. masses --      1.5861                 1.5185                 5.1428
 Frc consts  --      0.5787                 0.5771                 2.0818
 IR Inten    --      5.0768                15.0893                16.0342

                     40                     41                     42
                      A                      A                      A
 Frequencies --    862.5901               873.7618               876.1222
 Red. masses --      3.3107                 1.5331                 2.3882
 Frc consts  --      1.4514                 0.6896                 1.0800
 IR Inten    --      1.1805                97.2090                29.3487

                     43                     44                     45
                      A                      A                      A
 Frequencies --    884.6270               906.0853               916.3907
 Red. masses --      1.9796                 2.7269                 1.4634
 Frc consts  --      0.9128                 1.3191                 0.7240
 IR Inten    --     41.6937                 3.3988                 5.1940

                     46                     47                     48
                      A                      A                      A
 Frequencies --    933.5355               965.3090               974.7403
 Red. masses --      2.1550                 2.8829                 2.5795
 Frc consts  --      1.1065                 1.5828                 1.4440
 IR Inten    --     28.9961                18.5939                16.5036

                     49                     50                     51
                      A                      A                      A
 Frequencies --    997.7392              1038.7584              1040.9215
 Red. masses --      1.6133                 2.5728                 1.6471
 Frc consts  --      0.9462                 1.6356                 1.0515
 IR Inten    --     26.0488                12.7556                10.2587

                     52                     53                     54
                      A                      A                      A
 Frequencies --   1047.7078              1061.2122              1076.8890
 Red. masses --      1.6073                 1.8648                 2.4585
 Frc consts  --      1.0395                 1.2373                 1.6798
 IR Inten    --      8.1431                 4.6035                 7.6828

                     55                     56                     57
                      A                      A                      A
 Frequencies --   1077.4167              1106.1460              1117.0691
 Red. masses --      1.6135                 3.1603                 2.1275
 Frc consts  --      1.1035                 2.2783                 1.5642
 IR Inten    --      1.7839                50.1572                 4.0075

                     58                     59                     60
                      A                      A                      A
 Frequencies --   1121.6543              1146.4037              1152.5397
 Red. masses --      2.3330                 2.1052                 2.5098
 Frc consts  --      1.7294                 1.6301                 1.9643
 IR Inten    --     15.5128                 9.8725                18.8975

                     61                     62                     63
                      A                      A                      A
 Frequencies --   1194.5876              1211.0217              1225.2790
 Red. masses --      1.4548                 1.2611                 2.8486
 Frc consts  --      1.2232                 1.0897                 2.5197
 IR Inten    --     23.6705                 2.4263                22.4278

                     64                     65                     66
                      A                      A                      A
 Frequencies --   1239.5032              1264.4863              1276.9774
 Red. masses --      1.3456                 1.2965                 3.3875
 Frc consts  --      1.2181                 1.2214                 3.2546
 IR Inten    --      6.3841                 1.9924                47.1334

                     67                     68                     69
                      A                      A                      A
 Frequencies --   1283.3298              1306.3194              1318.0278
 Red. masses --      1.2495                 1.4994                 1.3076
 Frc consts  --      1.2125                 1.5076                 1.3384
 IR Inten    --      0.9813                 8.0137                 3.1665

                     70                     71                     72
                      A                      A                      A
 Frequencies --   1325.2650              1329.0773              1337.9762
 Red. masses --      1.3937                 1.4097                 1.2854
 Frc consts  --      1.4422                 1.4671                 1.3558
 IR Inten    --      2.5791                 9.0079                 0.7160

                     73                     74                     75
                      A                      A                      A
 Frequencies --   1356.4326              1363.0262              1384.7487
 Red. masses --      1.2918                 1.5597                 1.3399
 Frc consts  --      1.4003                 1.7073                 1.5138
 IR Inten    --      2.2560                 4.8565                25.3881

                     76                     77                     78
                      A                      A                      A
 Frequencies --   1399.7187              1404.0041              1412.9287
 Red. masses --      1.4009                 1.5521                 1.5795
 Frc consts  --      1.6171                 1.8026                 1.8578
 IR Inten    --     55.9813                15.3249                59.2572

                     79                     80                     81
                      A                      A                      A
 Frequencies --   1423.8270              1438.9717              1446.1325
 Red. masses --      2.3969                 1.6877                 1.3680
 Frc consts  --      2.8629                 2.0590                 1.6856
 IR Inten    --     66.5949               112.4571                 6.2284

                     82                     83                     84
                      A                      A                      A
 Frequencies --   1453.5745              1467.3198              1489.1060
 Red. masses --      1.5300                 3.0000                 5.4046
 Frc consts  --      1.9046                 3.8056                 7.0610
 IR Inten    --     19.7885                68.0422               228.3505

                     85                     86                     87
                      A                      A                      A
 Frequencies --   1500.2258              1502.7476              1509.3808
 Red. masses --      1.4820                 1.0675                 1.0852
 Frc consts  --      1.9652                 1.4203                 1.4566
 IR Inten    --      7.8523                 8.1576                 4.4344

                     88                     89                     90
                      A                      A                      A
 Frequencies --   1512.0787              1518.2024              1524.4826
 Red. masses --      1.0954                 1.1017                 1.0717
 Frc consts  --      1.4756                 1.4962                 1.4675
 IR Inten    --      1.2255                 4.1587                 0.7519

                     91                     92                     93
                      A                      A                      A
 Frequencies --   1532.2356              1536.0377              1544.0285
 Red. masses --      1.0796                 1.0549                 1.1169
 Frc consts  --      1.4934                 1.4664                 1.5689
 IR Inten    --      8.1793                 8.9904                 7.5359

                     94                     95                     96
                      A                      A                      A
 Frequencies --   1553.2198              1561.3995              1574.6411
 Red. masses --      1.0913                 7.1078                 4.0857
 Frc consts  --      1.5512                10.2097                 5.9687
 IR Inten    --      2.1088                 3.8634                68.4778

                     97                     98                     99
                      A                      A                      A
 Frequencies --   1611.3266              1713.5782              2986.6400
 Red. masses --     10.7245                 1.0887                 1.0705
 Frc consts  --     16.4057                 1.8835                 5.6260
 IR Inten    --    547.1273                27.7597                68.7604

                    100                    101                    102
                      A                      A                      A
 Frequencies --   3037.1064              3054.5814              3055.2343
 Red. masses --      1.0819                 1.0420                 1.0856
 Frc consts  --      5.8797                 5.7282                 5.9705
 IR Inten    --     12.5777                35.5975                25.8479

                    103                    104                    105
                      A                      A                      A
 Frequencies --   3057.2870              3067.5696              3070.0419
 Red. masses --      1.0665                 1.0606                 1.0660
 Frc consts  --      5.8734                 5.8800                 5.9195
 IR Inten    --     10.6469                35.4618                48.1241

                    106                    107                    108
                      A                      A                      A
 Frequencies --   3070.8331              3074.8642              3080.0376
 Red. masses --      1.0374                 1.0639                 1.0645
 Frc consts  --      5.7639                 5.9267                 5.9501
 IR Inten    --      9.0377                37.4409                26.1579

                    109                    110                    111
                      A                      A                      A
 Frequencies --   3101.5501              3106.4373              3119.5205
 Red. masses --      1.1026                 1.0979                 1.1021
 Frc consts  --      6.2492                 6.2420                 6.3189
 IR Inten    --      5.5513                 3.1754                56.4387

                    112                    113                    114
                      A                      A                      A
 Frequencies --   3124.2666              3132.4476              3132.5560
 Red. masses --      1.1006                 1.1007                 1.1024
 Frc consts  --      6.3295                 6.3631                 6.3737
 IR Inten    --     19.5820                10.5754                29.8787

                    115                    116                    117
                      A                      A                      A
 Frequencies --   3133.0604              3149.7314              3156.7369
 Red. masses --      1.1035                 1.0956                 1.1046
 Frc consts  --      6.3822                 6.4040                 6.4856
 IR Inten    --     43.1493                14.2687                10.9286

                    118                    119                    120
                      A                      A                      A
 Frequencies --   3214.3744              3483.6703              3569.5928
 Red. masses --      1.0875                 1.0496                 1.0933
 Frc consts  --      6.6200                 7.5051                 8.2079
 IR Inten    --     12.7198                11.4014                 9.7682

 - Thermochemistry -
 -------------------
 Temperature   298.150 Kelvin.  Pressure   1.00000 Atm.
 Atom     1 has atomic number  6 and mass  12.00000

 Molecular mass:   282.16919 amu.
 Principal axes and moments of inertia in atomic units:
                           1         2         3
     Eigenvalues --  4331.243625525.296027704.05691
           X            0.99936  -0.03439  -0.00944
           Y            0.03446   0.99938   0.00773
           Z            0.00917  -0.00805   0.99993
 This molecule is an asymmetric top.
 Rotational symmetry number  1.
 Warning -- assumption of classical behavior for rotation
           may cause significant error
 Rotational temperatures (Kelvin)      0.02000     0.01568     0.01124
 Rotational constants (GHZ):           0.41668     0.32663     0.23426
 Zero-point vibrational energy     948747.1 (Joules/Mol)
                                  226.75600 (Kcal/Mol)
 Warning -- explicit consideration of  29 degrees of freedom as
           vibrations may cause significant error
 Vibrational temperatures:     52.19    66.70    83.75    91.43   104.40
          (Kelvin)            120.27   143.24   168.79   194.30   227.03
                              236.74   276.43   296.32   303.23   327.03
                              361.97   379.27   399.22   429.75   438.74
                              473.94   487.41   558.11   584.94   598.06
                              611.26   730.46   785.15   846.50   895.50
                              923.07   930.92   964.52  1011.86  1043.19
                             1116.97  1132.21  1155.57  1192.60  1241.07
                             1257.15  1260.54  1272.78  1303.65  1318.48
                             1343.15  1388.86  1402.43  1435.52  1494.54
                             1497.65  1507.42  1526.85  1549.40  1550.16
                             1591.50  1607.21  1613.81  1649.42  1658.25
                             1718.75  1742.39  1762.90  1783.37  1819.31
                             1837.29  1846.43  1879.50  1896.35  1906.76
                             1912.25  1925.05  1951.60  1961.09  1992.34
                             2013.88  2020.05  2032.89  2048.57  2070.36
                             2080.66  2091.37  2111.15  2142.49  2158.49
                             2162.12  2171.66  2175.54  2184.35  2193.39
                             2204.55  2210.02  2221.51  2234.74  2246.51
                             2265.56  2318.34  2465.46  4297.11  4369.72
                             4394.86  4395.80  4398.75  4413.55  4417.11
                             4418.24  4424.04  4431.49  4462.44  4469.47
                             4488.29  4495.12  4506.89  4507.05  4507.78
                             4531.76  4541.84  4624.77  5012.22  5135.85

 Zero-point correction=                           0.361359 (Hartree/Particle)
 Thermal correction to Energy=                    0.381565
 Thermal correction to Enthalpy=                  0.382509
 Thermal correction to Gibbs Free Energy=         0.312379
 Sum of electronic and zero-point Energies=           -952.911308
 Sum of electronic and thermal Energies=              -952.891102
 Sum of electronic and thermal Enthalpies=            -952.890158
 Sum of electronic and thermal Free Energies=         -952.960287

                     E (Thermal)             CV                S
                      KCal/Mol        Cal/Mol-Kelvin    Cal/Mol-Kelvin
 Total                  239.436             75.673            147.600
 Electronic               0.000              0.000              0.000
 Translational            0.889              2.981             42.810
 Rotational               0.889              2.981             33.577
 Vibrational            237.658             69.712             71.213
 Vibration     1          0.594              1.982              5.453
 Vibration     2          0.595              1.979              4.967
 Vibration     3          0.596              1.974              4.517
 Vibration     4          0.597              1.972              4.344
 Vibration     5          0.599              1.967              4.083
 Vibration     6          0.600              1.960              3.805
 Vibration     7          0.604              1.949              3.463
 Vibration     8          0.608              1.935              3.144
 Vibration     9          0.613              1.918              2.873
 Vibration    10          0.621              1.894              2.576
 Vibration    11          0.623              1.886              2.497
 Vibration    12          0.634              1.851              2.207
 Vibration    13          0.640              1.831              2.079
 Vibration    14          0.643              1.824              2.037
 Vibration    15          0.651              1.799              1.900
 Vibration    16          0.664              1.760              1.719
 Vibration    17          0.670              1.740              1.638
 Vibration    18          0.678              1.715              1.549
 Vibration    19          0.692              1.676              1.424
 Vibration    20          0.696              1.664              1.390
 Vibration    21          0.712              1.617              1.263
 Vibration    22          0.719              1.598              1.218
 Vibration    23          0.756              1.496              1.008
 Vibration    24          0.771              1.456              0.939
 Vibration    25          0.779              1.436              0.907
 Vibration    26          0.787              1.416              0.876
 Vibration    27          0.863              1.233              0.639
 Vibration    28          0.901              1.149              0.553
 Vibration    29          0.946              1.057              0.470

                           ! Non-Optimized Parameters !
 Normal termination of Gaussian 16 at Sun Dec 13 14:19:12 2020.

 ----------------------------------------------------------------------
 # B3LYP/6-311++G(d,p) empiricaldispersion=gd3bj scf=xqc pop=npa geom=c
 heck
 ----------------------------------------------------------------------

 ---------------------------------------
 CID_66028622_JID_10929_Energie_neutraal
 ---------------------------------------
 Structure from the checkpoint file:  "JID_10929.chk"
 Charge =  0 Multiplicity = 1

 SCF Done:  E(RB3LYP) =  -953.543348712     A.U. after   16 cycles
 Normal termination of Gaussian 16 at Sun Dec 13 14:31:11 2020.

 ----------------------------------------------------------------------
 # B3LYP/6-311++G(d,p) empiricaldispersion=gd3bj scf=xqc pop=npa geom=c
 heck
 ----------------------------------------------------------------------

 -------------------------------------
 CID_66028622_JID_10929_Energie_kation
 -------------------------------------
 Structure from the checkpoint file:  "JID_10929.chk"
 Charge =  1 Multiplicity = 2

 SCF Done:  E(UB3LYP) =  -953.233412662     A.U. after   26 cycles
 Normal termination of Gaussian 16 at Sun Dec 13 14:58:26 2020.
 Gaussian 16:  ES64L-G16RevA.03 25-Dec-2016

 ----------------------------------------------------------------------
 # B3LYP/6-311++G(d,p) empiricaldispersion=gd3bj scf=xqc pop=npa geom=c
 heck
 ----------------------------------------------------------------------

 ------------------------------------
 CID_66028622_JID_10929_Energie_anion
 ------------------------------------
 Structure from the checkpoint file:  "JID_10929.chk"
 Charge = -1 Multiplicity = 2

                         Standard orientation:
 ---------------------------------------------------------------------
 Center     Atomic      Atomic             Coordinates (Angstroms)
 Number     Number       Type             X           Y           Z
 ---------------------------------------------------------------------
      1          6           0        0.511662    3.235395    1.426035
      2          6           0        0.185757    3.650633   -0.008916
      3          6           0        0.262458    2.499880   -1.014127
      4          7           0       -0.664820    1.422238   -0.683256
      5          6           0       -0.418703    0.093153   -0.717727
      6          6           0       -1.650538   -0.514485   -0.381506
      7          6           0       -2.566748    0.561429   -0.162075
      8          7           0       -1.962775    1.720430   -0.355109
      9          6           0       -4.006951    0.516002    0.227987
     10          7           0       -1.974213   -1.886111   -0.331329
     11          8           0       -1.071808   -2.726825   -0.509216
     12          8           0       -3.149356   -2.197638   -0.111507
     13          8           0        0.779425   -0.295896   -1.137223
     14          6           0        1.589955   -1.380458   -0.553313
     15          6           0        2.854763   -1.381275   -1.405151
     16          6           0        3.698216   -0.197327   -0.866841
     17          6           0        3.158859    0.083523    0.564526
     18          6           0        2.119447   -1.022134    0.843008
     19          6           0        1.096784   -0.702139    1.930064
     20          7           0        0.354896   -1.905822    2.303338
     21          1           0       -0.204156    2.490517    1.787714
     22          1           0        0.465372    4.097757    2.099092
     23          1           0        1.516814    2.804639    1.502623
     24          1           0       -0.817840    4.084504   -0.051102
     25          1           0        0.885782    4.423309   -0.350815
     26          1           0        0.029137    2.858331   -2.023482
     27          1           0        1.257797    2.052248   -1.038052
     28          1           0       -4.602003   -0.007333   -0.526034
     29          1           0       -4.145372   -0.028257    1.167087
     30          1           0       -4.373975    1.539207    0.340000
     31          1           0        1.006635   -2.294624   -0.599142
     32          1           0        3.370033   -2.334318   -1.242393
     33          1           0        2.624184   -1.307402   -2.471115
     34          1           0        3.576521    0.682104   -1.506686
     35          1           0        4.764849   -0.439793   -0.862034
     36          1           0        2.678537    1.067176    0.609933
     37          1           0        3.949006    0.083350    1.321236
     38          1           0        2.646047   -1.928126    1.174293
     39          1           0        1.641863   -0.351789    2.816137
     40          1           0        0.468304    0.144860    1.607039
     41          1           0       -0.363889   -1.681430    2.987612
     42          1           0       -0.121100   -2.300397    1.494369
 ---------------------------------------------------------------------

 SCF Done:  E(UB3LYP) =  -953.566211276     A.U. after   28 cycles

 The electronic state is 2-A.
 Alpha  occ. eigenvalues --  -19.03592 -18.92676 -18.92455 -14.29602 -14.25385
 Alpha  occ. eigenvalues --  -14.19586 -14.17177 -10.13065 -10.11365 -10.10780
 Alpha  occ. eigenvalues --  -10.08433 -10.07846 -10.07751 -10.07478 -10.07227
 Alpha  occ. eigenvalues --  -10.07186 -10.06987 -10.06916 -10.05871 -10.04020
 Alpha  occ. eigenvalues --   -1.00678  -0.96407  -0.90908  -0.83202  -0.77194
 Alpha  occ. eigenvalues --   -0.74300  -0.73562  -0.68141  -0.66141  -0.63352
 Alpha  occ. eigenvalues --   -0.61792  -0.61142  -0.58160  -0.54174  -0.53438
 Alpha  occ. eigenvalues --   -0.49448  -0.49096  -0.47793  -0.43722  -0.41834
 Alpha  occ. eigenvalues --   -0.40779  -0.39533  -0.38861  -0.37563  -0.36591
 Alpha  occ. eigenvalues --   -0.35928  -0.34846  -0.34639  -0.34138  -0.33318
 Alpha  occ. eigenvalues --   -0.32316  -0.31324  -0.30522  -0.30124  -0.29452
 Alpha  occ. eigenvalues --   -0.28850  -0.28161  -0.27336  -0.26529  -0.26147
 Alpha  occ. eigenvalues --   -0.25778  -0.25768  -0.24985  -0.24800  -0.24231
 Alpha  occ. eigenvalues --   -0.23573  -0.22823  -0.21440  -0.20071  -0.16775
 Alpha  occ. eigenvalues --   -0.13103  -0.12410  -0.11901  -0.11234  -0.10309
 Alpha  occ. eigenvalues --   -0.08656   0.04132
 Alpha virt. eigenvalues --    0.06197   0.07027   0.07822   0.08924   0.09298
 Alpha virt. eigenvalues --    0.09478   0.09936   0.10707   0.10873   0.12026
 Alpha virt. eigenvalues --    0.12109   0.12559   0.12950   0.13442   0.14306

  Beta  occ. eigenvalues --  -19.03534 -18.92210 -18.91811 -14.28627 -14.25347
  Beta  occ. eigenvalues --  -14.19643 -14.17173 -10.12775 -10.11347 -10.10783
  Beta  occ. eigenvalues --  -10.08430 -10.07844 -10.07744 -10.07476 -10.07227
  Beta  occ. eigenvalues --  -10.07185 -10.06914 -10.06881 -10.05986 -10.04025
  Beta  occ. eigenvalues --   -0.99270  -0.96206  -0.90841  -0.82127  -0.77183
  Beta  occ. eigenvalues --   -0.74262  -0.73516  -0.68061  -0.65843  -0.63337
  Beta  occ. eigenvalues --   -0.61686  -0.61088  -0.57852  -0.54083  -0.52999
  Beta  occ. eigenvalues --   -0.49380  -0.48895  -0.47778  -0.43405  -0.41646
  Beta  occ. eigenvalues --   -0.40676  -0.39343  -0.38773  -0.37469  -0.36475
  Beta  occ. eigenvalues --   -0.35701  -0.34752  -0.34131  -0.33314  -0.32436
  Beta  occ. eigenvalues --   -0.31463  -0.31192  -0.29735  -0.29511  -0.28721
  Beta  occ. eigenvalues --   -0.28535  -0.28066  -0.27205  -0.26408  -0.26087
  Beta  occ. eigenvalues --   -0.25737  -0.25630  -0.24953  -0.24753  -0.24156
  Beta  occ. eigenvalues --   -0.23566  -0.22806  -0.21383  -0.19932  -0.16770
  Beta  occ. eigenvalues --   -0.12884  -0.11568  -0.10766  -0.09631  -0.08659
  Beta  occ. eigenvalues --   -0.08111
  Beta virt. eigenvalues --    0.06129   0.06999   0.07735   0.08816   0.09249
  Beta virt. eigenvalues --    0.09371   0.09842   0.10650   0.10793   0.11921
  Beta virt. eigenvalues --    0.12007   0.12456   0.12828   0.13001   0.13488

 Mulliken charges and spin densities:
               1          2
     1  C   -0.411724  -0.029437
     2  C   -0.324200  -0.097807
     3  C    0.029672   0.000671
     4  N    0.387545   0.010381
     5  C   -0.478068   0.195726
     6  C   -0.201016  -0.081050
     7  C    0.517267   0.084126
     8  N   -0.257443  -0.035900
     9  C   -0.572367  -0.009212
    10  N   -0.468456   0.293316
    11  O   -0.172726   0.188442
    12  O   -0.188449   0.253785
    13  O   -0.105998   0.005846
    14  C    0.259509   0.042425
    15  C   -0.685420  -0.018491
    16  C   -0.326935  -0.034989
    17  C   -0.301774  -0.006488
    18  C   -0.016591   0.006615
    19  C   -0.564971  -0.039800
    20  N   -0.348471  -0.003107
    21  H    0.178807   0.010952
    22  H    0.115516   0.023513
    23  H    0.124542  -0.005321
    24  H    0.182534  -0.015572
    25  H   -0.007086   0.133858
    26  H    0.105145   0.072266
    27  H    0.209169  -0.070777
    28  H    0.176358   0.005498
    29  H    0.171839   0.005396
    30  H    0.112136  -0.000305
    31  H    0.332601   0.005444
    32  H    0.134257  -0.000228
    33  H    0.172135   0.004856
    34  H    0.115586   0.022638
    35  H    0.110813   0.019609
    36  H    0.054065   0.008186
    37  H    0.149558   0.010242
    38  H    0.198615   0.003902
    39  H    0.157849  -0.000407
    40  H    0.001727   0.001274
    41  H    0.222434   0.005421
    42  H    0.212018   0.034502
 Sum of Mulliken charges =  -1.00000   1.00000

 Dipole moment (field-independent basis, Debye):
    X=              7.9270    Y=              6.9588    Z=              0.9524  Tot=             10.5911
 Quadrupole moment (field-independent basis, Debye-Ang):
   XX=           -157.2401   YY=           -167.6205   ZZ=           -133.3283
   XY=            -14.7296   XZ=             -5.1014   YZ=              1.4132

 Summary of Natural Population Analysis:

                                       Natural Population
                Natural  -----------------------------------------------
    Atom  No    Charge         Core      Valence    Rydberg      Total
 -----------------------------------------------------------------------
      C    1   -0.28879      0.99967     2.28394    0.00519     3.28879
      C    2   -0.19753      0.99964     2.18944    0.00845     3.19753
      C    3   -0.08223      0.99962     2.07057    0.01205     3.08223
      N    4   -0.12893      0.99962     2.61689    0.01243     3.62893
      C    5    0.31063      0.99938     1.67237    0.01762     2.68937
      C    6   -0.05705      0.99935     2.04196    0.01574     3.05705
      C    7    0.11110      0.99959     1.87613    0.01317     2.88890
      N    8   -0.19631      0.99969     2.68477    0.01186     3.69631
      C    9   -0.29719      0.99963     2.29282    0.00474     3.29719
      N   10    0.34552      0.99967     2.13074    0.02407     3.15448
      O   11   -0.24121      0.99990     3.23249    0.00882     4.24121
      O   12   -0.18125      0.99990     3.17400    0.00735     4.18125
      O   13   -0.28920      0.99984     3.27839    0.01097     4.28920
      C   14    0.06475      0.99947     1.92245    0.01333     2.93525
      C   15   -0.19637      0.99962     2.18983    0.00693     3.19637
      C   16   -0.19405      0.99965     2.18676    0.00763     3.19405
      C   17   -0.19230      0.99963     2.18444    0.00823     3.19230
      C   18   -0.12441      0.99956     2.11571    0.00913     3.12441
      C   19   -0.08779      0.99960     2.07796    0.01023     3.08779
      N   20   -0.43227      0.99976     2.92307    0.00943     3.93227
      H   21    0.10662      0.00000     0.39225    0.00112     0.39338
      H   22    0.09470      0.00000     0.40443    0.00087     0.40530
      H   23    0.09260      0.00000     0.40599    0.00141     0.40740
      H   24    0.10634      0.00000     0.39242    0.00125     0.39366
      H   25    0.09163      0.00000     0.40704    0.00133     0.40837
      H   26    0.09463      0.00000     0.40424    0.00113     0.40537
      H   27    0.10311      0.00000     0.39533    0.00156     0.39689
      H   28    0.11178      0.00000     0.38710    0.00112     0.38822
      H   29    0.10923      0.00000     0.38966    0.00111     0.39077
      H   30    0.09489      0.00000     0.40394    0.00117     0.40511
      H   31    0.12421      0.00000     0.37471    0.00107     0.37579
      H   32    0.09734      0.00000     0.40175    0.00091     0.40266
      H   33    0.10595      0.00000     0.39272    0.00134     0.39405
      H   34    0.09683      0.00000     0.40189    0.00128     0.40317
      H   35    0.09338      0.00000     0.40539    0.00123     0.40662
      H   36    0.09634      0.00000     0.40166    0.00201     0.40366
      H   37    0.09540      0.00000     0.40337    0.00122     0.40460
      H   38    0.10302      0.00000     0.39557    0.00141     0.39698
      H   39    0.08274      0.00000     0.41599    0.00127     0.41726
      H   40    0.08822      0.00000     0.41067    0.00112     0.41178
      H   41    0.17205      0.00000     0.32648    0.00147     0.32795
      H   42    0.19389      0.00000     0.30396    0.00216     0.30611
 =======================================================================
   * Total *    0.00000     19.99278    55.76127    0.24595    76.00000

 Normal termination of Gaussian 16 at Sun Dec 13 15:27:39 2020.
