 Gaussian 16, Revision A.03,

 -----------------------------------------------------------
 # opt freq B3LYP/6-31G(d) empiricaldispersion=gd3bj scf=xqc
 -----------------------------------------------------------

 ------------------------------
 CID_91115484_JID_1790_neutraal
 ------------------------------
 Symbolic Z-matrix:
 Charge =  0 Multiplicity = 1

 SCF Done:  E(RB3LYP) =  -465.730274045     A.U. after   12 cycles
 SCF Done:  E(RB3LYP) =  -465.734904786     A.U. after   11 cycles
 SCF Done:  E(RB3LYP) =  -465.735429511     A.U. after   10 cycles
 SCF Done:  E(RB3LYP) =  -465.735733631     A.U. after   10 cycles
 SCF Done:  E(RB3LYP) =  -465.735842727     A.U. after    9 cycles
 SCF Done:  E(RB3LYP) =  -465.735940228     A.U. after    9 cycles
 SCF Done:  E(RB3LYP) =  -465.736064405     A.U. after    9 cycles
 SCF Done:  E(RB3LYP) =  -465.736130924     A.U. after   10 cycles
 SCF Done:  E(RB3LYP) =  -465.736162009     A.U. after    8 cycles
 SCF Done:  E(RB3LYP) =  -465.736267252     A.U. after   10 cycles
 SCF Done:  E(RB3LYP) =  -465.737116936     A.U. after    6 cycles
 SCF Done:  E(RB3LYP) =  -465.737117169     A.U. after    6 cycles
 SCF Done:  E(RB3LYP) =  -465.737117346     A.U. after    6 cycles
 SCF Done:  E(RB3LYP) =  -465.737117532     A.U. after    7 cycles
 SCF Done:  E(RB3LYP) =  -465.737117544     A.U. after    6 cycles
 SCF Done:  E(RB3LYP) =  -465.737117559     A.U. after    6 cycles
 Optimization completed.
    -- Stationary point found.

 1\1\GINC-NODE116\FOpt\RB3LYP\6-31G(d)\C9H22N2\VSC10255\08-Dec-2020\0\\
 # opt freq B3LYP/6-31G(d) empiricaldispersion=gd3bj scf=xqc\\CID_91115
 484_JID_1790_neutraal\\0,1\C,0.7387841239,-0.0171709185,0.4938291022\C
 ,-0.6698924451,0.1534656452,1.0674699497\C,3.3810465866,3.4666121667,1
 .446491133\N,2.2000186207,4.0728628766,2.0445859524\C,1.0461804435,4.0
 140311724,1.1651573863\C,1.9203359129,3.663334289,3.4123242492\C,1.430
 9236858,2.23160196,3.6775039708\C,1.0118184814,2.0090192555,5.15729193
 68\C,1.3703225263,0.5295657935,5.4527153334\C,1.9851058621,0.017983401

 Normal termination of Gaussian 16 at Tue Dec  8 22:01:24 2020.

 --------------------------------------------------------------------
 #N Geom=AllCheck Guess=TCheck SCRF=Check GenChk RB3LYP/6-31G(d) Freq
 --------------------------------------------------------------------

 Structure from the checkpoint file:  "JID_1790.chk"
 ------------------------------
 CID_91115484_JID_1790_neutraal
 ------------------------------
 Charge =  0 Multiplicity = 1

 SCF Done:  E(RB3LYP) =  -465.737117559     A.U. after    1 cycles

  Exact polarizability: 118.561  -2.569 108.966   0.513   0.085 102.307
 Approx polarizability: 148.011  -1.617 146.590   0.373   2.711 146.344

                      1                      2                      3
                      A                      A                      A
 Frequencies --     21.2706                33.1603                45.1426
 Red. masses --      2.5339                 2.0561                 1.9094
 Frc consts  --      0.0007                 0.0013                 0.0023
 IR Inten    --      0.0846                 0.1738                 0.1052

                      4                      5                      6
                      A                      A                      A
 Frequencies --     55.4409                58.3187                86.6754
 Red. masses --      3.0225                 2.9971                 3.2306
 Frc consts  --      0.0055                 0.0060                 0.0143
 IR Inten    --      0.4700                 0.2061                 0.2447

                      7                      8                      9
                      A                      A                      A
 Frequencies --    104.8068               122.2740               128.3568
 Red. masses --      2.1452                 1.4268                 1.8330
 Frc consts  --      0.0139                 0.0126                 0.0178
 IR Inten    --      0.6305                 0.0990                 0.0793

                     10                     11                     12
                      A                      A                      A
 Frequencies --    164.4429               217.8134               251.1761
 Red. masses --      2.9251                 2.1913                 1.1950
 Frc consts  --      0.0466                 0.0613                 0.0444
 IR Inten    --      3.1254                 3.1854                 0.3932

                     13                     14                     15
                      A                      A                      A
 Frequencies --    264.9948               275.5978               334.0016
 Red. masses --      1.0923                 2.2944                 1.0170
 Frc consts  --      0.0452                 0.1027                 0.0668
 IR Inten    --      0.9871                 2.6500                 0.0269

                     16                     17                     18
                      A                      A                      A
 Frequencies --    363.6470               420.7527               464.2339
 Red. masses --      2.7933                 2.2839                 2.0350
 Frc consts  --      0.2176                 0.2382                 0.2584
 IR Inten    --      4.8513                 4.7350                 0.8300

                     19                     20                     21
                      A                      A                      A
 Frequencies --    490.4378               633.5936               655.2132
 Red. masses --      2.2139                 2.1458                 2.9735
 Frc consts  --      0.3137                 0.5075                 0.7521
 IR Inten    --      9.2156                 2.0799                 7.8027

                     22                     23                     24
                      A                      A                      A
 Frequencies --    810.5086               831.5795               835.0912
 Red. masses --      1.3312                 3.0673                 1.0573
 Frc consts  --      0.5153                 1.2497                 0.4344
 IR Inten    --      2.7248                34.4848                 4.8352

                     25                     26                     27
                      A                      A                      A
 Frequencies --    845.1018               848.1737               867.2337
 Red. masses --      1.3459                 2.1910                 1.5680
 Frc consts  --      0.5663                 0.9287                 0.6948
 IR Inten    --      3.9917                19.4161                31.4978

                     28                     29                     30
                      A                      A                      A
 Frequencies --    906.7978               919.4653               981.2118
 Red. masses --      2.1214                 1.9329                 1.8318
 Frc consts  --      1.0278                 0.9628                 1.0391
 IR Inten    --      2.9080                13.0791                40.6097

                     31                     32                     33
                      A                      A                      A
 Frequencies --   1004.1620              1010.3483              1035.4926
 Red. masses --      2.6848                 3.3039                 1.9301
 Frc consts  --      1.5951                 1.9871                 1.2193
 IR Inten    --      0.7194                 0.4068                 3.3081

                     34                     35                     36
                      A                      A                      A
 Frequencies --   1073.0477              1085.8101              1087.4243
 Red. masses --      2.3134                 1.6133                 2.0784
 Frc consts  --      1.5694                 1.1206                 1.4480
 IR Inten    --     16.7759                15.3112                42.9735

                     37                     38                     39
                      A                      A                      A
 Frequencies --   1110.9072              1132.1568              1134.7107
 Red. masses --      2.0493                 3.7902                 1.2774
 Frc consts  --      1.4901                 2.8624                 0.9690
 IR Inten    --      4.0328                 7.4744                10.4465

                     40                     41                     42
                      A                      A                      A
 Frequencies --   1172.0324              1200.1832              1231.9452
 Red. masses --      1.4021                 1.4528                 1.3176
 Frc consts  --      1.1348                 1.2330                 1.1782
 IR Inten    --      6.6317                 5.9311                 4.4193

                     43                     44                     45
                      A                      A                      A
 Frequencies --   1238.5097              1240.5478              1264.6439
 Red. masses --      1.4578                 1.4553                 1.2233
 Frc consts  --      1.3175                 1.3195                 1.1527
 IR Inten    --      0.0770                 0.0309                 3.4068

                     46                     47                     48
                      A                      A                      A
 Frequencies --   1283.3095              1307.0187              1334.3419
 Red. masses --      1.5822                 1.4253                 1.7542
 Frc consts  --      1.5353                 1.4345                 1.8402
 IR Inten    --      4.7055                 1.8985                10.5383

                     49                     50                     51
                      A                      A                      A
 Frequencies --   1337.3797              1354.4469              1366.1121
 Red. masses --      1.8216                 1.3893                 1.2298
 Frc consts  --      1.9196                 1.5017                 1.3522
 IR Inten    --     10.3364                 3.8394                 1.8601

                     52                     53                     54
                      A                      A                      A
 Frequencies --   1380.8868              1411.1765              1419.2494
 Red. masses --      1.3729                 1.2987                 1.3756
 Frc consts  --      1.5425                 1.5238                 1.6326
 IR Inten    --      2.2189                 4.1075                17.8479

                     55                     56                     57
                      A                      A                      A
 Frequencies --   1434.4864              1459.4692              1466.9036
 Red. masses --      1.2026                 1.2377                 1.1543
 Frc consts  --      1.4580                 1.5533                 1.4634
 IR Inten    --      1.8634                 3.6192                 1.8489

                     58                     59                     60
                      A                      A                      A
 Frequencies --   1476.3820              1491.9664              1505.8028
 Red. masses --      1.1309                 1.1444                 1.0903
 Frc consts  --      1.4523                 1.5009                 1.4565
 IR Inten    --      7.3610                 8.3044                 3.5065

                     61                     62                     63
                      A                      A                      A
 Frequencies --   1507.7853              1517.7503              1523.2956
 Red. masses --      1.0775                 1.0863                 1.0767
 Frc consts  --      1.4433                 1.4743                 1.4720
 IR Inten    --     11.6402                 0.6635                 3.5254

                     64                     65                     66
                      A                      A                      A
 Frequencies --   1525.3754              1532.3013              1533.2521
 Red. masses --      1.0730                 1.0422                 1.0409
 Frc consts  --      1.4709                 1.4417                 1.4417
 IR Inten    --      0.5671                 4.8875                 2.6871

                     67                     68                     69
                      A                      A                      A
 Frequencies --   1537.5842              1540.4268              1543.4853
 Red. masses --      1.0509                 1.0517                 1.0941
 Frc consts  --      1.4639                 1.4704                 1.5357
 IR Inten    --      3.2021                 1.9945                 1.4602

                     70                     71                     72
                      A                      A                      A
 Frequencies --   1550.8578              1554.8985              2970.0475
 Red. masses --      1.0474                 1.0550                 1.0558
 Frc consts  --      1.4842                 1.5029                 5.4874
 IR Inten    --      3.2905                14.6237                75.2643

                     73                     74                     75
                      A                      A                      A
 Frequencies --   3003.0369              3012.6026              3041.3353
 Red. masses --      1.0467                 1.0579                 1.0511
 Frc consts  --      5.5613                 5.6571                 5.7285
 IR Inten    --     64.2245                14.5769                 6.8863

                     76                     77                     78
                      A                      A                      A
 Frequencies --   3042.5213              3043.7656              3049.5226
 Red. masses --      1.0596                 1.0354                 1.0781
 Frc consts  --      5.7790                 5.6516                 5.9071
 IR Inten    --      8.3437                57.0096                27.3523

                     79                     80                     81
                      A                      A                      A
 Frequencies --   3057.1131              3062.3248              3064.9216
 Red. masses --      1.0695                 1.0916                 1.0757
 Frc consts  --      5.8893                 6.0313                 5.9538
 IR Inten    --     38.4100                50.8358                59.5775

                     82                     83                     84
                      A                      A                      A
 Frequencies --   3067.5367              3069.5244              3090.9429
 Red. masses --      1.0645                 1.0914                 1.1011
 Frc consts  --      5.9017                 6.0585                 6.1981
 IR Inten    --     46.8216                46.1591                 0.4185

                     85                     86                     87
                      A                      A                      A
 Frequencies --   3092.8902              3099.1476              3101.1707
 Red. masses --      1.0998                 1.1021                 1.1030
 Frc consts  --      6.1989                 6.2369                 6.2499
 IR Inten    --     15.1870                29.0780                38.7884

                     88                     89                     90
                      A                      A                      A
 Frequencies --   3107.9613              3109.0574              3114.9915
 Red. masses --      1.1032                 1.0998                 1.1025
 Frc consts  --      6.2786                 6.2636                 6.3027
 IR Inten    --     38.9570                28.4781                79.2777

                     91                     92                     93
                      A                      A                      A
 Frequencies --   3120.4605              3126.1700              3440.7403
 Red. masses --      1.1055                 1.1034                 1.0737
 Frc consts  --      6.3421                 6.3536                 7.4893
 IR Inten    --     70.4565                23.0170                 2.9566

 - Thermochemistry -
 -------------------
 Temperature   298.150 Kelvin.  Pressure   1.00000 Atm.
 Atom     1 has atomic number  6 and mass  12.00000

 Molecular mass:   158.17830 amu.
 Principal axes and moments of inertia in atomic units:
                           1         2         3
     Eigenvalues --  1934.476732227.647543297.39679
           X            0.99900  -0.04422   0.00609
           Y            0.04418   0.99900   0.00621
           Z           -0.00635  -0.00594   0.99996
 This molecule is an asymmetric top.
 Rotational symmetry number  1.
 Warning -- assumption of classical behavior for rotation
           may cause significant error
 Rotational temperatures (Kelvin)      0.04477     0.03888     0.02627
 Rotational constants (GHZ):           0.93294     0.81016     0.54732
 Zero-point vibrational energy     812516.6 (Joules/Mol)
                                  194.19613 (Kcal/Mol)
 Warning -- explicit consideration of  19 degrees of freedom as
           vibrations may cause significant error
 Vibrational temperatures:     30.60    47.71    64.95    79.77    83.91
          (Kelvin)            124.71   150.79   175.92   184.68   236.60
                              313.38   361.39   381.27   396.52   480.55
                              523.21   605.37   667.93   705.63   911.60
                              942.71  1166.14  1196.46  1201.51  1215.91
                             1220.33  1247.76  1304.68  1322.91  1411.74
                             1444.77  1453.67  1489.84  1543.88  1562.24
                             1564.56  1598.35  1628.92  1632.60  1686.29
                             1726.80  1772.49  1781.94  1784.87  1819.54
                             1846.40  1880.51  1919.82  1924.19  1948.75
                             1965.53  1986.79  2030.37  2041.98  2063.91
                             2099.85  2110.55  2124.18  2146.61  2166.51
                             2169.37  2183.70  2191.68  2194.67  2204.64
                             2206.01  2212.24  2216.33  2220.73  2231.34
                             2237.15  4273.24  4320.70  4334.46  4375.80
                             4377.51  4379.30  4387.58  4398.50  4406.00
                             4409.74  4413.50  4416.36  4447.18  4449.98
                             4458.98  4461.89  4471.66  4473.24  4481.78
                             4489.65  4497.86  4950.46

 Zero-point correction=                           0.309471 (Hartree/Particle)
 Thermal correction to Energy=                    0.324800
 Thermal correction to Enthalpy=                  0.325744
 Thermal correction to Gibbs Free Energy=         0.264435
 Sum of electronic and zero-point Energies=           -465.427646
 Sum of electronic and thermal Energies=              -465.412318
 Sum of electronic and thermal Enthalpies=            -465.411374
 Sum of electronic and thermal Free Energies=         -465.472683

                     E (Thermal)             CV                S
                      KCal/Mol        Cal/Mol-Kelvin    Cal/Mol-Kelvin
 Total                  203.815             52.721            129.036
 Electronic               0.000              0.000              0.000
 Translational            0.889              2.981             41.085
 Rotational               0.889              2.981             31.031
 Vibrational            202.037             46.759             56.921
 Vibration     1          0.593              1.985              6.512
 Vibration     2          0.594              1.983              5.631
 Vibration     3          0.595              1.979              5.020
 Vibration     4          0.596              1.975              4.613
 Vibration     5          0.596              1.974              4.513
 Vibration     6          0.601              1.958              3.734
 Vibration     7          0.605              1.945              3.363
 Vibration     8          0.610              1.931              3.064
 Vibration     9          0.611              1.925              2.971
 Vibration    10          0.623              1.886              2.498
 Vibration    11          0.646              1.814              1.977
 Vibration    12          0.663              1.761              1.722
 Vibration    13          0.671              1.737              1.629
 Vibration    14          0.677              1.718              1.561
 Vibration    15          0.716              1.608              1.241
 Vibration    16          0.737              1.547              1.106
 Vibration    17          0.783              1.425              0.889
 Vibration    18          0.822              1.329              0.754
 Vibration    19          0.846              1.271              0.682

                           ! Non-Optimized Parameters !

 1\1\GINC-NODE116\Freq\RB3LYP\6-31G(d)\C9H22N2\VSC10255\08-Dec-2020\0\\
 #N Geom=AllCheck Guess=TCheck SCRF=Check GenChk RB3LYP/6-31G(d) Freq\\
 CID_91115484_JID_1790_neutraal\\0,1\C,0.7387841239,-0.0171709185,0.493
 8291022\C,-0.6698924451,0.1534656452,1.0674699497\C,3.3810465866,3.466
 6121667,1.446491133\N,2.2000186207,4.0728628766,2.0445859524\C,1.04618
 04435,4.0140311724,1.1651573863\C,1.9203359129,3.663334289,3.412324249
 2\C,1.4309236858,2.23160196,3.6775039708\C,1.0118184814,2.0090192555,5
 .1572919368\C,1.3703225263,0.5295657935,5.4527153334\C,1.9851058621,0.

 Normal termination of Gaussian 16 at Tue Dec  8 22:09:49 2020.

 ----------------------------------------------------------------------
 # B3LYP/6-311++G(d,p) empiricaldispersion=gd3bj scf=xqc pop=npa geom=c
 heck
 ----------------------------------------------------------------------

 --------------------------------------
 CID_91115484_JID_1790_Energie_neutraal
 --------------------------------------
 Structure from the checkpoint file:  "JID_1790.chk"
 Charge =  0 Multiplicity = 1

 SCF Done:  E(RB3LYP) =  -465.872526195     A.U. after   13 cycles
 Normal termination of Gaussian 16 at Tue Dec  8 22:13:42 2020.

 ----------------------------------------------------------------------
 # B3LYP/6-311++G(d,p) empiricaldispersion=gd3bj scf=xqc pop=npa geom=c
 heck
 ----------------------------------------------------------------------

 ------------------------------------
 CID_91115484_JID_1790_Energie_kation
 ------------------------------------
 Structure from the checkpoint file:  "JID_1790.chk"
 Charge =  1 Multiplicity = 2

 SCF Done:  E(UB3LYP) =  -465.591589804     A.U. after   20 cycles
 Normal termination of Gaussian 16 at Tue Dec  8 22:21:52 2020.
 Gaussian 16:  ES64L-G16RevA.03 25-Dec-2016

 -----------------------------------
 CID_91115484_JID_1790_Energie_anion
 -----------------------------------
 Structure from the checkpoint file:  "JID_1790.chk"
 Charge = -1 Multiplicity = 2

                         Standard orientation:
 ---------------------------------------------------------------------
 Center     Atomic      Atomic             Coordinates (Angstroms)
 Number     Number       Type             X           Y           Z
 ---------------------------------------------------------------------
      1          6           0        0.122881   -3.028716    0.594538
      2          6           0       -0.379916   -3.145048   -0.846369
      3          6           0        2.323452    0.801855    1.308732
      4          7           0        2.145289    1.054935   -0.114045
      5          6           0        2.531955   -0.083553   -0.928006
      6          6           0        0.863097    1.635079   -0.482910
      7          6           0       -0.402930    0.770526   -0.385821
      8          6           0       -1.654052    1.476308   -0.978722
      9          6           0       -2.839870    0.971954   -0.116142
     10          6           0       -2.176915    0.026098    0.919804
     11          7           0       -0.756382    0.396855    0.995562
     12          1           0        1.175266   -3.327179    0.669472
     13          1           0        0.037285   -2.001578    0.965473
     14          1           0       -0.451098   -3.678823    1.265560
     15          1           0        0.201131   -2.507428   -1.523258
     16          1           0       -0.305972   -4.173338   -1.219247
     17          1           0       -1.429802   -2.839336   -0.928958
     18          1           0        3.379352    0.575037    1.500171
     19          1           0        1.709261   -0.026370    1.695535
     20          1           0        2.068559    1.706960    1.872737
     21          1           0        1.945200   -0.999212   -0.731186
     22          1           0        2.424273    0.168887   -1.989300
     23          1           0        3.586038   -0.320820   -0.741720
     24          1           0        0.712153    2.537114    0.129742
     25          1           0        0.943980    1.978296   -1.523585
     26          1           0       -0.240063   -0.167564   -0.931533
     27          1           0       -1.545305    2.564903   -0.890403
     28          1           0       -1.779144    1.252869   -2.043144
     29          1           0       -3.338339    1.807979    0.386255
     30          1           0       -3.600209    0.455099   -0.710457
     31          1           0       -2.636607    0.067857    1.911645
     32          1           0       -2.235976   -1.013092    0.574431
     33          1           0       -0.668549    1.230190    1.580522
 ---------------------------------------------------------------------

 SCF Done:  E(UB3LYP) =  -465.856701486     A.U. after   26 cycles

 The electronic state is 2-A.
 Alpha  occ. eigenvalues --  -14.19862 -14.18952 -10.08824 -10.08646 -10.08220
 Alpha  occ. eigenvalues --  -10.08210 -10.07688 -10.05870 -10.05830 -10.05740
 Alpha  occ. eigenvalues --  -10.05123  -0.82559  -0.80461  -0.65355  -0.65017
 Alpha  occ. eigenvalues --   -0.64347  -0.60136  -0.57681  -0.51334  -0.50136
 Alpha  occ. eigenvalues --   -0.47953  -0.46822  -0.38855  -0.38085  -0.36906
 Alpha  occ. eigenvalues --   -0.35382  -0.33854  -0.33573  -0.33178  -0.32183
 Alpha  occ. eigenvalues --   -0.32096  -0.28531  -0.27631  -0.26703  -0.26593
 Alpha  occ. eigenvalues --   -0.25985  -0.25536  -0.24492  -0.24263  -0.24102
 Alpha  occ. eigenvalues --   -0.23721  -0.23290  -0.21533  -0.13121  -0.10580
 Alpha  occ. eigenvalues --    0.04590
 Alpha virt. eigenvalues --    0.06714   0.07273   0.07600   0.08814   0.09239
 Alpha virt. eigenvalues --    0.09446   0.09516   0.10412   0.11162   0.11595
 Alpha virt. eigenvalues --    0.11916   0.12431   0.12786   0.13074   0.14193

  Beta  occ. eigenvalues --  -14.19862 -14.18930 -10.08805 -10.08641 -10.08200
  Beta  occ. eigenvalues --  -10.08184 -10.07667 -10.05848 -10.05806 -10.05715
  Beta  occ. eigenvalues --  -10.05107  -0.82536  -0.80433  -0.65310  -0.64985
  Beta  occ. eigenvalues --   -0.64304  -0.60095  -0.57632  -0.51263  -0.50077
  Beta  occ. eigenvalues --   -0.47892  -0.46762  -0.38811  -0.38043  -0.36879
  Beta  occ. eigenvalues --   -0.35349  -0.33821  -0.33548  -0.33152  -0.32134
  Beta  occ. eigenvalues --   -0.32062  -0.28506  -0.27602  -0.26647  -0.26561
  Beta  occ. eigenvalues --   -0.25952  -0.25498  -0.24449  -0.24238  -0.24077
  Beta  occ. eigenvalues --   -0.23688  -0.23251  -0.21493  -0.13079  -0.10567
  Beta virt. eigenvalues --    0.06681   0.07664   0.07849   0.08157   0.09346
  Beta virt. eigenvalues --    0.09743   0.09801   0.09998   0.10656   0.11565
  Beta virt. eigenvalues --    0.11945   0.12258   0.12818   0.13153   0.13359

 Mulliken charges and spin densities:
               1          2
     1  C   -0.330616  -0.139095
     2  C    0.529598  -0.917154
     3  C    0.093214  -0.498369
     4  N   -0.062891   0.240626
     5  C   -0.090180  -0.303604
     6  C    0.773811  -1.736784
     7  C   -0.992030   1.347716
     8  C   -0.325600  -0.292106
     9  C    0.831917  -1.192108
    10  C   -0.416589   0.096715
    11  N   -0.030653   0.137018
    12  H   -0.007851   0.121791
    13  H   -0.102174   0.333155
    14  H   -0.088488   0.211063
    15  H   -0.396306   0.525344
    16  H   -0.282366   0.417565
    17  H   -0.144556   0.267666
    18  H   -0.030508   0.158566
    19  H    0.131592   0.018429
    20  H   -0.249436   0.381213
    21  H    0.538651  -0.397282
    22  H   -0.241112   0.375465
    23  H   -0.184919   0.316558
    24  H   -0.028514   0.202072
    25  H   -0.084078   0.271562
    26  H    0.962589  -0.846354
    27  H   -0.295674   0.441781
    28  H   -0.116444   0.269579
    29  H   -0.170679   0.311490
    30  H   -0.327825   0.468990
    31  H   -0.635392   0.801172
    32  H    0.712101  -0.587346
    33  H    0.061409   0.194665
 Sum of Mulliken charges =  -1.00000   1.00000

 Dipole moment (field-independent basis, Debye):
    X=              1.5332    Y=             -0.7073    Z=             -0.0949  Tot=              1.6912
 Quadrupole moment (field-independent basis, Debye-Ang):
   XX=           -126.9760   YY=           -127.1020   ZZ=           -113.7259
   XY=              3.0612   XZ=              2.9793   YZ=             -4.9493

 Summary of Natural Population Analysis:

                                       Natural Population
                Natural  -----------------------------------------------
    Atom  No    Charge         Core      Valence    Rydberg      Total
 -----------------------------------------------------------------------
      C    1   -0.29385      0.99967     2.28951    0.00467     3.29385
      C    2   -0.28663      0.99968     2.28234    0.00460     3.28663
      C    3   -0.17688      0.99964     2.17003    0.00721     3.17688
      N    4   -0.27999      0.99974     2.76580    0.01445     3.77999
      C    5   -0.17720      0.99964     2.16874    0.00882     3.17720
      C    6   -0.08016      0.99958     2.06766    0.01292     3.08016
      C    7   -0.02808      0.99959     2.01561    0.01288     3.02808
      C    8   -0.19739      0.99963     2.18944    0.00833     3.19739
      C    9   -0.20130      0.99964     2.19417    0.00749     3.20130
      C   10   -0.09000      0.99964     2.07937    0.01099     3.09000
      N   11   -0.33918      0.99975     2.82630    0.01313     3.83918
      H   12    0.09233      0.00000     0.40642    0.00125     0.40767
      H   13    0.11061      0.00000     0.38715    0.00224     0.38939
      H   14    0.09158      0.00000     0.40727    0.00115     0.40842
      H   15    0.09539      0.00000     0.40317    0.00144     0.40461
      H   16    0.09286      0.00000     0.40614    0.00100     0.40714
      H   17    0.09513      0.00000     0.40359    0.00128     0.40487
      H   18    0.08888      0.00000     0.40990    0.00122     0.41112
      H   19    0.09128      0.00000     0.40666    0.00206     0.40872
      H   20    0.09328      0.00000     0.40551    0.00121     0.40672
      H   21    0.08322      0.00000     0.41530    0.00148     0.41678
      H   22    0.09415      0.00000     0.40474    0.00111     0.40585
      H   23    0.09257      0.00000     0.40642    0.00101     0.40743
      H   24    0.09425      0.00000     0.40416    0.00159     0.40575
      H   25    0.09639      0.00000     0.40219    0.00142     0.40361
      H   26    0.09123      0.00000     0.40561    0.00316     0.40877
      H   27    0.09650      0.00000     0.40181    0.00168     0.40350
      H   28    0.10006      0.00000     0.39878    0.00117     0.39994
      H   29    0.09755      0.00000     0.40051    0.00193     0.40245
      H   30    0.09802      0.00000     0.40076    0.00122     0.40198
      H   31    0.09599      0.00000     0.40271    0.00129     0.40401
      H   32    0.08858      0.00000     0.40966    0.00177     0.41142
      H   33    0.17082      0.00000     0.32577    0.00341     0.32918
 =======================================================================
   * Total *    0.00000     10.99620    33.86322    0.14058    45.00000

 Normal termination of Gaussian 16 at Tue Dec  8 22:32:33 2020.
