 Gaussian 16, Revision A.03,

 -----------------------------------------------------------
 # opt freq B3LYP/6-31G(d) empiricaldispersion=gd3bj scf=xqc
 -----------------------------------------------------------

 ------------------------------
 CID_82653566_JID_3381_neutraal
 ------------------------------
 Symbolic Z-matrix:
 Charge =  0 Multiplicity = 1

 SCF Done:  E(RB3LYP) =  -602.708011005     A.U. after   15 cycles
 SCF Done:  E(RB3LYP) =  -602.712554119     A.U. after   13 cycles
 SCF Done:  E(RB3LYP) =  -602.712888901     A.U. after   12 cycles
 SCF Done:  E(RB3LYP) =  -602.712923132     A.U. after   10 cycles
 SCF Done:  E(RB3LYP) =  -602.712926890     A.U. after    9 cycles
 Optimization completed.
    -- Stationary point found.
 Normal termination of Gaussian 16 at Wed Dec  9 23:00:02 2020.

 --------------------------------------------------------------------
 #N Geom=AllCheck Guess=TCheck SCRF=Check GenChk RB3LYP/6-31G(d) Freq
 --------------------------------------------------------------------

 Structure from the checkpoint file:  "JID_3381.chk"
 ------------------------------
 CID_82653566_JID_3381_neutraal
 ------------------------------
 Charge =  0 Multiplicity = 1

 SCF Done:  E(RB3LYP) =  -602.712926890     A.U. after    1 cycles

  Exact polarizability: 164.691  -1.250 112.092  -0.006  -0.001  45.078
 Approx polarizability: 252.860 -14.317 204.111  -0.011   0.002  68.909

                      1                      2                      3
                      A                      A                      A
 Frequencies --     64.3053               112.8304               129.2384
 Red. masses --      5.0439                 8.5735                 3.3657
 Frc consts  --      0.0123                 0.0643                 0.0331
 IR Inten    --      0.2459                 2.5109                 7.5268

                      4                      5                      6
                      A                      A                      A
 Frequencies --    156.6028               200.5247               202.4018
 Red. masses --      1.3096                 3.8237                 4.3046
 Frc consts  --      0.0189                 0.0906                 0.1039
 IR Inten    --      0.1383                 4.4284                 5.8208

                      7                      8                      9
                      A                      A                      A
 Frequencies --    240.8167               313.9447               348.4754
 Red. masses --      7.7151                 6.5152                 4.2768
 Frc consts  --      0.2636                 0.3783                 0.3060
 IR Inten    --      0.3235                 0.2822                 1.9686

                     10                     11                     12
                      A                      A                      A
 Frequencies --    413.5611               449.8633               518.6526
 Red. masses --      9.8229                 1.7474                 8.6664
 Frc consts  --      0.9898                 0.2084                 1.3735
 IR Inten    --      1.1558                70.3898                 2.8827

                     13                     14                     15
                      A                      A                      A
 Frequencies --    520.8911               549.7391               592.2853
 Red. masses --      3.3085                 7.7520                 4.2385
 Frc consts  --      0.5289                 1.3803                 0.8760
 IR Inten    --     53.6505                 2.4364                 0.5063

                     16                     17                     18
                      A                      A                      A
 Frequencies --    625.0181               666.1422               687.2606
 Red. masses --      3.1976                 6.2358                 5.3045
 Frc consts  --      0.7360                 1.6303                 1.4762
 IR Inten    --      0.0895                14.3467                 1.3887

                     19                     20                     21
                      A                      A                      A
 Frequencies --    710.7599               748.0634               802.9878
 Red. masses --      8.5027                 6.5843                 8.8172
 Frc consts  --      2.5308                 2.1709                 3.3496
 IR Inten    --      1.4712                 4.3693                14.1274

                     22                     23                     24
                      A                      A                      A
 Frequencies --    835.9704               897.1500               965.0430
 Red. masses --      1.5136                 7.9384                 6.4618
 Frc consts  --      0.6232                 3.7645                 3.5456
 IR Inten    --      8.0311                21.0168                 5.3989

                     25                     26                     27
                      A                      A                      A
 Frequencies --    965.9786              1075.7969              1126.4332
 Red. masses --      1.4316                 8.0445                 1.4612
 Frc consts  --      0.7871                 5.4854                 1.0923
 IR Inten    --      2.7525               149.8700                33.5900

                     28                     29                     30
                      A                      A                      A
 Frequencies --   1183.9540              1194.9361              1208.6513
 Red. masses --      1.2631                 2.2528                 2.1490
 Frc consts  --      1.0432                 1.8952                 1.8497
 IR Inten    --      0.7249                41.8411                10.5500

                     31                     32                     33
                      A                      A                      A
 Frequencies --   1243.7232              1295.3451              1334.4974
 Red. masses --      3.7722                 2.6959                 7.8622
 Frc consts  --      3.4379                 2.6652                 8.2495
 IR Inten    --      3.8098                 1.3755                25.3413

                     34                     35                     36
                      A                      A                      A
 Frequencies --   1372.0678              1398.8353              1426.0405
 Red. masses --      2.7129                 3.0072                 4.3624
 Frc consts  --      3.0091                 3.4669                 5.2268
 IR Inten    --     77.0943                58.8531               116.4305

                     37                     38                     39
                      A                      A                      A
 Frequencies --   1451.0455              1494.0459              1508.8190
 Red. masses --      2.4858                 1.5277                 1.0483
 Frc consts  --      3.0837                 2.0092                 1.4060
 IR Inten    --    232.2742                34.3893                 6.2385

                     40                     41                     42
                      A                      A                      A
 Frequencies --   1524.6796              1533.7085              1581.0707
 Red. masses --      1.0785                 2.4751                 5.3635
 Frc consts  --      1.4772                 3.4303                 7.8996
 IR Inten    --     17.5141                21.2116                 7.6940

                     43                     44                     45
                      A                      A                      A
 Frequencies --   1599.7296              1676.3796              2357.6264
 Red. masses --      7.7660                 8.2243                12.6588
 Frc consts  --     11.7095                13.6174                41.4564
 IR Inten    --    201.8138               237.2243                56.7775

                     46                     47                     48
                      A                      A                      A
 Frequencies --   3077.5215              3153.9636              3184.3535
 Red. masses --      1.0291                 1.1077                 1.1076
 Frc consts  --      5.7424                 6.4924                 6.6173
 IR Inten    --     41.7662                18.2911                19.6948

                     49                     50                     51
                      A                      A                      A
 Frequencies --   3203.1620              3290.5442              3666.8275
 Red. masses --      1.0911                 1.0980                 1.0808
 Frc consts  --      6.5958                 7.0046                 8.5623
 IR Inten    --     24.0769                 1.1069               111.1293

 - Thermochemistry -
 -------------------
 Temperature   298.150 Kelvin.  Pressure   1.00000 Atm.
 Atom     1 has atomic number  6 and mass  12.00000

 Molecular mass:   174.05416 amu.
 Principal axes and moments of inertia in atomic units:
                           1         2         3
     Eigenvalues --   891.363313349.732944229.70798
           X            0.99998   0.00661   0.00001
           Y           -0.00661   0.99998   0.00000
           Z           -0.00001  -0.00000   1.00000
 This molecule is an asymmetric top.
 Rotational symmetry number  1.
 Warning -- assumption of classical behavior for rotation
           may cause significant error
 Rotational temperatures (Kelvin)      0.09717     0.02586     0.02048
 Rotational constants (GHZ):           2.02470     0.53877     0.42668
 Zero-point vibrational energy     364156.8 (Joules/Mol)
                                   87.03557 (Kcal/Mol)
 Warning -- explicit consideration of  15 degrees of freedom as
           vibrations may cause significant error
 Vibrational temperatures:     92.52   162.34   185.95   225.32   288.51
          (Kelvin)            291.21   346.48   451.70   501.38   595.02
                              647.25   746.23   749.45   790.95   852.17
                              899.26   958.43   988.81  1022.62  1076.30
                             1155.32  1202.77  1290.80  1388.48  1389.83
                             1547.83  1620.69  1703.45  1719.25  1738.98
                             1789.44  1863.71  1920.04  1974.10  2012.61
                             2051.75  2087.73  2149.60  2170.85  2193.67
                             2206.66  2274.81  2301.65  2411.94  3392.10
                             4427.87  4537.85  4581.57  4608.64  4734.36
                             5275.75

 Zero-point correction=                           0.138700 (Hartree/Particle)
 Thermal correction to Energy=                    0.149149
 Thermal correction to Enthalpy=                  0.150093
 Thermal correction to Gibbs Free Energy=         0.102247
 Sum of electronic and zero-point Energies=           -602.574227
 Sum of electronic and thermal Energies=              -602.563778
 Sum of electronic and thermal Enthalpies=            -602.562834
 Sum of electronic and thermal Free Energies=         -602.610680

                     E (Thermal)             CV                S
                      KCal/Mol        Cal/Mol-Kelvin    Cal/Mol-Kelvin
 Total                   93.592             39.114            100.701
 Electronic               0.000              0.000              0.000
 Translational            0.889              2.981             41.370
 Rotational               0.889              2.981             30.913
 Vibrational             91.815             33.152             28.417
 Vibration     1          0.597              1.971              4.321
 Vibration     2          0.607              1.939              3.220
 Vibration     3          0.612              1.924              2.957
 Vibration     4          0.620              1.895              2.590
 Vibration     5          0.638              1.839              2.128
 Vibration     6          0.639              1.836              2.111
 Vibration     7          0.658              1.778              1.797
 Vibration     8          0.702              1.647              1.341
 Vibration     9          0.726              1.578              1.173
 Vibration    10          0.777              1.441              0.914
 Vibration    11          0.809              1.361              0.796
 Vibration    12          0.874              1.209              0.613
 Vibration    13          0.876              1.204              0.608
 Vibration    14          0.905              1.140              0.545
 Vibration    15          0.950              1.048              0.463

                           ! Non-Optimized Parameters !
 Normal termination of Gaussian 16 at Wed Dec  9 23:04:14 2020.

 ----------------------------------------------------------------------
 # B3LYP/6-311++G(d,p) empiricaldispersion=gd3bj scf=xqc pop=npa geom=c
 heck
 ----------------------------------------------------------------------

 --------------------------------------
 CID_82653566_JID_3381_Energie_neutraal
 --------------------------------------
 Structure from the checkpoint file:  "JID_3381.chk"
 Charge =  0 Multiplicity = 1

 SCF Done:  E(RB3LYP) =  -602.875224843     A.U. after   15 cycles
 Normal termination of Gaussian 16 at Wed Dec  9 23:05:36 2020.

 ----------------------------------------------------------------------
 # B3LYP/6-311++G(d,p) empiricaldispersion=gd3bj scf=xqc pop=npa geom=c
 heck
 ----------------------------------------------------------------------

 ------------------------------------
 CID_82653566_JID_3381_Energie_kation
 ------------------------------------
 Structure from the checkpoint file:  "JID_3381.chk"
 Charge =  1 Multiplicity = 2

 SCF Done:  E(UB3LYP) =  -602.550142592     A.U. after   26 cycles
 Normal termination of Gaussian 16 at Wed Dec  9 23:08:35 2020.
 Gaussian 16:  ES64L-G16RevA.03 25-Dec-2016

 ----------------------------------------------------------------------
 # B3LYP/6-311++G(d,p) empiricaldispersion=gd3bj scf=xqc pop=npa geom=c
 heck
 ----------------------------------------------------------------------

 -----------------------------------
 CID_82653566_JID_3381_Energie_anion
 -----------------------------------
 Structure from the checkpoint file:  "JID_3381.chk"
 Charge = -1 Multiplicity = 2

                         Standard orientation:
 ---------------------------------------------------------------------
 Center     Atomic      Atomic             Coordinates (Angstroms)
 Number     Number       Type             X           Y           Z
 ---------------------------------------------------------------------
      1          6           0        3.922656   -0.330279    0.000443
      2          8           0        2.600003   -0.892132   -0.000173
      3          6           0        1.577923   -0.020656   -0.000100
      4          7           0        1.774396    1.287048   -0.000110
      5          6           0        0.682621    2.091229   -0.000134
      6          7           0       -0.593794    1.736838   -0.000077
      7          6           0       -0.791376    0.401850   -0.000149
      8          6           0        0.270850   -0.523824   -0.000202
      9          7           0       -0.259778   -1.796614   -0.000092
     10          6           0       -1.624569   -1.708853   -0.000050
     11          6           0       -2.006863   -0.375477    0.000036
     12          6           0       -3.340399    0.104182    0.000173
     13          7           0       -4.438627    0.488532    0.000252
     14          1           0        4.595856   -1.187676    0.003273
     15          1           0        4.077550    0.287386    0.888613
     16          1           0        4.080005    0.283240   -0.890219
     17          1           0        0.893370    3.157454    0.000093
     18          1           0        0.277756   -2.650216   -0.000252
     19          1           0       -2.244997   -2.592801   -0.000039
 ---------------------------------------------------------------------

 SCF Done:  E(UB3LYP) =  -602.878142266     A.U. after   33 cycles
 SCF Done:  E(UB3LYP) =  -602.878142266     a.u. after    1 cycles

 The electronic state is 2-A.
 Alpha  occ. eigenvalues --  -19.03376 -14.22290 -14.15748 -14.15193 -14.14439
 Alpha  occ. eigenvalues --  -10.11546 -10.10702 -10.07979 -10.06668 -10.06271
 Alpha  occ. eigenvalues --  -10.05800 -10.05008 -10.03740  -0.95712  -0.85451
 Alpha  occ. eigenvalues --   -0.81650  -0.75210  -0.73260  -0.64741  -0.63801
 Alpha  occ. eigenvalues --   -0.59133  -0.51498  -0.50152  -0.48534  -0.43405
 Alpha  occ. eigenvalues --   -0.40565  -0.36533  -0.36164  -0.34466  -0.34039
 Alpha  occ. eigenvalues --   -0.31273  -0.30761  -0.29307  -0.26194  -0.25667
 Alpha  occ. eigenvalues --   -0.23816  -0.22710  -0.21786  -0.20946  -0.18088
 Alpha  occ. eigenvalues --   -0.15689  -0.15393  -0.11121  -0.10518  -0.09403
 Alpha  occ. eigenvalues --    0.05855
 Alpha virt. eigenvalues --    0.07587   0.08901   0.10441   0.11484   0.11919
 Alpha virt. eigenvalues --    0.12441   0.13219   0.13529   0.13739   0.15342
 Alpha virt. eigenvalues --    0.15884   0.16482   0.17212   0.17253   0.18046

  Beta  occ. eigenvalues --  -19.03276 -14.22124 -14.15704 -14.15136 -14.14117
  Beta  occ. eigenvalues --  -10.11551 -10.10253 -10.07943 -10.06782 -10.06235
  Beta  occ. eigenvalues --  -10.05771 -10.04361 -10.03721  -0.95428  -0.85069
  Beta  occ. eigenvalues --   -0.81267  -0.75101  -0.72823  -0.64418  -0.63414
  Beta  occ. eigenvalues --   -0.58919  -0.51210  -0.49697  -0.47990  -0.43126
  Beta  occ. eigenvalues --   -0.40382  -0.36370  -0.35742  -0.34292  -0.33747
  Beta  occ. eigenvalues --   -0.31092  -0.29910  -0.29098  -0.26014  -0.24423
  Beta  occ. eigenvalues --   -0.23709  -0.21783  -0.21674  -0.20474  -0.18005
  Beta  occ. eigenvalues --   -0.15466  -0.14466  -0.10851  -0.08873  -0.08120
  Beta virt. eigenvalues --    0.07570   0.08863   0.10428   0.11470   0.11864
  Beta virt. eigenvalues --    0.12289   0.12408   0.13541   0.13694   0.15298
  Beta virt. eigenvalues --    0.15388   0.16445   0.16603   0.17209   0.17344

 Mulliken charges and spin densities:
               1          2
     1  C   -0.298730  -0.001713
     2  O   -0.210056   0.015875
     3  C   -0.015169   0.257866
     4  N   -0.222982   0.020441
     5  C    0.020405   0.031057
     6  N   -0.159148   0.148574
     7  C    0.007489   0.020871
     8  C   -0.048914  -0.116041
     9  N   -0.170369   0.028244
    10  C   -0.365675   0.594480
    11  C    1.453733  -0.069120
    12  C   -1.701044   0.086932
    13  N   -0.320710   0.027605
    14  H    0.113893  -0.000296
    15  H    0.163806   0.003299
    16  H    0.163529   0.003346
    17  H    0.163275  -0.003779
    18  H    0.281710  -0.003759
    19  H    0.144960  -0.043884
 Sum of Mulliken charges =  -1.00000   1.00000

 Dipole moment (field-independent basis, Debye):
    X=              8.6617    Y=             -4.2646    Z=              0.0009  Tot=              9.6546
 Quadrupole moment (field-independent basis, Debye-Ang):
   XX=           -126.2083   YY=            -84.9131   ZZ=            -81.4770
   XY=              3.8231   XZ=              0.0071   YZ=              0.0007

 Summary of Natural Population Analysis:

                                       Natural Population
                Natural  -----------------------------------------------
    Atom  No    Charge         Core      Valence    Rydberg      Total
 -----------------------------------------------------------------------
      C    1   -0.10268      0.99961     2.09431    0.00876     3.10268
      O    2   -0.27233      0.99985     3.26353    0.00895     4.27233
      C    3    0.33127      0.99942     1.65441    0.01490     2.66873
      N    4   -0.29597      0.99967     2.78608    0.01023     3.79597
      C    5    0.13222      0.99969     1.84759    0.02050     2.86778
      N    6   -0.21536      0.99967     2.70505    0.01063     3.71536
      C    7    0.10317      0.99946     1.88465    0.01272     2.89683
      C    8    0.00058      0.99942     1.98997    0.01003     2.99942
      N    9   -0.24738      0.99966     2.74005    0.00767     3.74738
      C   10    0.16075      0.99958     1.82644    0.01323     2.83925
      C   11   -0.16040      0.99939     2.14758    0.01342     3.16040
      C   12    0.17191      0.99964     1.81114    0.01731     2.82809
      N   13   -0.21482      0.99979     2.70381    0.01123     3.71482
      H   14    0.08048      0.00000     0.41864    0.00088     0.41952
      H   15    0.08801      0.00000     0.41061    0.00138     0.41199
      H   16    0.08790      0.00000     0.41072    0.00138     0.41210
      H   17    0.07074      0.00000     0.42794    0.00132     0.42926
      H   18    0.19509      0.00000     0.30312    0.00179     0.30491
      H   19    0.08682      0.00000     0.41250    0.00068     0.41318
 =======================================================================
   * Total *   -0.00000     12.99486    31.83814    0.16700    45.00000

 Normal termination of Gaussian 16 at Wed Dec  9 23:12:26 2020.
