 Gaussian 16, Revision A.03,

 -----------------------------------------------------------
 # opt freq B3LYP/6-31G(d) empiricaldispersion=gd3bj scf=xqc
 -----------------------------------------------------------

 --------------------------------
 CID_116822397_JID_10886_neutraal
 --------------------------------
 Symbolic Z-matrix:
 Charge =  0 Multiplicity = 1

 SCF Done:  E(RB3LYP) =  -905.133154567     A.U. after   15 cycles
 SCF Done:  E(RB3LYP) =  -905.140638531     A.U. after   13 cycles
 SCF Done:  E(RB3LYP) =  -905.142391424     A.U. after   13 cycles
 SCF Done:  E(RB3LYP) =  -905.143328485     A.U. after   13 cycles
 SCF Done:  E(RB3LYP) =  -905.143734221     A.U. after   13 cycles
 SCF Done:  E(RB3LYP) =  -905.143994944     A.U. after   12 cycles
 SCF Done:  E(RB3LYP) =  -905.144061624     A.U. after   11 cycles
 SCF Done:  E(RB3LYP) =  -905.144080325     A.U. after   11 cycles
 SCF Done:  E(RB3LYP) =  -905.144086208     A.U. after   10 cycles
 SCF Done:  E(RB3LYP) =  -905.144087602     A.U. after    9 cycles
 SCF Done:  E(RB3LYP) =  -905.144087732     A.U. after    7 cycles
 SCF Done:  E(RB3LYP) =  -905.144087802     A.U. after    7 cycles
 Optimization completed.
    -- Stationary point found.
 Normal termination of Gaussian 16 at Sun Dec 13 20:43:32 2020.

 --------------------------------------------------------------------
 #N Geom=AllCheck Guess=TCheck SCRF=Check GenChk RB3LYP/6-31G(d) Freq
 --------------------------------------------------------------------

 Structure from the checkpoint file:  "JID_10886.chk"
 --------------------------------
 CID_116822397_JID_10886_neutraal
 --------------------------------
 Charge =  0 Multiplicity = 1

 SCF Done:  E(RB3LYP) =  -905.144087802     A.U. after    1 cycles

  Exact polarizability: 286.855  -5.149 181.826  -7.682 -13.901  79.211
 Approx polarizability: 441.052   0.552 322.605 -17.062 -36.451 132.236

                      1                      2                      3
                      A                      A                      A
 Frequencies --     32.9489                50.8272                71.3698
 Red. masses --      5.3684                 6.4199                 6.1576
 Frc consts  --      0.0034                 0.0098                 0.0185
 IR Inten    --      0.2031                 2.7723                 1.6026

                      4                      5                      6
                      A                      A                      A
 Frequencies --     89.1852               122.0830               151.7109
 Red. masses --      3.7623                 4.8662                 4.9976
 Frc consts  --      0.0176                 0.0427                 0.0678
 IR Inten    --      1.1704                 2.7753                 3.2656

                      7                      8                      9
                      A                      A                      A
 Frequencies --    184.3398               243.9378               248.8041
 Red. masses --      3.5298                 4.0706                 5.1121
 Frc consts  --      0.0707                 0.1427                 0.1865
 IR Inten    --      8.8971                 4.5143                 2.8984

                     10                     11                     12
                      A                      A                      A
 Frequencies --    253.8970               268.6266               287.6991
 Red. masses --      4.2774                 5.6295                 1.4356
 Frc consts  --      0.1625                 0.2393                 0.0700
 IR Inten    --     14.5412                 8.6516                50.2057

                     13                     14                     15
                      A                      A                      A
 Frequencies --    357.3256               369.2457               420.3489
 Red. masses --      4.8416                 5.8830                 4.7444
 Frc consts  --      0.3642                 0.4726                 0.4939
 IR Inten    --      4.6183                 1.5584                 5.6318

                     16                     17                     18
                      A                      A                      A
 Frequencies --    436.4595               467.6210               475.3951
 Red. masses --      3.7655                 4.6622                 4.9815
 Frc consts  --      0.4226                 0.6007                 0.6633
 IR Inten    --      4.2379                 1.7202                 4.7337

                     19                     20                     21
                      A                      A                      A
 Frequencies --    518.3698               560.5610               599.2601
 Red. masses --      5.4860                 7.3225                 5.8328
 Frc consts  --      0.8685                 1.3557                 1.2341
 IR Inten    --     20.5136                11.8768                 1.1315

                     22                     23                     24
                      A                      A                      A
 Frequencies --    625.7928               632.0913               651.0716
 Red. masses --      5.3750                 3.3954                 5.2814
 Frc consts  --      1.2402                 0.7993                 1.3190
 IR Inten    --      3.3090                 8.0884                 2.8757

                     25                     26                     27
                      A                      A                      A
 Frequencies --    680.8697               693.2283               723.2676
 Red. masses --      3.9487                 6.2196                 5.5177
 Frc consts  --      1.0785                 1.7610                 1.7006
 IR Inten    --      0.9962                 0.9375                 7.1808

                     28                     29                     30
                      A                      A                      A
 Frequencies --    760.2073               772.0792               779.8790
 Red. masses --      6.7837                 4.8927                 5.8226
 Frc consts  --      2.3098                 1.7184                 2.0865
 IR Inten    --      2.4495                 0.9851                13.9282

                     31                     32                     33
                      A                      A                      A
 Frequencies --    798.7231               827.4791               830.4552
 Red. masses --      7.4667                 5.1933                 1.5581
 Frc consts  --      2.8065                 2.0951                 0.6331
 IR Inten    --     13.4786                 8.0125                54.5049

                     34                     35                     36
                      A                      A                      A
 Frequencies --    849.2131               867.9549               880.7062
 Red. masses --      1.6498                 1.4619                 1.3685
 Frc consts  --      0.7010                 0.6489                 0.6254
 IR Inten    --      2.8416                12.2021               103.3268

                     37                     38                     39
                      A                      A                      A
 Frequencies --    903.3470               915.2766               939.1338
 Red. masses --      1.6133                 4.4656                11.0267
 Frc consts  --      0.7757                 2.2041                 5.7300
 IR Inten    --     11.2672                20.0099                 7.2046

                     40                     41                     42
                      A                      A                      A
 Frequencies --    960.5115               968.1459               994.3116
 Red. masses --      1.4314                 3.2933                 1.2878
 Frc consts  --      0.7781                 1.8187                 0.7502
 IR Inten    --      2.2267                 4.1926                 0.8223

                     43                     44                     45
                      A                      A                      A
 Frequencies --   1015.9674              1060.1259              1068.3125
 Red. masses --      2.5320                 2.4695                 2.2155
 Frc consts  --      1.5399                 1.6352                 1.4898
 IR Inten    --     37.4753                10.3820                 4.7167

                     46                     47                     48
                      A                      A                      A
 Frequencies --   1086.3538              1098.5188              1112.4501
 Red. masses --      5.4844                 6.9258                 3.4015
 Frc consts  --      3.8135                 4.9242                 2.4802
 IR Inten    --     27.1156                42.0392                32.4331

                     49                     50                     51
                      A                      A                      A
 Frequencies --   1151.4326              1168.3766              1185.0430
 Red. masses --      1.8518                 1.5129                 1.3373
 Frc consts  --      1.4465                 1.2168                 1.1065
 IR Inten    --     17.9997                 2.0583                 8.9744

                     52                     53                     54
                      A                      A                      A
 Frequencies --   1194.2239              1249.6690              1304.5620
 Red. masses --      1.6133                 2.2167                 1.9434
 Frc consts  --      1.3556                 2.0396                 1.9487
 IR Inten    --      7.8644                 4.4159                25.1994

                     55                     56                     57
                      A                      A                      A
 Frequencies --   1319.2986              1322.0115              1335.4674
 Red. masses --      3.3282                 2.4885                 1.4417
 Frc consts  --      3.4131                 2.5625                 1.5149
 IR Inten    --     38.8617                17.4369                 8.9026

                     58                     59                     60
                      A                      A                      A
 Frequencies --   1341.6446              1347.8132              1387.9146
 Red. masses --      2.7072                 2.6099                 6.2659
 Frc consts  --      2.8711                 2.7934                 7.1115
 IR Inten    --     61.1106                44.0894                19.0581

                     61                     62                     63
                      A                      A                      A
 Frequencies --   1414.7580              1429.1778              1444.8392
 Red. masses --      3.0310                 2.0393                 2.9890
 Frc consts  --      3.5744                 2.4542                 3.6763
 IR Inten    --      7.4994                33.9344                50.4597

                     64                     65                     66
                      A                      A                      A
 Frequencies --   1474.1824              1514.7232              1522.8288
 Red. masses --      3.7758                 7.0862                 1.0870
 Frc consts  --      4.8346                 9.5792                 1.4852
 IR Inten    --     56.1129                22.5988                 1.4608

                     67                     68                     69
                      A                      A                      A
 Frequencies --   1531.5862              1562.4023              1571.2814
 Red. masses --      3.5546                 7.2171                 6.7525
 Frc consts  --      4.9127                10.3801                 9.8226
 IR Inten    --      3.6799                 6.7325                42.6828

                     70                     71                     72
                      A                      A                      A
 Frequencies --   1595.4001              1641.9985              1664.6367
 Red. masses --      5.4373                 7.4439                 8.1215
 Frc consts  --      8.1541                11.8249                13.2594
 IR Inten    --     58.4025                12.3888                19.8357

                     73                     74                     75
                      A                      A                      A
 Frequencies --   1682.9869              1695.5194              2951.4208
 Red. masses --      7.5378                 1.0881                 1.0734
 Frc consts  --     12.5792                 1.8431                 5.5088
 IR Inten    --      1.6736                27.1121                65.5762

                     76                     77                     78
                      A                      A                      A
 Frequencies --   3123.2770              3212.0860              3230.9172
 Red. masses --      1.0881                 1.0881                 1.0936
 Frc consts  --      6.2539                 6.6146                 6.7263
 IR Inten    --     12.3212                 5.8392                 4.3812

                     79                     80                     81
                      A                      A                      A
 Frequencies --   3234.2951              3248.3027              3250.0558
 Red. masses --      1.0899                 1.0955                 1.0922
 Frc consts  --      6.7176                 6.8108                 6.7971
 IR Inten    --      0.8152                 2.7513                 0.1500

                     82                     83                     84
                      A                      A                      A
 Frequencies --   3295.1041              3471.7413              3559.8296
 Red. masses --      1.0993                 1.0496                 1.0929
 Frc consts  --      7.0323                 7.4535                 8.1596
 IR Inten    --      0.1052                 6.2567                 1.2444

 - Thermochemistry -
 -------------------
 Temperature   298.150 Kelvin.  Pressure   1.00000 Atm.
 Atom     1 has atomic number  6 and mass  12.00000

 Molecular mass:   266.09161 amu.
 Principal axes and moments of inertia in atomic units:
                           1         2         3
     Eigenvalues --  2249.865619911.39509**********
           X            0.99995   0.00988  -0.00026
           Y           -0.00988   0.99995  -0.00264
           Z            0.00023   0.00264   1.00000
 This molecule is an asymmetric top.
 Rotational symmetry number  1.
 Warning -- assumption of classical behavior for rotation
           may cause significant error
 Rotational temperatures (Kelvin)      0.03850     0.00874     0.00736
 Rotational constants (GHZ):           0.80216     0.18209     0.15327
 Zero-point vibrational energy     594163.0 (Joules/Mol)
                                  142.00837 (Kcal/Mol)
 Warning -- explicit consideration of  21 degrees of freedom as
           vibrations may cause significant error
 Vibrational temperatures:     47.41    73.13   102.69   128.32   175.65
          (Kelvin)            218.28   265.22   350.97   357.97   365.30
                              386.49   413.93   514.11   531.26   604.79
                              627.97   672.80   683.99   745.82   806.52
                              862.20   900.38   909.44   936.75   979.62
                              997.40  1040.62  1093.77  1110.85  1122.07
                             1149.18  1190.56  1194.84  1221.83  1248.79
                             1267.14  1299.71  1316.88  1351.20  1381.96
                             1392.95  1430.59  1461.75  1525.28  1537.06
                             1563.02  1580.52  1600.57  1656.65  1681.03
                             1705.01  1718.22  1797.99  1876.97  1898.18
                             1902.08  1921.44  1930.33  1939.20  1996.90
                             2035.52  2056.27  2078.80  2121.02  2179.35
                             2191.01  2203.61  2247.95  2260.72  2295.42
                             2362.47  2395.04  2421.44  2439.47  4246.44
                             4493.70  4621.48  4648.57  4653.43  4673.58
                             4676.11  4740.92  4995.06  5121.80

 Zero-point correction=                           0.226305 (Hartree/Particle)
 Thermal correction to Energy=                    0.241058
 Thermal correction to Enthalpy=                  0.242002
 Thermal correction to Gibbs Free Energy=         0.183279
 Sum of electronic and zero-point Energies=           -904.917783
 Sum of electronic and thermal Energies=              -904.903030
 Sum of electronic and thermal Enthalpies=            -904.902086
 Sum of electronic and thermal Free Energies=         -904.960809

                     E (Thermal)             CV                S
                      KCal/Mol        Cal/Mol-Kelvin    Cal/Mol-Kelvin
 Total                  151.266             58.492            123.593
 Electronic               0.000              0.000              0.000
 Translational            0.889              2.981             42.635
 Rotational               0.889              2.981             33.928
 Vibrational            149.489             52.531             47.030
 Vibration     1          0.594              1.983              5.643
 Vibration     2          0.595              1.977              4.785
 Vibration     3          0.598              1.968              4.115
 Vibration     4          0.602              1.957              3.678
 Vibration     5          0.610              1.931              3.067
 Vibration     6          0.619              1.901              2.651
 Vibration     7          0.631              1.861              2.284
 Vibration     8          0.659              1.773              1.774
 Vibration     9          0.662              1.765              1.739
 Vibration    10          0.665              1.756              1.703
 Vibration    11          0.673              1.731              1.605
 Vibration    12          0.685              1.697              1.487
 Vibration    13          0.732              1.560              1.134
 Vibration    14          0.742              1.535              1.083
 Vibration    15          0.783              1.426              0.891
 Vibration    16          0.797              1.391              0.838
 Vibration    17          0.825              1.322              0.744
 Vibration    18          0.832              1.305              0.723
 Vibration    19          0.873              1.209              0.614
 Vibration    20          0.916              1.117              0.523
 Vibration    21          0.957              1.033              0.451

                           ! Non-Optimized Parameters !
 Normal termination of Gaussian 16 at Sun Dec 13 20:56:51 2020.

 ----------------------------------------------------------------------
 # B3LYP/6-311++G(d,p) empiricaldispersion=gd3bj scf=xqc pop=npa geom=c
 heck
 ----------------------------------------------------------------------

 ----------------------------------------
 CID_116822397_JID_10886_Energie_neutraal
 ----------------------------------------
 Structure from the checkpoint file:  "JID_10886.chk"
 Charge =  0 Multiplicity = 1

 SCF Done:  E(RB3LYP) =  -905.380110036     A.U. after   16 cycles
 Normal termination of Gaussian 16 at Sun Dec 13 21:02:24 2020.

 ----------------------------------------------------------------------
 # B3LYP/6-311++G(d,p) empiricaldispersion=gd3bj scf=xqc pop=npa geom=c
 heck
 ----------------------------------------------------------------------

 --------------------------------------
 CID_116822397_JID_10886_Energie_kation
 --------------------------------------
 Structure from the checkpoint file:  "JID_10886.chk"
 Charge =  1 Multiplicity = 2

 SCF Done:  E(UB3LYP) =  -905.074228897     A.U. after   25 cycles
 Normal termination of Gaussian 16 at Sun Dec 13 21:14:33 2020.
 Gaussian 16:  ES64L-G16RevA.03 25-Dec-2016

 ----------------------------------------------------------------------
 # B3LYP/6-311++G(d,p) empiricaldispersion=gd3bj scf=xqc pop=npa geom=c
 heck
 ----------------------------------------------------------------------

 -------------------------------------
 CID_116822397_JID_10886_Energie_anion
 -------------------------------------
 Structure from the checkpoint file:  "JID_10886.chk"
 Charge = -1 Multiplicity = 2

                         Standard orientation:
 ---------------------------------------------------------------------
 Center     Atomic      Atomic             Coordinates (Angstroms)
 Number     Number       Type             X           Y           Z
 ---------------------------------------------------------------------
      1          6           0       -1.918824   -1.721984    0.604139
      2          6           0       -3.298769   -1.571755    0.703549
      3          6           0       -3.851700   -0.380605    0.232100
      4          6           0       -3.013237    0.607066   -0.307420
      5          6           0       -1.642180    0.484443   -0.416662
      6          6           0       -1.088657   -0.718478    0.052279
      7          6           0        0.377575   -0.914533   -0.025680
      8          7           0        1.107133    0.183569   -0.019245
      9          7           0        2.440007   -0.010855   -0.109713
     10          6           0        3.109680   -1.232717   -0.200005
     11          7           0        4.413735   -1.016898   -0.270788
     12          7           0        4.596882    0.341363   -0.218195
     13          6           0        3.421950    0.942018   -0.119710
     14          6           0        3.150279    2.407011   -0.043687
     15          7           0        2.417939    2.737555    1.186260
     16          6           0        2.305159   -2.394746   -0.210407
     17          6           0        0.951188   -2.232619   -0.124622
     18          8           0       -3.812759    1.658683   -0.692360
     19          6           0       -5.076981    1.242757   -0.359748
     20          7           0       -5.174097    0.073254    0.178340
     21          1           0       -1.465624   -2.627704    0.991929
     22          1           0       -3.924256   -2.344448    1.136642
     23          1           0       -1.016175    1.258042   -0.842805
     24          1           0        4.123975    2.903489   -0.027314
     25          1           0        2.637776    2.717935   -0.972721
     26          1           0        2.306149    3.748211    1.241792
     27          1           0        1.480787    2.342329    1.123812
     28          1           0        2.775759   -3.367335   -0.298684
     29          1           0        0.292270   -3.090574   -0.163289
     30          1           0       -5.872679    1.939541   -0.581862
 ---------------------------------------------------------------------

 SCF Done:  E(UB3LYP) =  -905.424393160     A.U. after   23 cycles

 The electronic state is 2-A.
 Alpha  occ. eigenvalues --  -19.09525 -14.27672 -14.21758 -14.19935 -14.19589
 Alpha  occ. eigenvalues --  -14.19420 -14.19060 -10.15951 -10.12562 -10.10571
 Alpha  occ. eigenvalues --  -10.10562 -10.10347 -10.09288 -10.08454 -10.07220
 Alpha  occ. eigenvalues --  -10.07190 -10.06917 -10.06303 -10.06195 -10.05599
 Alpha  occ. eigenvalues --   -1.02856  -0.95434  -0.86439  -0.82851  -0.78712
 Alpha  occ. eigenvalues --   -0.75591  -0.72496  -0.70642  -0.66423  -0.64994
 Alpha  occ. eigenvalues --   -0.64118  -0.57928  -0.56392  -0.53581  -0.52175
 Alpha  occ. eigenvalues --   -0.50179  -0.49511  -0.47326  -0.42403  -0.41679
 Alpha  occ. eigenvalues --   -0.40076  -0.39475  -0.38940  -0.37637  -0.37450
 Alpha  occ. eigenvalues --   -0.36822  -0.34344  -0.33874  -0.33634  -0.31574
 Alpha  occ. eigenvalues --   -0.31513  -0.30148  -0.29061  -0.27769  -0.26995
 Alpha  occ. eigenvalues --   -0.26412  -0.25162  -0.24888  -0.23133  -0.20801
 Alpha  occ. eigenvalues --   -0.20131  -0.19789  -0.16855  -0.16678  -0.14786
 Alpha  occ. eigenvalues --   -0.14611  -0.12842  -0.12232  -0.10933   0.00920
 Alpha virt. eigenvalues --    0.06579   0.07324   0.07686   0.08329   0.09415
 Alpha virt. eigenvalues --    0.09727   0.10430   0.10607   0.11002   0.11964
 Alpha virt. eigenvalues --    0.12382   0.12631   0.13335   0.14111   0.14395

  Beta  occ. eigenvalues --  -19.09481 -14.27549 -14.21814 -14.19432 -14.19421
  Beta  occ. eigenvalues --  -14.19260 -14.19031 -10.15770 -10.12616 -10.10621
  Beta  occ. eigenvalues --  -10.10598 -10.10344 -10.09172 -10.08327 -10.07164
  Beta  occ. eigenvalues --  -10.07154 -10.06922 -10.06343 -10.06031 -10.05249
  Beta  occ. eigenvalues --   -1.02753  -0.95079  -0.85892  -0.82790  -0.78706
  Beta  occ. eigenvalues --   -0.75379  -0.72216  -0.70196  -0.66109  -0.64829
  Beta  occ. eigenvalues --   -0.63823  -0.57855  -0.55896  -0.53439  -0.52024
  Beta  occ. eigenvalues --   -0.50002  -0.49275  -0.47166  -0.42251  -0.41520
  Beta  occ. eigenvalues --   -0.39914  -0.39369  -0.38804  -0.37290  -0.37148
  Beta  occ. eigenvalues --   -0.36695  -0.34100  -0.33534  -0.33399  -0.31507
  Beta  occ. eigenvalues --   -0.31442  -0.29961  -0.28979  -0.27626  -0.26491
  Beta  occ. eigenvalues --   -0.25954  -0.25063  -0.24121  -0.22529  -0.19985
  Beta  occ. eigenvalues --   -0.19749  -0.19655  -0.16260  -0.15679  -0.14753
  Beta  occ. eigenvalues --   -0.14117  -0.12618  -0.11538  -0.09584
  Beta virt. eigenvalues --    0.06228   0.07286   0.07661   0.08313   0.08458
  Beta virt. eigenvalues --    0.09579   0.09739   0.10464   0.10609   0.11464
  Beta virt. eigenvalues --    0.11953   0.12384   0.12650   0.13322   0.14345

 Mulliken charges and spin densities:
               1          2
     1  C   -0.855518   0.001317
     2  C   -0.789537   0.053604
     3  C    0.090221   0.075740
     4  C    0.044426  -0.052595
     5  C   -0.416281   0.149361
     6  C    1.176361   0.011686
     7  C   -0.338535   0.070627
     8  N   -0.139841   0.378237
     9  N    0.149852  -0.014853
    10  C    0.125159  -0.037252
    11  N   -0.179223   0.006388
    12  N   -0.038971   0.075833
    13  C    0.269070  -0.027325
    14  C   -0.536897  -0.011687
    15  N   -0.403144  -0.003339
    16  C   -0.489518   0.278051
    17  C   -0.441155  -0.016976
    18  O   -0.115796   0.005046
    19  C    0.312391   0.128888
    20  N   -0.124996  -0.034366
    21  H    0.126364   0.002081
    22  H    0.149745  -0.002572
    23  H    0.191018  -0.009832
    24  H    0.172008  -0.000342
    25  H    0.119028  -0.000320
    26  H    0.212608   0.000096
    27  H    0.269235   0.003387
    28  H    0.168730  -0.020251
    29  H    0.101871   0.001555
    30  H    0.191325  -0.010185
 Sum of Mulliken charges =  -1.00000   1.00000

 Dipole moment (field-independent basis, Debye):
    X=             -5.6456    Y=              2.0121    Z=             -0.8414  Tot=              6.0522
 Quadrupole moment (field-independent basis, Debye-Ang):
   XX=           -210.9410   YY=           -116.4401   ZZ=           -126.3070
   XY=              2.5803   XZ=              0.9328   YZ=             -3.8480

 Summary of Natural Population Analysis:

                                       Natural Population
                Natural  -----------------------------------------------
    Atom  No    Charge         Core      Valence    Rydberg      Total
 -----------------------------------------------------------------------
      C    1   -0.10058      0.99955     2.09372    0.00731     3.10058
      C    2   -0.10028      0.99954     2.09191    0.00883     3.10028
      C    3    0.05013      0.99944     1.93766    0.01277     2.94987
      C    4    0.12649      0.99935     1.86189    0.01227     2.87351
      C    5   -0.07421      0.99941     2.06647    0.00833     3.07421
      C    6   -0.01586      0.99952     2.00666    0.00968     3.01586
      C    7    0.09597      0.99956     1.88941    0.01506     2.90403
      N    8   -0.03019      0.99966     2.51778    0.01275     3.53019
      N    9   -0.09681      0.99956     2.58103    0.01622     3.59681
      C   10    0.14694      0.99958     1.83440    0.01908     2.85306
      N   11   -0.17150      0.99969     2.65722    0.01459     3.67150
      N   12   -0.13537      0.99969     2.62175    0.01393     3.63537
      C   13    0.15352      0.99961     1.82618    0.02069     2.84648
      C   14   -0.10723      0.99961     2.09799    0.00964     3.10723
      N   15   -0.42062      0.99977     2.91141    0.00944     3.92062
      C   16   -0.03321      0.99953     2.02511    0.00857     3.03321
      C   17   -0.12347      0.99955     2.11627    0.00766     3.12347
      O   18   -0.24207      0.99986     3.23361    0.00859     4.24207
      C   19    0.21657      0.99965     1.76491    0.01887     2.78343
      N   20   -0.25981      0.99970     2.74950    0.01061     3.75981
      H   21    0.09872      0.00000     0.39996    0.00132     0.40128
      H   22    0.09913      0.00000     0.39916    0.00172     0.40087
      H   23    0.11260      0.00000     0.38621    0.00119     0.38740
      H   24    0.10059      0.00000     0.39815    0.00126     0.39941
      H   25    0.08336      0.00000     0.41513    0.00152     0.41664
      H   26    0.16568      0.00000     0.33255    0.00177     0.33432
      H   27    0.18662      0.00000     0.31154    0.00184     0.31338
      H   28    0.09867      0.00000     0.39984    0.00149     0.40133
      H   29    0.09881      0.00000     0.39971    0.00148     0.40119
      H   30    0.08189      0.00000     0.41711    0.00100     0.41811
 =======================================================================
   * Total *    0.00449     19.99183    48.74421    0.25947    68.99551

 Normal termination of Gaussian 16 at Sun Dec 13 21:25:41 2020.
