 Gaussian 16, Revision A.03,

 -----------------------------------------------------------
 # opt freq B3LYP/6-31G(d) empiricaldispersion=gd3bj scf=xqc
 -----------------------------------------------------------

 ------------------------------
 CID_90964989_JID_4120_neutraal
 ------------------------------
 Symbolic Z-matrix:
 Charge =  0 Multiplicity = 1

 SCF Done:  E(RB3LYP) =  -650.843642917     A.U. after   15 cycles
 SCF Done:  E(RB3LYP) =  -650.835012757     A.U. after   15 cycles
 SCF Done:  E(RB3LYP) =  -650.850943424     A.U. after   14 cycles
 SCF Done:  E(RB3LYP) =  -650.854224199     A.U. after   14 cycles
 SCF Done:  E(RB3LYP) =  -650.855587973     A.U. after   14 cycles
 SCF Done:  E(RB3LYP) =  -650.854035842     A.U. after   14 cycles
 SCF Done:  E(RB3LYP) =  -650.856454676     A.U. after   13 cycles
 SCF Done:  E(RB3LYP) =  -650.856750631     A.U. after   13 cycles
 SCF Done:  E(RB3LYP) =  -650.857076384     A.U. after   14 cycles
 SCF Done:  E(RB3LYP) =  -650.857396987     A.U. after   13 cycles
 SCF Done:  E(RB3LYP) =  -650.858102344     A.U. after   11 cycles
 SCF Done:  E(RB3LYP) =  -650.858104009     A.U. after   10 cycles
 SCF Done:  E(RB3LYP) =  -650.858104674     A.U. after    9 cycles
 SCF Done:  E(RB3LYP) =  -650.858104830     A.U. after    8 cycles
 SCF Done:  E(RB3LYP) =  -650.858104875     A.U. after    7 cycles
 Optimization completed.
    -- Stationary point found.
 Normal termination of Gaussian 16 at Thu Dec 10 09:20:46 2020.

 --------------------------------------------------------------------
 #N Geom=AllCheck Guess=TCheck SCRF=Check GenChk RB3LYP/6-31G(d) Freq
 --------------------------------------------------------------------

 Structure from the checkpoint file:  "JID_4120.chk"
 ------------------------------
 CID_90964989_JID_4120_neutraal
 ------------------------------
 Charge =  0 Multiplicity = 1

 SCF Done:  E(RB3LYP) =  -650.858104875     A.U. after    1 cycles

  Exact polarizability: 137.645   9.595 131.083  18.470 -12.409  78.626
 Approx polarizability: 212.956  22.574 227.253  39.024 -38.045 134.058

                      1                      2                      3
                      A                      A                      A
 Frequencies --     25.5682                63.5166                77.8198
 Red. masses --      7.4297                 5.0741                 7.0853
 Frc consts  --      0.0029                 0.0121                 0.0253
 IR Inten    --      0.0662                 2.3887                 1.1066

                      4                      5                      6
                      A                      A                      A
 Frequencies --     93.2219               113.3136               169.1926
 Red. masses --      4.0382                 3.7420                 7.5551
 Frc consts  --      0.0207                 0.0283                 0.1274
 IR Inten    --      2.0279                 1.6648                 4.5860

                      7                      8                      9
                      A                      A                      A
 Frequencies --    179.9466               207.8585               253.4147
 Red. masses --      1.1127                 4.8840                 4.2391
 Frc consts  --      0.0212                 0.1243                 0.1604
 IR Inten    --      0.1860                 0.9884                 1.0628

                     10                     11                     12
                      A                      A                      A
 Frequencies --    308.2298               328.8992               383.2891
 Red. masses --      2.6323                 4.0863                 3.7983
 Frc consts  --      0.1473                 0.2604                 0.3288
 IR Inten    --      4.5536                 3.4951                 6.6480

                     13                     14                     15
                      A                      A                      A
 Frequencies --    419.2309               454.3530               476.5348
 Red. masses --      3.6435                 3.9321                 3.4122
 Frc consts  --      0.3773                 0.4783                 0.4565
 IR Inten    --      7.8173                 2.4631                 1.6956

                     16                     17                     18
                      A                      A                      A
 Frequencies --    537.9818               542.6858               575.6038
 Red. masses --      3.5593                 4.6982                 4.3164
 Frc consts  --      0.6070                 0.8152                 0.8426
 IR Inten    --      2.9655                 8.0506                 5.2919

                     19                     20                     21
                      A                      A                      A
 Frequencies --    604.1269               609.5251               629.7404
 Red. masses --      4.2411                 2.7766                 4.4975
 Frc consts  --      0.9120                 0.6078                 1.0509
 IR Inten    --     19.6024                 4.9040                22.9676

                     22                     23                     24
                      A                      A                      A
 Frequencies --    657.2900               705.3459               757.9929
 Red. masses --      2.7294                 4.7142                 3.4560
 Frc consts  --      0.6948                 1.3819                 1.1699
 IR Inten    --     43.6030                 2.2467                 4.3106

                     25                     26                     27
                      A                      A                      A
 Frequencies --    775.7500               814.8860               882.3336
 Red. masses --      1.3172                 4.9688                 1.4574
 Frc consts  --      0.4670                 1.9440                 0.6685
 IR Inten    --     36.9201                 8.0626                 1.8388

                     28                     29                     30
                      A                      A                      A
 Frequencies --    944.6851               954.7811               967.9025
 Red. masses --      2.1431                 1.4812                 2.5098
 Frc consts  --      1.1269                 0.7956                 1.3853
 IR Inten    --     15.7132                 8.9696                29.9782

                     31                     32                     33
                      A                      A                      A
 Frequencies --    987.9222               996.6601              1056.1740
 Red. masses --      1.2795                 7.1606                 1.8362
 Frc consts  --      0.7358                 4.1908                 1.2068
 IR Inten    --      1.2729               159.1761                 4.9495

                     34                     35                     36
                      A                      A                      A
 Frequencies --   1072.6071              1082.2679              1099.4306
 Red. masses --      2.9480                 2.6639                 1.8675
 Frc consts  --      1.9983                 1.8384                 1.3300
 IR Inten    --      3.2272                25.7359                11.1507

                     37                     38                     39
                      A                      A                      A
 Frequencies --   1158.9597              1161.7234              1197.3149
 Red. masses --      1.5594                 1.5420                 1.1294
 Frc consts  --      1.2341                 1.2261                 0.9539
 IR Inten    --     12.1334                14.6632                 7.7393

                     40                     41                     42
                      A                      A                      A
 Frequencies --   1246.4986              1277.6425              1290.8748
 Red. masses --      2.7827                 1.4434                 1.9625
 Frc consts  --      2.5474                 1.3882                 1.9267
 IR Inten    --    109.6463                56.6183                70.1623

                     43                     44                     45
                      A                      A                      A
 Frequencies --   1311.8339              1358.9484              1411.6852
 Red. masses --      1.7602                 5.8721                 1.3544
 Frc consts  --      1.7847                 6.3892                 1.5903
 IR Inten    --     93.6576                 8.7664                37.8186

                     46                     47                     48
                      A                      A                      A
 Frequencies --   1416.4032              1437.6332              1490.9761
 Red. masses --      1.6344                 2.0696                 2.0670
 Frc consts  --      1.9319                 2.5202                 2.7073
 IR Inten    --      3.6636                15.0936                23.0962

                     49                     50                     51
                      A                      A                      A
 Frequencies --   1500.8100              1511.0196              1522.7411
 Red. masses --      1.1080                 1.0580                 1.7024
 Frc consts  --      1.4705                 1.4232                 2.3257
 IR Inten    --     24.9920                 8.1004                25.4129

                     52                     53                     54
                      A                      A                      A
 Frequencies --   1536.4200              1617.8444              1664.3676
 Red. masses --      1.3736                 5.4738                 5.6576
 Frc consts  --      1.9104                 8.4414                 9.2338
 IR Inten    --     62.0131                30.2074                56.3760

                     55                     56                     57
                      A                      A                      A
 Frequencies --   1761.0712              2222.5075              3061.0192
 Red. masses --     10.4295                12.2737                 1.0387
 Frc consts  --     19.0576                35.7202                 5.7340
 IR Inten    --    196.7695               509.9348                 2.4394

                     58                     59                     60
                      A                      A                      A
 Frequencies --   3105.8878              3127.0790              3173.0752
 Red. masses --      1.0654                 1.0988                 1.1023
 Frc consts  --      6.0555                 6.3305                 6.5391
 IR Inten    --     47.0112                 7.3219                 9.4168

                     61                     62                     63
                      A                      A                      A
 Frequencies --   3178.3362              3192.4352              3208.2601
 Red. masses --      1.1006                 1.0863                 1.0908
 Frc consts  --      6.5507                 6.5232                 6.6148
 IR Inten    --      4.2877                 3.8879                14.9749

                     64                     65                     66
                      A                      A                      A
 Frequencies --   3212.9592              3220.1334              3229.7440
 Red. masses --      1.0874                 1.0938                 1.0931
 Frc consts  --      6.6137                 6.6826                 6.7180
 IR Inten    --      5.1166                13.0070                10.4123

 - Thermochemistry -
 -------------------
 Temperature   298.150 Kelvin.  Pressure   1.00000 Atm.
 Atom     1 has atomic number  6 and mass  12.00000

 Molecular mass:   190.06299 amu.
 Principal axes and moments of inertia in atomic units:
                           1         2         3
     Eigenvalues --  1919.158402826.972553515.94304
           X            0.99972  -0.00150   0.02364
           Y            0.00158   0.99999  -0.00309
           Z           -0.02363   0.00313   0.99972
 This molecule is an asymmetric top.
 Rotational symmetry number  1.
 Warning -- assumption of classical behavior for rotation
           may cause significant error
 Rotational temperatures (Kelvin)      0.04513     0.03064     0.02463
 Rotational constants (GHZ):           0.94038     0.63840     0.51330
 Zero-point vibrational energy     488173.8 (Joules/Mol)
                                  116.67634 (Kcal/Mol)
 Warning -- explicit consideration of  20 degrees of freedom as
           vibrations may cause significant error
 Vibrational temperatures:     36.79    91.39   111.97   134.13   163.03
          (Kelvin)            243.43   258.90   299.06   364.61   443.47
                              473.21   551.47   603.18   653.71   685.63
                              774.04   780.80   828.17   869.20   876.97
                              906.06   945.69  1014.84  1090.58  1116.13
                             1172.44  1269.48  1359.19  1373.72  1392.60
                             1421.40  1433.97  1519.60  1543.24  1557.14
                             1581.84  1667.48  1671.46  1722.67  1793.43
                             1838.24  1857.28  1887.44  1955.22  2031.10
                             2037.89  2068.43  2145.18  2159.33  2174.02
                             2190.88  2210.57  2327.72  2394.65  2533.79
                             3197.69  4404.12  4468.68  4499.17  4565.35
                             4572.92  4593.20  4615.97  4622.73  4633.05
                             4646.88

 Zero-point correction=                           0.185936 (Hartree/Particle)
 Thermal correction to Energy=                    0.198899
 Thermal correction to Enthalpy=                  0.199843
 Thermal correction to Gibbs Free Energy=         0.145498
 Sum of electronic and zero-point Energies=           -650.672169
 Sum of electronic and thermal Energies=              -650.659206
 Sum of electronic and thermal Enthalpies=            -650.658261
 Sum of electronic and thermal Free Energies=         -650.712607

                     E (Thermal)             CV                S
                      KCal/Mol        Cal/Mol-Kelvin    Cal/Mol-Kelvin
 Total                  124.811             48.138            114.380
 Electronic               0.000              0.000              0.000
 Translational            0.889              2.981             41.632
 Rotational               0.889              2.981             31.323
 Vibrational            123.034             42.176             41.424
 Vibration     1          0.593              1.985              6.147
 Vibration     2          0.597              1.972              4.345
 Vibration     3          0.599              1.964              3.945
 Vibration     4          0.602              1.954              3.591
 Vibration     5          0.607              1.938              3.211
 Vibration     6          0.625              1.880              2.444
 Vibration     7          0.629              1.867              2.329
 Vibration     8          0.641              1.829              2.062
 Vibration     9          0.665              1.757              1.707
 Vibration    10          0.698              1.658              1.372
 Vibration    11          0.712              1.618              1.265
 Vibration    12          0.752              1.506              1.026
 Vibration    13          0.782              1.428              0.895
 Vibration    14          0.813              1.351              0.783
 Vibration    15          0.833              1.302              0.719
 Vibration    16          0.893              1.166              0.570
 Vibration    17          0.898              1.156              0.560
 Vibration    18          0.932              1.084              0.494
 Vibration    19          0.963              1.023              0.443
 Vibration    20          0.968              1.012              0.434

 Optimization completed.
    -- Stationary point found.
 Normal termination of Gaussian 16 at Thu Dec 10 09:27:15 2020.

 ----------------------------------------------------------------------
 # B3LYP/6-311++G(d,p) empiricaldispersion=gd3bj scf=xqc pop=npa geom=c
 heck
 ----------------------------------------------------------------------

 --------------------------------------
 CID_90964989_JID_4120_Energie_neutraal
 --------------------------------------
 Structure from the checkpoint file:  "JID_4120.chk"
 Charge =  0 Multiplicity = 1

 SCF Done:  E(RB3LYP) =  -651.042754459     A.U. after   16 cycles
 Normal termination of Gaussian 16 at Thu Dec 10 09:29:30 2020.

 ----------------------------------------------------------------------
 # B3LYP/6-311++G(d,p) empiricaldispersion=gd3bj scf=xqc pop=npa geom=c
 heck
 ----------------------------------------------------------------------

 ------------------------------------
 CID_90964989_JID_4120_Energie_kation
 ------------------------------------
 Structure from the checkpoint file:  "JID_4120.chk"
 Charge =  1 Multiplicity = 2

 SCF Done:  E(UB3LYP) =  -650.730186013     A.U. after   33 cycles
 SCF Done:  E(UB3LYP) =  -650.730186013     a.u. after    1 cycles
 Normal termination of Gaussian 16 at Thu Dec 10 09:35:51 2020.
 Gaussian 16:  ES64L-G16RevA.03 25-Dec-2016

 ----------------------------------------------------------------------
 # B3LYP/6-311++G(d,p) empiricaldispersion=gd3bj scf=xqc pop=npa geom=c
 heck
 ----------------------------------------------------------------------

 -----------------------------------
 CID_90964989_JID_4120_Energie_anion
 -----------------------------------
 Structure from the checkpoint file:  "JID_4120.chk"
 Charge = -1 Multiplicity = 2

                         Standard orientation:
 ---------------------------------------------------------------------
 Center     Atomic      Atomic             Coordinates (Angstroms)
 Number     Number       Type             X           Y           Z
 ---------------------------------------------------------------------
      1          6           0        0.956517    2.649109    0.348610
      2          6           0        0.598411    1.254860    0.843294
      3          8           0        1.297127    0.729231    1.701688
      4          6           0       -0.610767    0.587548    0.283996
      5          6           0       -1.585239    1.388527   -0.347681
      6          6           0       -2.813351    0.887779   -0.753062
      7          6           0       -3.100053   -0.463080   -0.538686
      8          6           0       -2.146942   -1.288110    0.041351
      9          6           0       -0.898437   -0.793354    0.446663
     10          8           0       -0.085930   -1.743292    0.981946
     11          6           0        1.309297   -1.867591    0.618071
     12          6           0        1.580051   -1.635932   -0.840677
     13          6           0        2.139150   -0.524850   -1.277454
     14          8           0        2.652470    0.455959   -1.658708
     15          1           0        0.231754    3.392218    0.700683
     16          1           0        0.981847    2.692273   -0.744775
     17          1           0        1.938562    2.904146    0.749225
     18          1           0       -1.376649    2.441108   -0.499668
     19          1           0       -3.541748    1.541347   -1.222573
     20          1           0       -4.056943   -0.877192   -0.843851
     21          1           0       -2.330383   -2.347714    0.185073
     22          1           0        1.902442   -1.201647    1.241437
     23          1           0        1.534663   -2.904935    0.875795
     24          1           0        1.235301   -2.344225   -1.587298
 ---------------------------------------------------------------------

 SCF Done:  E(UB3LYP) =  -651.052603831     A.U. after   31 cycles

 The electronic state is 2-A.
 Alpha  occ. eigenvalues --  -19.04877 -18.99849 -18.92679 -10.14779 -10.09381
 Alpha  occ. eigenvalues --  -10.08341 -10.07379 -10.04722 -10.02955 -10.02776
 Alpha  occ. eigenvalues --  -10.02532 -10.02467 -10.02455 -10.02168  -0.98025
 Alpha  occ. eigenvalues --   -0.91386  -0.86670  -0.70948  -0.66767  -0.62177
 Alpha  occ. eigenvalues --   -0.60607  -0.57884  -0.54317  -0.48032  -0.45389
 Alpha  occ. eigenvalues --   -0.41392  -0.40100  -0.38234  -0.36581  -0.34690
 Alpha  occ. eigenvalues --   -0.34283  -0.32107  -0.31551  -0.30622  -0.29868
 Alpha  occ. eigenvalues --   -0.29410  -0.29052  -0.27749  -0.25507  -0.24788
 Alpha  occ. eigenvalues --   -0.24178  -0.22373  -0.22030  -0.20873  -0.19724
 Alpha  occ. eigenvalues --   -0.15462  -0.11884  -0.10799  -0.09121  -0.08734
 Alpha  occ. eigenvalues --    0.04800
 Alpha virt. eigenvalues --    0.07680   0.08876   0.09750   0.09922   0.11096
 Alpha virt. eigenvalues --    0.11251   0.12121   0.12982   0.13281   0.13727
 Alpha virt. eigenvalues --    0.14144   0.15588   0.15793   0.16448   0.17199

  Beta  occ. eigenvalues --  -19.04762 -18.99821 -18.92257 -10.14569 -10.09307
  Beta  occ. eigenvalues --  -10.08184 -10.07044 -10.04746 -10.03021 -10.02631
  Beta  occ. eigenvalues --  -10.02575 -10.02496 -10.02172 -10.02068  -0.97781
  Beta  occ. eigenvalues --   -0.91264  -0.85879  -0.70665  -0.66523  -0.61694
  Beta  occ. eigenvalues --   -0.60342  -0.57685  -0.54131  -0.47437  -0.45219
  Beta  occ. eigenvalues --   -0.41075  -0.39835  -0.37895  -0.36343  -0.34484
  Beta  occ. eigenvalues --   -0.34004  -0.31848  -0.31273  -0.30361  -0.29559
  Beta  occ. eigenvalues --   -0.29135  -0.28514  -0.27459  -0.25208  -0.24587
  Beta  occ. eigenvalues --   -0.23857  -0.22072  -0.21779  -0.20097  -0.18382
  Beta  occ. eigenvalues --   -0.15153  -0.11140  -0.10191  -0.08406  -0.08352
  Beta virt. eigenvalues --    0.08420   0.09019   0.09843   0.10395   0.10647
  Beta virt. eigenvalues --    0.11070   0.11260   0.12096   0.13282   0.13375
  Beta virt. eigenvalues --    0.13679   0.14155   0.15594   0.15775   0.17124

 Mulliken charges and spin densities:
               1          2
     1  C   -0.543868  -0.017496
     2  C   -0.291937   0.181594
     3  O   -0.373387   0.151686
     4  C    1.983788  -0.033076
     5  C   -0.561945   0.177269
     6  C   -0.558764  -0.035837
     7  C   -0.303175   0.214122
     8  C   -0.326086  -0.009643
     9  C   -0.682571   0.132840
    10  O   -0.091284  -0.000473
    11  C   -0.212405  -0.185860
    12  C    0.209024   0.020534
    13  C   -0.152539   0.110193
    14  O   -0.243643   0.030587
    15  H    0.089474   0.038619
    16  H    0.137367   0.012179
    17  H    0.164245  -0.001035
    18  H    0.117259  -0.006759
    19  H    0.114090   0.002689
    20  H    0.099927  -0.017115
    21  H    0.122597   0.020784
    22  H    0.194913   0.019132
    23  H    0.029151   0.119004
    24  H    0.079771   0.076063
 Sum of Mulliken charges =  -1.00000   1.00000

 Dipole moment (field-independent basis, Debye):
    X=             -0.7258    Y=             -0.6791    Z=             -2.3123  Tot=              2.5169
 Quadrupole moment (field-independent basis, Debye-Ang):
   XX=           -108.5961   YY=            -95.4241   ZZ=           -100.0121
   XY=             -3.0719   XZ=             -0.1676   YZ=              0.3688

 Summary of Natural Population Analysis:

                                       Natural Population
                Natural  -----------------------------------------------
    Atom  No    Charge         Core      Valence    Rydberg      Total
 -----------------------------------------------------------------------
      C    1   -0.33205      0.99964     2.32804    0.00437     3.33205
      C    2    0.30914      0.99965     1.66910    0.02212     2.69086
      O    3   -0.27224      0.99987     3.26560    0.00677     4.27224
      C    4   -0.08359      0.99943     2.07288    0.01128     3.08359
      C    5   -0.05618      0.99955     2.04911    0.00751     3.05618
      C    6   -0.14238      0.99957     2.13301    0.00980     3.14238
      C    7   -0.04629      0.99957     2.03761    0.00910     3.04629
      C    8   -0.13898      0.99953     2.13063    0.00882     3.13898
      C    9    0.20665      0.99935     1.77788    0.01612     2.79335
      O   10   -0.28521      0.99985     3.27533    0.01003     4.28521
      C   11   -0.01558      0.99953     2.00106    0.01500     3.01558
      C   12   -0.29143      0.99945     2.28466    0.00732     3.29143
      C   13    0.39015      0.99955     1.59071    0.01958     2.60985
      O   14   -0.23179      0.99987     3.22357    0.00835     4.23179
      H   15    0.10040      0.00000     0.39864    0.00096     0.39960
      H   16    0.10464      0.00000     0.39448    0.00088     0.39536
      H   17    0.10375      0.00000     0.39516    0.00110     0.39625
      H   18    0.09335      0.00000     0.40565    0.00101     0.40665
      H   19    0.09036      0.00000     0.40854    0.00110     0.40964
      H   20    0.08613      0.00000     0.41279    0.00108     0.41387
      H   21    0.09632      0.00000     0.40211    0.00157     0.40368
      H   22    0.11016      0.00000     0.38836    0.00148     0.38984
      H   23    0.08554      0.00000     0.41312    0.00134     0.41446
      H   24    0.11914      0.00000     0.37964    0.00122     0.38086
 =======================================================================
   * Total *   -0.00000     13.99442    35.83768    0.16790    50.00000

 Normal termination of Gaussian 16 at Thu Dec 10 09:41:49 2020.
