 Gaussian 16, Revision A.03,

 -----------------------------------------------------------
 # opt freq B3LYP/6-31G(d) empiricaldispersion=gd3bj scf=xqc
 -----------------------------------------------------------

 -------------------------------
 CID_105225049_JID_4382_neutraal
 -------------------------------
 Symbolic Z-matrix:
 Charge =  0 Multiplicity = 1

 SCF Done:  E(RB3LYP) =  -974.787842137     A.U. after   15 cycles
 SCF Done:  E(RB3LYP) =  -974.795715267     A.U. after   12 cycles
 SCF Done:  E(RB3LYP) =  -974.795594526     A.U. after   14 cycles
 SCF Done:  E(RB3LYP) =  -974.797020316     A.U. after   12 cycles
 SCF Done:  E(RB3LYP) =  -974.798851364     A.U. after   12 cycles
 SCF Done:  E(RB3LYP) =  -974.800190467     A.U. after   12 cycles
 SCF Done:  E(RB3LYP) =  -974.802334951     A.U. after   12 cycles
 SCF Done:  E(RB3LYP) =  -974.805007863     A.U. after   15 cycles
 SCF Done:  E(RB3LYP) =  -974.806763972     A.U. after   12 cycles
 SCF Done:  E(RB3LYP) =  -974.808183826     A.U. after   12 cycles
 SCF Done:  E(RB3LYP) =  -974.810389893     A.U. after   10 cycles
 SCF Done:  E(RB3LYP) =  -974.810395187     A.U. after   10 cycles
 SCF Done:  E(RB3LYP) =  -974.810395896     A.U. after    9 cycles
 SCF Done:  E(RB3LYP) =  -974.810395963     A.U. after    7 cycles
 SCF Done:  E(RB3LYP) =  -974.810395999     A.U. after    7 cycles
 Optimization completed.
    -- Stationary point found.
 Normal termination of Gaussian 16 at Thu Dec 10 09:39:50 2020.

 --------------------------------------------------------------------
 #N Geom=AllCheck Guess=TCheck SCRF=Check GenChk RB3LYP/6-31G(d) Freq
 --------------------------------------------------------------------

 Structure from the checkpoint file:  "JID_4382.chk"
 -------------------------------
 CID_105225049_JID_4382_neutraal
 -------------------------------
 Charge =  0 Multiplicity = 1

 SCF Done:  E(RB3LYP) =  -974.810395999     A.U. after    1 cycles

  Exact polarizability: 170.301   1.136 133.978 -14.469   5.043 106.076
 Approx polarizability: 232.447   2.192 219.555 -27.137  12.975 158.733

                      1                      2                      3
                      A                      A                      A
 Frequencies --     33.7351                39.7799                76.1626
 Red. masses --      3.9452                 4.2056                 2.8778
 Frc consts  --      0.0026                 0.0039                 0.0098
 IR Inten    --      0.1701                 0.9553                 0.0634

                      4                      5                      6
                      A                      A                      A
 Frequencies --     83.6286               100.2108               124.9306
 Red. masses --      1.2202                 2.7813                 2.5868
 Frc consts  --      0.0050                 0.0165                 0.0238
 IR Inten    --      0.1358                 0.1545                 0.5490

                      7                      8                      9
                      A                      A                      A
 Frequencies --    145.2016               159.4654               188.3021
 Red. masses --      3.5680                 3.0057                 3.7860
 Frc consts  --      0.0443                 0.0450                 0.0791
 IR Inten    --      4.5387                 4.9438                 0.8850

                     10                     11                     12
                      A                      A                      A
 Frequencies --    219.8935               247.9570               261.4072
 Red. masses --      2.3449                 2.3754                 2.1828
 Frc consts  --      0.0668                 0.0860                 0.0879
 IR Inten    --      0.0540                 0.9248                 3.7316

                     13                     14                     15
                      A                      A                      A
 Frequencies --    272.6544               296.8620               313.5510
 Red. masses --      2.4565                 2.2004                 2.2866
 Frc consts  --      0.1076                 0.1142                 0.1325
 IR Inten    --     19.1787                30.3320                10.9337

                     16                     17                     18
                      A                      A                      A
 Frequencies --    336.2111               375.3646               386.1641
 Red. masses --      1.6997                 3.5479                 2.1929
 Frc consts  --      0.1132                 0.2945                 0.1927
 IR Inten    --     19.3055                 5.0544                 9.1826

                     19                     20                     21
                      A                      A                      A
 Frequencies --    423.4245               496.8497               514.7540
 Red. masses --      4.1104                 3.5890                 3.2241
 Frc consts  --      0.4342                 0.5220                 0.5033
 IR Inten    --      1.4980                 2.0948                 3.0461

                     22                     23                     24
                      A                      A                      A
 Frequencies --    550.1984               602.7770               629.1824
 Red. masses --      4.7841                 2.6465                 3.2230
 Frc consts  --      0.8533                 0.5665                 0.7517
 IR Inten    --      1.2103                 7.8686                 7.5417

                     25                     26                     27
                      A                      A                      A
 Frequencies --    688.6625               705.6517               738.8083
 Red. masses --      4.2982                 1.8880                 2.3787
 Frc consts  --      1.2010                 0.5539                 0.7650
 IR Inten    --      4.2314                13.2018                20.6191

                     28                     29                     30
                      A                      A                      A
 Frequencies --    791.3836               813.5327               836.2652
 Red. masses --      1.6366                 2.9040                 4.9641
 Frc consts  --      0.6039                 1.1324                 2.0454
 IR Inten    --     13.8455                 0.9090                 2.6094

                     31                     32                     33
                      A                      A                      A
 Frequencies --    884.8058               899.0130               931.6249
 Red. masses --      1.2639                 2.8331                 2.1698
 Frc consts  --      0.5830                 1.3491                 1.1096
 IR Inten    --      1.0633                35.9378                16.0258

                     34                     35                     36
                      A                      A                      A
 Frequencies --    951.9834               976.1892              1027.4746
 Red. masses --      2.3636                 2.3751                 2.9079
 Frc consts  --      1.2621                 1.3335                 1.8087
 IR Inten    --     16.3751                 5.6638                13.4487

                     37                     38                     39
                      A                      A                      A
 Frequencies --   1037.4977              1061.6110              1068.6185
 Red. masses --      1.8011                 1.7961                 1.6436
 Frc consts  --      1.1423                 1.1926                 1.1058
 IR Inten    --      4.8184                 6.5455                22.9134

                     40                     41                     42
                      A                      A                      A
 Frequencies --   1071.9040              1107.7430              1124.7068
 Red. masses --      1.5033                 1.6662                 1.6968
 Frc consts  --      1.0177                 1.2046                 1.2646
 IR Inten    --      2.1026                18.3101                 9.5629

                     43                     44                     45
                      A                      A                      A
 Frequencies --   1133.8415              1160.5317              1190.3157
 Red. masses --      1.8935                 4.8990                 1.7184
 Frc consts  --      1.4342                 3.8875                 1.4345
 IR Inten    --      7.8534               151.4410                 5.0871

                     46                     47                     48
                      A                      A                      A
 Frequencies --   1193.5725              1216.6954              1238.9336
 Red. masses --      1.2963                 1.5265                 1.4722
 Frc consts  --      1.0881                 1.3314                 1.3314
 IR Inten    --      5.2204                12.5513                37.8986

                     49                     50                     51
                      A                      A                      A
 Frequencies --   1259.7648              1263.7668              1273.2934
 Red. masses --      1.4425                 1.6689                 1.2863
 Frc consts  --      1.3488                 1.5704                 1.2287
 IR Inten    --     30.2383                 1.2171                19.4202

                     52                     53                     54
                      A                      A                      A
 Frequencies --   1311.5260              1337.4997              1374.5900
 Red. masses --      1.1386                 1.2132                 1.4511
 Frc consts  --      1.1539                 1.2787                 1.6154
 IR Inten    --      8.1427                 1.7929                27.3418

                     55                     56                     57
                      A                      A                      A
 Frequencies --   1397.1528              1403.4686              1417.2004
 Red. masses --      1.5078                 1.3171                 2.5630
 Frc consts  --      1.7341                 1.5286                 3.0330
 IR Inten    --      0.4153                10.2979                 2.0653

                     58                     59                     60
                      A                      A                      A
 Frequencies --   1431.7094              1445.5420              1451.3573
 Red. masses --      1.4793                 1.3257                 1.3211
 Frc consts  --      1.7866                 1.6322                 1.6396
 IR Inten    --      2.2730                 0.5309                11.3673

                     61                     62                     63
                      A                      A                      A
 Frequencies --   1499.4201              1501.3304              1507.4825
 Red. masses --      2.4096                 1.2575                 1.1253
 Frc consts  --      3.1918                 1.6699                 1.5066
 IR Inten    --      7.1160                 5.0676                 3.8831

                     64                     65                     66
                      A                      A                      A
 Frequencies --   1515.5258              1517.8021              1522.3706
 Red. masses --      1.0483                 1.0572                 1.1779
 Frc consts  --      1.4187                 1.4349                 1.6084
 IR Inten    --      4.8485                 7.3451                 6.5351

                     67                     68                     69
                      A                      A                      A
 Frequencies --   1526.7685              1530.3494              1547.1830
 Red. masses --      1.2024                 1.0658                 1.1492
 Frc consts  --      1.6514                 1.4706                 1.6209
 IR Inten    --     11.3592                10.4635                10.2414

                     70                     71                     72
                      A                      A                      A
 Frequencies --   1550.8175              1623.3880              1732.0382
 Red. masses --      1.0933                 5.8820                 1.0567
 Frc consts  --      1.5492                 9.1331                 1.8677
 IR Inten    --      2.9006                 1.5521                13.1279

                     73                     74                     75
                      A                      A                      A
 Frequencies --   2963.5551              2986.4482              2997.1035
 Red. masses --      1.0815                 1.0601                 1.0452
 Frc consts  --      5.5962                 5.5708                 5.5319
 IR Inten    --     52.7869                37.1210                93.7779

                     76                     77                     78
                      A                      A                      A
 Frequencies --   3040.6293              3040.9195              3047.5826
 Red. masses --      1.0463                 1.0987                 1.0646
 Frc consts  --      5.6992                 5.9858                 5.8258
 IR Inten    --     31.2356                63.0595                25.6234

                     79                     80                     81
                      A                      A                      A
 Frequencies --   3064.5721              3078.3913              3093.6382
 Red. masses --      1.0652                 1.0923                 1.1006
 Frc consts  --      5.8943                 6.0985                 6.2059
 IR Inten    --     31.1848                10.5584                29.6917

                     82                     83                     84
                      A                      A                      A
 Frequencies --   3095.1436              3111.1338              3126.9535
 Red. masses --      1.0962                 1.0973                 1.1009
 Frc consts  --      6.1873                 6.2578                 6.3424
 IR Inten    --     24.4409                36.6589                17.9339

                     85                     86                     87
                      A                      A                      A
 Frequencies --   3132.6296              3207.3955              3266.2281
 Red. masses --      1.0977                 1.0909                 1.0965
 Frc consts  --      6.3467                 6.6119                 6.8920
 IR Inten    --     32.4645                12.7553                 2.3080

                     88                     89                     90
                      A                      A                      A
 Frequencies --   3406.0831              3461.3429              3498.0700
 Red. masses --      1.0523                 1.0761                 1.0895
 Frc consts  --      7.1931                 7.5964                 7.8548
 IR Inten    --     39.7679                 1.4193                20.2681

 - Thermochemistry -
 -------------------
 Temperature   298.150 Kelvin.  Pressure   1.00000 Atm.
 Atom     1 has atomic number  6 and mass  12.00000

 Molecular mass:   214.11399 amu.
 Principal axes and moments of inertia in atomic units:
                           1         2         3
     Eigenvalues --  1693.840304920.078455258.25269
           X            0.99969  -0.02352  -0.00856
           Y            0.02352   0.99972   0.00106
           Z            0.00853  -0.00126   0.99996
 This molecule is an asymmetric top.
 Rotational symmetry number  1.
 Warning -- assumption of classical behavior for rotation
           may cause significant error
 Rotational temperatures (Kelvin)      0.05113     0.01760     0.01647
 Rotational constants (GHZ):           1.06547     0.36681     0.34322
 Zero-point vibrational energy     731451.9 (Joules/Mol)
                                  174.82119 (Kcal/Mol)
 Warning -- explicit consideration of  23 degrees of freedom as
           vibrations may cause significant error
 Vibrational temperatures:     48.54    57.23   109.58   120.32   144.18
          (Kelvin)            179.75   208.91   229.44   270.92   316.38
                              356.75   376.11   392.29   427.12   451.13
                              483.73   540.07   555.60   609.21   714.86
                              740.62   791.61   867.26   905.25   990.83
                             1015.28  1062.98  1138.62  1170.49  1203.20
                             1273.04  1293.48  1340.40  1369.69  1404.52
                             1478.31  1492.73  1527.42  1537.50  1542.23
                             1593.80  1618.20  1631.35  1669.75  1712.60
                             1717.28  1750.55  1782.55  1812.52  1818.28
                             1831.99  1886.99  1924.36  1977.73  2010.19
                             2019.28  2039.04  2059.91  2079.81  2088.18
                             2157.33  2160.08  2168.93  2180.50  2183.78
                             2190.35  2196.68  2201.83  2226.05  2231.28
                             2335.69  2492.02  4263.89  4296.83  4312.16
                             4374.79  4375.20  4384.79  4409.24  4429.12
                             4451.06  4453.22  4476.23  4498.99  4507.16
                             4614.73  4699.37  4900.59  4980.10  5032.94

 Zero-point correction=                           0.278595 (Hartree/Particle)
 Thermal correction to Energy=                    0.294263
 Thermal correction to Enthalpy=                  0.295207
 Thermal correction to Gibbs Free Energy=         0.235047
 Sum of electronic and zero-point Energies=           -974.531801
 Sum of electronic and thermal Energies=              -974.516133
 Sum of electronic and thermal Enthalpies=            -974.515189
 Sum of electronic and thermal Free Energies=         -974.575349

                     E (Thermal)             CV                S
                      KCal/Mol        Cal/Mol-Kelvin    Cal/Mol-Kelvin
 Total                  184.653             57.716            126.618
 Electronic               0.000              0.000              0.000
 Translational            0.889              2.981             41.987
 Rotational               0.889              2.981             32.150
 Vibrational            182.875             51.754             52.481
 Vibration     1          0.594              1.983              5.597
 Vibration     2          0.594              1.981              5.270
 Vibration     3          0.599              1.965              3.987
 Vibration     4          0.601              1.960              3.804
 Vibration     5          0.604              1.949              3.450
 Vibration     6          0.610              1.928              3.023
 Vibration     7          0.617              1.908              2.734
 Vibration     8          0.621              1.892              2.556
 Vibration     9          0.633              1.856              2.244
 Vibration    10          0.647              1.811              1.960
 Vibration    11          0.662              1.766              1.745
 Vibration    12          0.669              1.743              1.652
 Vibration    13          0.676              1.724              1.579
 Vibration    14          0.691              1.680              1.435
 Vibration    15          0.701              1.648              1.344
 Vibration    16          0.717              1.603              1.230
 Vibration    17          0.746              1.523              1.058
 Vibration    18          0.755              1.500              1.015
 Vibration    19          0.786              1.419              0.880
 Vibration    20          0.852              1.257              0.666
 Vibration    21          0.870              1.217              0.622
 Vibration    22          0.905              1.139              0.544
 Vibration    23          0.961              1.026              0.445

 Optimization completed.
    -- Stationary point found.
 Normal termination of Gaussian 16 at Thu Dec 10 09:50:45 2020.

 ----------------------------------------------------------------------
 # B3LYP/6-311++G(d,p) empiricaldispersion=gd3bj scf=xqc pop=npa geom=c
 heck
 ----------------------------------------------------------------------

 ---------------------------------------
 CID_105225049_JID_4382_Energie_neutraal
 ---------------------------------------
 Structure from the checkpoint file:  "JID_4382.chk"
 Charge =  0 Multiplicity = 1

 SCF Done:  E(RB3LYP) =  -975.008274799     A.U. after   16 cycles
 Normal termination of Gaussian 16 at Thu Dec 10 09:56:35 2020.

 ----------------------------------------------------------------------
 # B3LYP/6-311++G(d,p) empiricaldispersion=gd3bj scf=xqc pop=npa geom=c
 heck
 ----------------------------------------------------------------------

 -------------------------------------
 CID_105225049_JID_4382_Energie_kation
 -------------------------------------
 Structure from the checkpoint file:  "JID_4382.chk"
 Charge =  1 Multiplicity = 2

 SCF Done:  E(UB3LYP) =  -974.730269731     A.U. after   27 cycles
 Normal termination of Gaussian 16 at Thu Dec 10 10:11:10 2020.
 Gaussian 16:  ES64L-G16RevA.03 25-Dec-2016

 ----------------------------------------------------------------------
 # B3LYP/6-311++G(d,p) empiricaldispersion=gd3bj scf=xqc pop=npa geom=c
 heck
 ----------------------------------------------------------------------

 ------------------------------------
 CID_105225049_JID_4382_Energie_anion
 ------------------------------------
 Structure from the checkpoint file:  "JID_4382.chk"
 Charge = -1 Multiplicity = 2

                         Standard orientation:
 ---------------------------------------------------------------------
 Center     Atomic      Atomic             Coordinates (Angstroms)
 Number     Number       Type             X           Y           Z
 ---------------------------------------------------------------------
      1          6           0       -2.980781    1.965103    0.567319
      2          6           0       -2.595883    0.557911    0.195789
      3          6           0       -1.356981    0.176430   -0.261432
      4         16           0       -1.286319   -1.549700   -0.552194
      5          6           0       -2.938566   -1.744011   -0.056827
      6          6           0       -3.496788   -0.553320    0.307797
      7          6           0       -0.132402    1.024937   -0.466119
      8          6           0        0.629056    1.291073    0.851977
      9          6           0        1.098493    0.075973    1.663137
     10          6           0        2.150311   -0.802998    0.998024
     11          8           0        3.266966    0.004221    0.620872
     12          6           0        4.301149   -0.760687    0.038381
     13          7           0        0.716348    0.363980   -1.475626
     14          7           0        1.843657    1.256193   -1.806033
     15          1           0       -4.020881    2.171932    0.291820
     16          1           0       -2.891907    2.134515    1.648501
     17          1           0       -2.347709    2.705500    0.069109
     18          1           0       -3.403309   -2.720428   -0.081542
     19          1           0       -4.524380   -0.449221    0.641949
     20          1           0       -0.450517    2.016831   -0.830795
     21          1           0        1.481026    1.942328    0.632831
     22          1           0       -0.047143    1.878335    1.484842
     23          1           0        1.506726    0.444688    2.612624
     24          1           0        0.241613   -0.561102    1.912327
     25          1           0        2.486246   -1.578895    1.705860
     26          1           0        1.740771   -1.298288    0.109894
     27          1           0        4.681772   -1.520696    0.738385
     28          1           0        3.961056   -1.272721   -0.875869
     29          1           0        5.112538   -0.073049   -0.215165
     30          1           0        0.153937    0.337780   -2.326963
     31          1           0        2.256077    0.829168   -2.638248
     32          1           0        2.523785    1.051074   -1.068091
 ---------------------------------------------------------------------

 SCF Done:  E(UB3LYP) =  -974.993100050     A.U. after   33 cycles
 SCF Done:  E(UB3LYP) =  -974.993100050     a.u. after    1 cycles

 The electronic state is 2-A.
 Alpha  occ. eigenvalues --  -88.77529 -19.03351 -14.22909 -14.21626 -10.11530
 Alpha  occ. eigenvalues --  -10.11309 -10.11279 -10.10130 -10.09943 -10.08579
 Alpha  occ. eigenvalues --  -10.07830 -10.07596 -10.07072 -10.07050  -7.86113
 Alpha  occ. eigenvalues --   -5.82398  -5.82024  -5.81721  -0.94352  -0.86115
 Alpha  occ. eigenvalues --   -0.78605  -0.71857  -0.68022  -0.67240  -0.62925
 Alpha  occ. eigenvalues --   -0.61729  -0.58324  -0.56959  -0.52546  -0.48245
 Alpha  occ. eigenvalues --   -0.46429  -0.43401  -0.41247  -0.39902  -0.39616
 Alpha  occ. eigenvalues --   -0.37749  -0.36506  -0.36024  -0.35591  -0.33148
 Alpha  occ. eigenvalues --   -0.32487  -0.31943  -0.30926  -0.29527  -0.29095
 Alpha  occ. eigenvalues --   -0.28588  -0.26985  -0.26754  -0.26197  -0.25151
 Alpha  occ. eigenvalues --   -0.24191  -0.23823  -0.22504  -0.21943  -0.17235
 Alpha  occ. eigenvalues --   -0.15162  -0.13256  -0.10958   0.04299
 Alpha virt. eigenvalues --    0.05753   0.06734   0.07131   0.07667   0.07830
 Alpha virt. eigenvalues --    0.08724   0.08988   0.09605   0.10481   0.10760
 Alpha virt. eigenvalues --    0.11090   0.11359   0.11709   0.12635   0.13112

  Beta  occ. eigenvalues --  -88.77527 -19.03341 -14.22893 -14.21598 -10.11486
  Beta  occ. eigenvalues --  -10.11299 -10.11274 -10.10123 -10.09932 -10.08578
  Beta  occ. eigenvalues --  -10.07817 -10.07563 -10.07064 -10.07041  -7.86110
  Beta  occ. eigenvalues --   -5.82396  -5.82022  -5.81718  -0.94338  -0.86084
  Beta  occ. eigenvalues --   -0.78589  -0.71824  -0.67991  -0.67214  -0.62885
  Beta  occ. eigenvalues --   -0.61695  -0.58270  -0.56898  -0.52504  -0.48214
  Beta  occ. eigenvalues --   -0.46396  -0.43356  -0.41215  -0.39867  -0.39566
  Beta  occ. eigenvalues --   -0.37714  -0.36476  -0.35982  -0.35555  -0.33112
  Beta  occ. eigenvalues --   -0.32453  -0.31908  -0.30894  -0.29501  -0.29062
  Beta  occ. eigenvalues --   -0.28559  -0.26961  -0.26731  -0.26170  -0.25122
  Beta  occ. eigenvalues --   -0.24166  -0.23802  -0.22467  -0.21919  -0.17215
  Beta  occ. eigenvalues --   -0.15144  -0.13225  -0.10923
  Beta virt. eigenvalues --    0.06322   0.06874   0.07158   0.07594   0.08034
  Beta virt. eigenvalues --    0.08353   0.09124   0.09447   0.10035   0.10863
  Beta virt. eigenvalues --    0.11043   0.11307   0.11679   0.11921   0.12760

 Mulliken charges and spin densities:
               1          2
     1  C    2.152070  -2.996097
     2  C   -1.554152   1.755917
     3  C   -1.605285   1.861321
     4  S    0.325620  -0.823145
     5  C   -0.500149   0.315422
     6  C    0.989911  -0.906865
     7  C    1.572989  -1.377998
     8  C   -0.476312   0.014859
     9  C    0.038068  -0.565953
    10  C   -0.637472   0.222221
    11  O   -0.199147   0.039391
    12  C    0.919777  -1.158294
    13  N   -0.403544   0.245865
    14  N   -0.390196  -0.104460
    15  H   -0.169691   0.311652
    16  H   -0.166996   0.345341
    17  H   -0.030913   0.160558
    18  H   -0.304491   0.535216
    19  H   -0.563646   0.732049
    20  H    0.085941   0.155690
    21  H    0.073062   0.133241
    22  H    0.087495   0.047709
    23  H   -0.023003   0.203672
    24  H    0.121120   0.016868
    25  H   -0.231053   0.373393
    26  H    0.500936  -0.323252
    27  H   -0.348909   0.474030
    28  H   -0.330943   0.469997
    29  H   -0.298182   0.442573
    30  H    0.008059   0.244945
    31  H   -0.092971   0.345788
    32  H    0.452007  -0.191655
 Sum of Mulliken charges =  -1.00000   1.00000

 Dipole moment (field-independent basis, Debye):
    X=             -1.4194    Y=             -0.4969    Z=              0.7408  Tot=              1.6765
 Quadrupole moment (field-independent basis, Debye-Ang):
   XX=           -185.7895   YY=           -132.3497   ZZ=           -132.2793
   XY=              7.0242   XZ=              6.1853   YZ=              1.0789

 Summary of Natural Population Analysis:

                                       Natural Population
                Natural  -----------------------------------------------
    Atom  No    Charge         Core      Valence    Rydberg      Total
 -----------------------------------------------------------------------
      C    1   -0.29138      0.99963     2.28611    0.00564     3.29138
      C    2   -0.04611      0.99942     2.03505    0.01164     3.04611
      C    3   -0.09859      0.99940     2.08404    0.01515     3.09859
      S    4    0.21202      4.99941     2.76806    0.02051     7.78798
      C    5   -0.19733      0.99954     2.18690    0.01090     3.19733
      C    6   -0.12195      0.99949     2.11131    0.01115     3.12195
      C    7   -0.02482      0.99952     2.01024    0.01505     3.02482
      C    8   -0.19161      0.99959     2.18277    0.00925     3.19161
      C    9   -0.20199      0.99961     2.19307    0.00930     3.20199
      C   10   -0.01343      0.99958     2.00217    0.01168     3.01343
      O   11   -0.30703      0.99988     3.29768    0.00947     4.30703
      C   12   -0.09923      0.99962     2.08967    0.00994     3.09923
      N   13   -0.26197      0.99974     2.74787    0.01437     3.76197
      N   14   -0.33953      0.99977     2.82790    0.01186     3.83953
      H   15    0.10463      0.00000     0.39429    0.00109     0.39537
      H   16    0.10554      0.00000     0.39317    0.00129     0.39446
      H   17    0.10415      0.00000     0.39467    0.00118     0.39585
      H   18    0.10818      0.00000     0.39088    0.00094     0.39182
      H   19    0.10598      0.00000     0.39273    0.00129     0.39402
      H   20    0.09716      0.00000     0.40050    0.00235     0.40284
      H   21    0.10592      0.00000     0.39234    0.00174     0.39408
      H   22    0.10248      0.00000     0.39635    0.00117     0.39752
      H   23    0.09854      0.00000     0.40032    0.00114     0.40146
      H   24    0.10365      0.00000     0.39506    0.00129     0.39635
      H   25    0.07855      0.00000     0.42018    0.00127     0.42145
      H   26    0.09176      0.00000     0.40602    0.00222     0.40824
      H   27    0.07983      0.00000     0.41830    0.00186     0.42017
      H   28    0.08168      0.00000     0.41646    0.00186     0.41832
      H   29    0.09027      0.00000     0.40841    0.00132     0.40973
      H   30    0.17159      0.00000     0.32592    0.00250     0.32841
      H   31    0.17216      0.00000     0.32551    0.00232     0.32784
      H   32    0.18087      0.00000     0.31585    0.00328     0.31913
 =======================================================================
   * Total *    0.00000     17.99419    39.80980    0.19600    58.00000

 Normal termination of Gaussian 16 at Thu Dec 10 10:28:24 2020.
