 Gaussian 16, Revision A.03,

 -----------------------------------------------------------
 # opt freq B3LYP/6-31G(d) empiricaldispersion=gd3bj scf=xqc
 -----------------------------------------------------------

 -------------------------------
 CID_137774033_JID_3204_neutraal
 -------------------------------
 Symbolic Z-matrix:
 Charge =  0 Multiplicity = 1

 SCF Done:  E(RB3LYP) =  -607.726331849     A.U. after   15 cycles
 SCF Done:  E(RB3LYP) =  -607.728707599     A.U. after   12 cycles
 SCF Done:  E(RB3LYP) =  -607.729022561     A.U. after   12 cycles
 SCF Done:  E(RB3LYP) =  -607.729132047     A.U. after   11 cycles
 SCF Done:  E(RB3LYP) =  -607.729173262     A.U. after   11 cycles
 SCF Done:  E(RB3LYP) =  -607.729212016     A.U. after   10 cycles
 SCF Done:  E(RB3LYP) =  -607.729232847     A.U. after   11 cycles
 SCF Done:  E(RB3LYP) =  -607.729238546     A.U. after   10 cycles
 SCF Done:  E(RB3LYP) =  -607.729241660     A.U. after   10 cycles
 SCF Done:  E(RB3LYP) =  -607.729243163     A.U. after   10 cycles
 SCF Done:  E(RB3LYP) =  -607.729243804     A.U. after    8 cycles
 SCF Done:  E(RB3LYP) =  -607.729244138     A.U. after    8 cycles
 Optimization completed.
    -- Stationary point found.
 Normal termination of Gaussian 16 at Wed Dec  9 22:27:02 2020.

 --------------------------------------------------------------------
 #N Geom=AllCheck Guess=TCheck SCRF=Check GenChk RB3LYP/6-31G(d) Freq
 --------------------------------------------------------------------

 Structure from the checkpoint file:  "JID_3204.chk"
 -------------------------------
 CID_137774033_JID_3204_neutraal
 -------------------------------
 Charge =  0 Multiplicity = 1

 SCF Done:  E(RB3LYP) =  -607.729244138     A.U. after    1 cycles

  Exact polarizability: 169.398  -1.859 119.245   0.001   0.001  45.661
 Approx polarizability: 245.409 -12.051 220.099   0.000   0.010  71.275

                      1                      2                      3
                      A                      A                      A
 Frequencies --     36.0153                79.6192               151.1036
 Red. masses --      7.6463                 4.8965                 5.7214
 Frc consts  --      0.0058                 0.0183                 0.0770
 IR Inten    --      6.7456                 0.4061                 2.6643

                      4                      5                      6
                      A                      A                      A
 Frequencies --    170.0449               182.0533               247.0363
 Red. masses --      2.1643                 1.3513                 3.8182
 Frc consts  --      0.0369                 0.0264                 0.1373
 IR Inten    --      2.9052                 0.5350                 0.5563

                      7                      8                      9
                      A                      A                      A
 Frequencies --    315.9028               326.9444               327.0868
 Red. masses --      6.0197                 5.2748                 3.4447
 Frc consts  --      0.3539                 0.3322                 0.2171
 IR Inten    --      0.1640                 0.3657                 1.7771

                     10                     11                     12
                      A                      A                      A
 Frequencies --    354.2961               373.8776               498.4809
 Red. masses --      1.1074                 9.0449                 5.0139
 Frc consts  --      0.0819                 0.7449                 0.7340
 IR Inten    --     95.3654                 1.3080                 5.9499

                     13                     14                     15
                      A                      A                      A
 Frequencies --    528.3789               556.1199               570.2870
 Red. masses --      4.4273                 3.6733                 4.1838
 Frc consts  --      0.7282                 0.6693                 0.8017
 IR Inten    --      5.0400                 0.6498                 9.8389

                     16                     17                     18
                      A                      A                      A
 Frequencies --    640.4419               652.1268               717.3579
 Red. masses --      6.9143                 4.3840                 7.4791
 Frc consts  --      1.6709                 1.0985                 2.2676
 IR Inten    --      7.8937                10.6388                 1.6653

                     19                     20                     21
                      A                      A                      A
 Frequencies --    753.7669               796.7191               822.3815
 Red. masses --      2.6538                 1.6293                 1.5454
 Frc consts  --      0.8884                 0.6093                 0.6158
 IR Inten    --     32.0732                 8.6332                10.1122

                     22                     23                     24
                      A                      A                      A
 Frequencies --    840.0882               863.1111               924.4873
 Red. masses --      6.4577                 4.2117                 1.3429
 Frc consts  --      2.6852                 1.8486                 0.6762
 IR Inten    --     14.3015                 3.9404                 0.0335

                     25                     26                     27
                      A                      A                      A
 Frequencies --    954.3578               965.9166               976.9702
 Red. masses --      6.7828                 1.2678                11.4232
 Frc consts  --      3.6399                 0.6969                 6.4240
 IR Inten    --     25.4750                 0.7561                 5.7781

                     28                     29                     30
                      A                      A                      A
 Frequencies --   1006.5970              1022.6269              1072.6747
 Red. masses --      5.0008                 1.8944                 1.4674
 Frc consts  --      2.9854                 1.1672                 0.9948
 IR Inten    --     12.0643                 0.5790                 1.7677

                     31                     32                     33
                      A                      A                      A
 Frequencies --   1119.6101              1128.8487              1154.3962
 Red. masses --      5.1438                 1.8427                 2.6170
 Frc consts  --      3.7990                 1.3835                 2.0548
 IR Inten    --     56.5771                14.0449                 0.7766

                     34                     35                     36
                      A                      A                      A
 Frequencies --   1202.8693              1249.5031              1266.1002
 Red. masses --      1.1702                 1.9888                 2.1454
 Frc consts  --      0.9976                 1.8294                 2.0263
 IR Inten    --      3.3527                78.2272                 1.6730

                     37                     38                     39
                      A                      A                      A
 Frequencies --   1305.3430              1317.9559              1353.7307
 Red. masses --      2.4266                 2.2899                 3.7414
 Frc consts  --      2.4361                 2.3435                 4.0397
 IR Inten    --     31.4100                56.6353                 6.0541

                     40                     41                     42
                      A                      A                      A
 Frequencies --   1394.9694              1443.9488              1503.1776
 Red. masses --      2.9191                 1.2911                 3.0548
 Frc consts  --      3.3468                 1.5861                 4.0668
 IR Inten    --     35.3967                 7.4401                83.5118

                     43                     44                     45
                      A                      A                      A
 Frequencies --   1510.3680              1521.3092              1544.1049
 Red. masses --      1.8368                 1.0423                 1.4460
 Frc consts  --      2.4688                 1.4212                 2.0312
 IR Inten    --      4.8004                 7.5815                35.2066

                     46                     47                     48
                      A                      A                      A
 Frequencies --   1563.3784              1596.6668              1659.7430
 Red. masses --      6.0766                 8.0459                 5.7111
 Frc consts  --      8.7506                12.0851                 9.2694
 IR Inten    --     32.0606                56.6147                31.8127

                     49                     50                     51
                      A                      A                      A
 Frequencies --   1667.0674              3021.7315              3066.2847
 Red. masses --      6.3255                 1.0418                 1.1012
 Frc consts  --     10.3575                 5.6049                 6.1003
 IR Inten    --     20.2647                28.5224                20.8497

                     52                     53                     54
                      A                      A                      A
 Frequencies --   3136.5126              3186.6693              3211.2823
 Red. masses --      1.0952                 1.0884                 1.0915
 Frc consts  --      6.3481                 6.5119                 6.6320
 IR Inten    --      9.8089                 9.8687                15.1053

                     55                     56                     57
                      A                      A                      A
 Frequencies --   3233.8929              3311.2111              3759.8041
 Red. masses --      1.0936                 1.0999                 1.0652
 Frc consts  --      6.7384                 7.1052                 8.8719
 IR Inten    --      5.0606                 0.0466                58.9373

 - Thermochemistry -
 -------------------
 Temperature   298.150 Kelvin.  Pressure   1.00000 Atm.
 Atom     1 has atomic number  6 and mass  12.00000

 Molecular mass:   176.05858 amu.
 Principal axes and moments of inertia in atomic units:
                           1         2         3
     Eigenvalues --   977.741143255.131684221.54078
           X            0.99977   0.02138   0.00000
           Y           -0.02138   0.99977  -0.00001
           Z           -0.00000   0.00001   1.00000
 This molecule is an asymmetric top.
 Rotational symmetry number  1.
 Warning -- assumption of classical behavior for rotation
           may cause significant error
 Rotational temperatures (Kelvin)      0.08859     0.02661     0.02052
 Rotational constants (GHZ):           1.84583     0.55443     0.42751
 Zero-point vibrational energy     419634.1 (Joules/Mol)
                                  100.29497 (Kcal/Mol)
 Warning -- explicit consideration of  15 degrees of freedom as
           vibrations may cause significant error
 Vibrational temperatures:     51.82   114.55   217.40   244.66   261.93
          (Kelvin)            355.43   454.51   470.40   470.60   509.75
                              537.93   717.20   760.22   800.13   820.52
                              921.45   938.26  1032.12  1084.50  1146.30
                             1183.22  1208.70  1241.82  1330.13  1373.11
                             1389.74  1405.64  1448.27  1471.33  1543.34
                             1610.87  1624.16  1660.92  1730.66  1797.76
                             1821.64  1878.10  1896.24  1947.72  2007.05
                             2077.52  2162.74  2173.08  2188.82  2221.62
                             2249.35  2297.25  2388.00  2398.54  4347.60
                             4411.70  4512.74  4584.91  4620.32  4652.85
                             4764.09  5409.52

 Zero-point correction=                           0.159830 (Hartree/Particle)
 Thermal correction to Energy=                    0.170500
 Thermal correction to Enthalpy=                  0.171444
 Thermal correction to Gibbs Free Energy=         0.122768
 Sum of electronic and zero-point Energies=           -607.569414
 Sum of electronic and thermal Energies=              -607.558744
 Sum of electronic and thermal Enthalpies=            -607.557800
 Sum of electronic and thermal Free Energies=         -607.606476

                     E (Thermal)             CV                S
                      KCal/Mol        Cal/Mol-Kelvin    Cal/Mol-Kelvin
 Total                  106.990             40.896            102.448
 Electronic               0.000              0.000              0.000
 Translational            0.889              2.981             41.404
 Rotational               0.889              2.981             30.975
 Vibrational            105.213             34.934             30.069
 Vibration     1          0.594              1.982              5.467
 Vibration     2          0.600              1.963              3.900
 Vibration     3          0.619              1.901              2.658
 Vibration     4          0.625              1.879              2.435
 Vibration     5          0.630              1.864              2.307
 Vibration     6          0.661              1.768              1.752
 Vibration     7          0.703              1.643              1.331
 Vibration     8          0.711              1.622              1.275
 Vibration     9          0.711              1.621              1.274
 Vibration    10          0.730              1.566              1.147
 Vibration    11          0.745              1.526              1.064
 Vibration    12          0.854              1.253              0.662
 Vibration    13          0.883              1.187              0.591
 Vibration    14          0.912              1.126              0.532
 Vibration    15          0.926              1.096              0.504

                           ! Non-Optimized Parameters !
 Normal termination of Gaussian 16 at Wed Dec  9 22:31:57 2020.

 ----------------------------------------------------------------------
 # B3LYP/6-311++G(d,p) empiricaldispersion=gd3bj scf=xqc pop=npa geom=c
 heck
 ----------------------------------------------------------------------

 ---------------------------------------
 CID_137774033_JID_3204_Energie_neutraal
 ---------------------------------------
 Structure from the checkpoint file:  "JID_3204.chk"
 Charge =  0 Multiplicity = 1

 SCF Done:  E(RB3LYP) =  -607.897581760     A.U. after   14 cycles
 Normal termination of Gaussian 16 at Wed Dec  9 22:33:57 2020.

 ----------------------------------------------------------------------
 # B3LYP/6-311++G(d,p) empiricaldispersion=gd3bj scf=xqc pop=npa geom=c
 heck
 ----------------------------------------------------------------------

 -------------------------------------
 CID_137774033_JID_3204_Energie_kation
 -------------------------------------
 Structure from the checkpoint file:  "JID_3204.chk"
 Charge =  1 Multiplicity = 2

 SCF Done:  E(UB3LYP) =  -607.593000837     A.U. after   22 cycles
 Normal termination of Gaussian 16 at Wed Dec  9 22:38:21 2020.
 Gaussian 16:  ES64L-G16RevA.03 25-Dec-2016

 ----------------------------------------------------------------------
 # B3LYP/6-311++G(d,p) empiricaldispersion=gd3bj scf=xqc pop=npa geom=c
 heck
 ----------------------------------------------------------------------

 ------------------------------------
 CID_137774033_JID_3204_Energie_anion
 ------------------------------------
 Structure from the checkpoint file:  "JID_3204.chk"
 Charge = -1 Multiplicity = 2

                         Standard orientation:
 ---------------------------------------------------------------------
 Center     Atomic      Atomic             Coordinates (Angstroms)
 Number     Number       Type             X           Y           Z
 ---------------------------------------------------------------------
      1          6           0       -3.437342   -1.257377    0.000067
      2          6           0       -2.350244   -0.210359   -0.000051
      3          6           0       -0.998741   -0.607232    0.000108
      4          6           0        0.031714    0.356494   -0.000020
      5          6           0       -0.315406    1.718584   -0.000124
      6          6           0       -1.644087    2.117191   -0.000149
      7          6           0       -2.651182    1.150698   -0.000139
      8          6           0        1.438242   -0.022182   -0.000048
      9          7           0        2.016704   -1.190275   -0.000672
     10          7           0        3.397689   -0.955667   -0.000426
     11          6           0        3.541511    0.326646    0.000298
     12          8           0        2.363769    0.999643    0.000539
     13          8           0       -0.648179   -1.917236    0.000339
     14          1           0       -3.387476   -1.905842   -0.886305
     15          1           0       -3.389333   -1.903653    0.888128
     16          1           0       -4.424747   -0.788868   -0.001641
     17          1           0        0.477380    2.457456   -0.000185
     18          1           0       -1.897182    3.172356   -0.000230
     19          1           0       -3.694738    1.454754   -0.000260
     20          1           0        4.453120    0.904216    0.000695
     21          1           0       -1.449290   -2.462857    0.000796
 ---------------------------------------------------------------------

 SCF Done:  E(UB3LYP) =  -607.897233556     A.U. after   27 cycles

 The electronic state is 2-A.
 Alpha  occ. eigenvalues --  -19.03911 -19.01452 -14.18400 -14.15549 -10.10081
 Alpha  occ. eigenvalues --  -10.08993 -10.08401 -10.06018 -10.02967 -10.02087
 Alpha  occ. eigenvalues --  -10.01964 -10.01247 -10.01146  -0.99275  -0.92913
 Alpha  occ. eigenvalues --   -0.81446  -0.71081  -0.67864  -0.63690  -0.59536
 Alpha  occ. eigenvalues --   -0.56076  -0.50361  -0.48677  -0.46198  -0.43091
 Alpha  occ. eigenvalues --   -0.40112  -0.38076  -0.34019  -0.33599  -0.32928
 Alpha  occ. eigenvalues --   -0.31426  -0.29815  -0.29070  -0.27257  -0.26417
 Alpha  occ. eigenvalues --   -0.26267  -0.25227  -0.21286  -0.20174  -0.19928
 Alpha  occ. eigenvalues --   -0.18815  -0.16215  -0.15272  -0.11787  -0.09674
 Alpha  occ. eigenvalues --   -0.07829   0.06018
 Alpha virt. eigenvalues --    0.07855   0.09521   0.09828   0.11086   0.11711
 Alpha virt. eigenvalues --    0.12551   0.13924   0.14075   0.14244   0.14868
 Alpha virt. eigenvalues --    0.15954   0.16877   0.17052   0.18109   0.18146

  Beta  occ. eigenvalues --  -19.03664 -19.01425 -14.18503 -14.15263 -10.09884
  Beta  occ. eigenvalues --  -10.08808 -10.08304 -10.06022 -10.02917 -10.02070
  Beta  occ. eigenvalues --  -10.01912 -10.00997 -10.00778  -0.98901  -0.92833
  Beta  occ. eigenvalues --   -0.81153  -0.70672  -0.67467  -0.63481  -0.59146
  Beta  occ. eigenvalues --   -0.55747  -0.50065  -0.48049  -0.46116  -0.42755
  Beta  occ. eigenvalues --   -0.39930  -0.37854  -0.33815  -0.32741  -0.32537
  Beta  occ. eigenvalues --   -0.31239  -0.29625  -0.28870  -0.27178  -0.26201
  Beta  occ. eigenvalues --   -0.25830  -0.25082  -0.21150  -0.20009  -0.19026
  Beta  occ. eigenvalues --   -0.17808  -0.16173  -0.13700  -0.11472  -0.08356
  Beta  occ. eigenvalues --   -0.06614
  Beta virt. eigenvalues --    0.07771   0.09455   0.09766   0.10985   0.11243
  Beta virt. eigenvalues --    0.12161   0.12474   0.13974   0.14601   0.14662
  Beta virt. eigenvalues --    0.14770   0.15879   0.16794   0.17290   0.18094

 Mulliken charges and spin densities:
               1          2
     1  C   -0.587299   0.029022
     2  C    0.669151  -0.036148
     3  C   -0.369468   0.075546
     4  C    0.431470   0.074028
     5  C   -0.588237   0.224569
     6  C   -0.516631  -0.078917
     7  C   -0.587357   0.354376
     8  C   -0.068022   0.084390
     9  N   -0.215064   0.130559
    10  N   -0.128938  -0.061102
    11  C    0.114294   0.176720
    12  O   -0.088963   0.045900
    13  O   -0.153706   0.011292
    14  H    0.120894   0.009338
    15  H    0.121124   0.009457
    16  H    0.160152  -0.000881
    17  H    0.123442  -0.014844
    18  H    0.103249   0.006018
    19  H    0.054186  -0.027904
    20  H    0.132004  -0.011655
    21  H    0.273719   0.000235
 Sum of Mulliken charges =  -1.00000   1.00000

 Dipole moment (field-independent basis, Debye):
    X=             -3.3569    Y=              1.0229    Z=              0.0020  Tot=              3.5092
 Quadrupole moment (field-independent basis, Debye-Ang):
   XX=           -105.7128   YY=            -90.1099   ZZ=            -84.5316
   XY=             16.9237   XZ=              0.0048   YZ=             -0.0051

 Summary of Natural Population Analysis:

                                       Natural Population
                Natural  -----------------------------------------------
    Atom  No    Charge         Core      Valence    Rydberg      Total
 -----------------------------------------------------------------------
      C    1   -0.30044      0.99965     2.29498    0.00582     3.30044
      C    2   -0.06207      0.99949     2.05437    0.00821     3.06207
      C    3    0.19401      0.99935     1.79462    0.01202     2.80599
      C    4   -0.05216      0.99935     2.04324    0.00956     3.05216
      C    5   -0.04162      0.99958     2.03333    0.00870     3.04162
      C    6   -0.14640      0.99957     2.13739    0.00943     3.14640
      C    7   -0.02926      0.99954     2.01991    0.00981     3.02926
      C    8    0.27601      0.99958     1.70591    0.01849     2.72399
      N    9   -0.13164      0.99967     2.61834    0.01363     3.63164
      N   10   -0.19501      0.99972     2.68035    0.01494     3.69501
      C   11    0.18423      0.99967     1.79623    0.01987     2.81577
      O   12   -0.23295      0.99987     3.22207    0.01101     4.23295
      O   13   -0.32744      0.99987     3.32038    0.00719     4.32744
      H   14    0.09355      0.00000     0.40493    0.00152     0.40645
      H   15    0.09358      0.00000     0.40491    0.00152     0.40642
      H   16    0.10271      0.00000     0.39645    0.00084     0.39729
      H   17    0.09677      0.00000     0.40220    0.00103     0.40323
      H   18    0.08913      0.00000     0.40908    0.00179     0.41087
      H   19    0.08257      0.00000     0.41601    0.00142     0.41743
      H   20    0.07926      0.00000     0.41953    0.00121     0.42074
      H   21    0.22717      0.00000     0.27035    0.00248     0.27283
 =======================================================================
   * Total *    0.00000     12.99491    32.84460    0.16049    46.00000

 Normal termination of Gaussian 16 at Wed Dec  9 22:43:49 2020.
