 Gaussian 16, Revision A.03,

 -----------------------------------------------------------
 # opt freq B3LYP/6-31G(d) empiricaldispersion=gd3bj scf=xqc
 -----------------------------------------------------------

 -------------------------------
 CID_130612478_JID_1908_neutraal
 -------------------------------
 Symbolic Z-matrix:
 Charge =  0 Multiplicity = 1

 SCF Done:  E(RB3LYP) =  -871.689788571     A.U. after   15 cycles
 SCF Done:  E(RB3LYP) =  -871.696293353     A.U. after   13 cycles
 SCF Done:  E(RB3LYP) =  -871.697036220     A.U. after   13 cycles
 SCF Done:  E(RB3LYP) =  -871.698579693     A.U. after   12 cycles
 SCF Done:  E(RB3LYP) =  -871.699234405     A.U. after   12 cycles
 SCF Done:  E(RB3LYP) =  -871.699676332     A.U. after   12 cycles
 SCF Done:  E(RB3LYP) =  -871.699896173     A.U. after   12 cycles
 SCF Done:  E(RB3LYP) =  -871.700013588     A.U. after   11 cycles
 SCF Done:  E(RB3LYP) =  -871.700055892     A.U. after   11 cycles
 SCF Done:  E(RB3LYP) =  -871.700066372     A.U. after   10 cycles
 SCF Done:  E(RB3LYP) =  -871.700069160     A.U. after    9 cycles
 SCF Done:  E(RB3LYP) =  -871.700070166     A.U. after    8 cycles
 SCF Done:  E(RB3LYP) =  -871.700070451     A.U. after    8 cycles
 Optimization completed.
    -- Stationary point found.
 Normal termination of Gaussian 16 at Tue Dec  8 21:35:12 2020.

 --------------------------------------------------------------------
 #N Geom=AllCheck Guess=TCheck SCRF=Check GenChk RB3LYP/6-31G(d) Freq
 --------------------------------------------------------------------

 Structure from the checkpoint file:  "JID_1908.chk"
 -------------------------------
 CID_130612478_JID_1908_neutraal
 -------------------------------
 Charge =  0 Multiplicity = 1

 SCF Done:  E(RB3LYP) =  -871.700070451     A.U. after    1 cycles

  Exact polarizability: 154.907   9.969 108.741  -2.279   6.012  57.367
 Approx polarizability: 241.189  29.564 207.760  -9.054  12.017  90.439

                      1                      2                      3
                      A                      A                      A
 Frequencies --     42.3773                80.4797               104.1978
 Red. masses --      3.8896                 7.2569                 3.8676
 Frc consts  --      0.0041                 0.0277                 0.0247
 IR Inten    --      1.4003                 0.6813                 4.4580

                      4                      5                      6
                      A                      A                      A
 Frequencies --    120.6540               191.5930               213.8419
 Red. masses --      5.1735                 4.2522                 3.3154
 Frc consts  --      0.0444                 0.0920                 0.0893
 IR Inten    --      0.3639                 0.5820                 0.1874

                      7                      8                      9
                      A                      A                      A
 Frequencies --    274.2946               298.0641               327.7789
 Red. masses --      1.1775                 4.1453                 3.1676
 Frc consts  --      0.0522                 0.2170                 0.2005
 IR Inten    --      0.4080                 4.1569                14.9142

                     10                     11                     12
                      A                      A                      A
 Frequencies --    371.9626               401.5533               425.5223
 Red. masses --      1.4059                 2.4924                 2.2858
 Frc consts  --      0.1146                 0.2368                 0.2439
 IR Inten    --     96.3261                52.5188                 2.4351

                     13                     14                     15
                      A                      A                      A
 Frequencies --    461.9678               492.2035               560.7176
 Red. masses --      2.3065                 4.4518                 4.7296
 Frc consts  --      0.2900                 0.6354                 0.8761
 IR Inten    --     11.3744                18.7776                 2.9975

                     16                     17                     18
                      A                      A                      A
 Frequencies --    592.2497               623.3054               655.3920
 Red. masses --      4.4553                 5.6717                 4.8782
 Frc consts  --      0.9207                 1.2983                 1.2346
 IR Inten    --     20.5254                17.2853                 2.8534

                     19                     20                     21
                      A                      A                      A
 Frequencies --    694.7213               730.4293               761.0748
 Red. masses --      2.9690                 2.5502                 2.8211
 Frc consts  --      0.8443                 0.8016                 0.9628
 IR Inten    --     62.2274               130.1047                96.9921

                     22                     23                     24
                      A                      A                      A
 Frequencies --    806.2377               895.9904               902.5901
 Red. masses --      5.2255                 1.3030                 1.3329
 Frc consts  --      2.0013                 0.6163                 0.6398
 IR Inten    --     43.4419                 6.0450                13.7749

                     25                     26                     27
                      A                      A                      A
 Frequencies --    911.8058              1027.5421              1075.5340
 Red. masses --      2.4468                 1.7646                 1.7729
 Frc consts  --      1.1986                 1.0977                 1.2083
 IR Inten    --     15.8707                17.8065                52.6145

                     28                     29                     30
                      A                      A                      A
 Frequencies --   1091.5552              1115.1700              1172.2486
 Red. masses --      2.9478                 4.2585                 2.4753
 Frc consts  --      2.0694                 3.1202                 2.0041
 IR Inten    --     58.1300                24.5714                28.9092

                     31                     32                     33
                      A                      A                      A
 Frequencies --   1194.0796              1256.2710              1304.1178
 Red. masses --      2.3165                 3.2945                 1.6265
 Frc consts  --      1.9460                 3.0635                 1.6298
 IR Inten    --     33.8449                24.5747                 9.6879

                     34                     35                     36
                      A                      A                      A
 Frequencies --   1318.7020              1332.2976              1358.0069
 Red. masses --      1.6741                 1.4859                 1.5194
 Frc consts  --      1.7152                 1.5540                 1.6510
 IR Inten    --      2.3546                 7.3359                46.5403

                     37                     38                     39
                      A                      A                      A
 Frequencies --   1384.4728              1433.5034              1436.1391
 Red. masses --      1.4808                 1.1980                 1.2495
 Frc consts  --      1.6723                 1.4504                 1.5184
 IR Inten    --     30.6589                40.3946                49.5378

                     40                     41                     42
                      A                      A                      A
 Frequencies --   1485.4910              1519.4129              1523.5298
 Red. masses --      6.3359                 1.0614                 1.0474
 Frc consts  --      8.2375                 1.4438                 1.4323
 IR Inten    --     10.2058                 4.4565                 7.8499

                     43                     44                     45
                      A                      A                      A
 Frequencies --   1561.5595              1672.2313              1712.4609
 Red. masses --      5.8356                 5.5523                 1.1596
 Frc consts  --      8.3841                 9.1478                 2.0036
 IR Inten    --     13.2044                23.2269                23.1149

                     46                     47                     48
                      A                      A                      A
 Frequencies --   3050.6095              3055.4058              3119.2223
 Red. masses --      1.0469                 1.0731                 1.1018
 Frc consts  --      5.7402                 5.9026                 6.3159
 IR Inten    --      6.9773                20.4474                23.6974

                     49                     50                     51
                      A                      A                      A
 Frequencies --   3143.0984              3196.0578              3247.0678
 Red. masses --      1.1026                 1.0891                 1.0931
 Frc consts  --      6.4176                 6.5548                 6.7905
 IR Inten    --     28.3377                 6.5314                 4.5880

                     52                     53                     54
                      A                      A                      A
 Frequencies --   3426.3476              3596.2364              3714.2525
 Red. masses --      1.0544                 1.0900                 1.0657
 Frc consts  --      7.2934                 8.3058                 8.6623
 IR Inten    --      0.9679                19.4643                11.6876

 - Thermochemistry -
 -------------------
 Temperature   298.150 Kelvin.  Pressure   1.00000 Atm.
 Atom     1 has atomic number  6 and mass  12.00000

 Molecular mass:   171.04663 amu.
 Principal axes and moments of inertia in atomic units:
                           1         2         3
     Eigenvalues --   772.233053296.298803975.95249
           X            0.99994  -0.00803   0.00741
           Y            0.00799   0.99995   0.00517
           Z           -0.00745  -0.00511   0.99996
 This molecule is an asymmetric top.
 Rotational symmetry number  1.
 Warning -- assumption of classical behavior for rotation
           may cause significant error
 Rotational temperatures (Kelvin)      0.11216     0.02628     0.02178
 Rotational constants (GHZ):           2.33704     0.54751     0.45391
 Zero-point vibrational energy     409503.4 (Joules/Mol)
                                   97.87367 (Kcal/Mol)
 Warning -- explicit consideration of  16 degrees of freedom as
           vibrations may cause significant error
 Vibrational temperatures:     60.97   115.79   149.92   173.59   275.66
          (Kelvin)            307.67   394.65   428.85   471.60   535.17
                              577.75   612.23   664.67   708.17   806.75
                              852.12   896.80   942.96   999.55  1050.92
                             1095.02  1160.00  1289.13  1298.63  1311.89
                             1478.40  1547.45  1570.50  1604.48  1686.60
                             1718.01  1807.49  1876.33  1897.32  1916.88
                             1953.87  1991.95  2062.49  2066.28  2137.29
                             2186.10  2192.02  2246.74  2405.97  2463.85
                             4389.15  4396.05  4487.87  4522.22  4598.41
                             4671.81  4929.75  5174.18  5343.98

 Zero-point correction=                           0.155972 (Hartree/Particle)
 Thermal correction to Energy=                    0.167052
 Thermal correction to Enthalpy=                  0.167997
 Thermal correction to Gibbs Free Energy=         0.118521
 Sum of electronic and zero-point Energies=           -871.544099
 Sum of electronic and thermal Energies=              -871.533018
 Sum of electronic and thermal Enthalpies=            -871.532074
 Sum of electronic and thermal Free Energies=         -871.581550

                     E (Thermal)             CV                S
                      KCal/Mol        Cal/Mol-Kelvin    Cal/Mol-Kelvin
 Total                  104.827             41.006            104.131
 Electronic               0.000              0.000              0.000
 Translational            0.889              2.981             41.318
 Rotational               0.889              2.981             30.693
 Vibrational            103.050             35.044             32.119
 Vibration     1          0.595              1.980              5.145
 Vibration     2          0.600              1.962              3.879
 Vibration     3          0.605              1.946              3.374
 Vibration     4          0.609              1.932              3.090
 Vibration     5          0.634              1.851              2.212
 Vibration     6          0.644              1.820              2.011
 Vibration     7          0.677              1.721              1.569
 Vibration     8          0.691              1.677              1.428
 Vibration     9          0.711              1.620              1.271
 Vibration    10          0.744              1.530              1.072
 Vibration    11          0.767              1.467              0.957
 Vibration    12          0.787              1.415              0.873
 Vibration    13          0.820              1.334              0.760
 Vibration    14          0.848              1.267              0.678
 Vibration    15          0.916              1.116              0.522
 Vibration    16          0.950              1.048              0.463

                           ! Non-Optimized Parameters !
 Normal termination of Gaussian 16 at Tue Dec  8 21:39:03 2020.

 ----------------------------------------------------------------------
 # B3LYP/6-311++G(d,p) empiricaldispersion=gd3bj scf=xqc pop=npa geom=c
 heck
 ----------------------------------------------------------------------

 ---------------------------------------
 CID_130612478_JID_1908_Energie_neutraal
 ---------------------------------------
 Structure from the checkpoint file:  "JID_1908.chk"
 Charge =  0 Multiplicity = 1

 SCF Done:  E(RB3LYP) =  -871.873086386     A.U. after   15 cycles
 Normal termination of Gaussian 16 at Tue Dec  8 21:42:38 2020.

 ----------------------------------------------------------------------
 # B3LYP/6-311++G(d,p) empiricaldispersion=gd3bj scf=xqc pop=npa geom=c
 heck
 ----------------------------------------------------------------------

 -------------------------------------
 CID_130612478_JID_1908_Energie_kation
 -------------------------------------
 Structure from the checkpoint file:  "JID_1908.chk"
 Charge =  1 Multiplicity = 2

 SCF Done:  E(UB3LYP) =  -871.571139685     A.U. after   23 cycles
 Normal termination of Gaussian 16 at Tue Dec  8 21:46:47 2020.
 Gaussian 16:  ES64L-G16RevA.03 25-Dec-2016

 ----------------------------------------------------------------------
 # B3LYP/6-311++G(d,p) empiricaldispersion=gd3bj scf=xqc pop=npa geom=c
 heck
 ----------------------------------------------------------------------

 ------------------------------------
 CID_130612478_JID_1908_Energie_anion
 ------------------------------------
 Structure from the checkpoint file:  "JID_1908.chk"
 Charge = -1 Multiplicity = 2

                         Standard orientation:
 ---------------------------------------------------------------------
 Center     Atomic      Atomic             Coordinates (Angstroms)
 Number     Number       Type             X           Y           Z
 ---------------------------------------------------------------------
      1          6           0        2.775449   -1.627219    0.459594
      2          6           0        2.554206   -0.352553   -0.358935
      3          6           0        1.170203    0.230389   -0.190148
      4          6           0        0.833527    1.557801   -0.107762
      5          7           0       -0.493163    1.851131    0.038091
      6          6           0       -1.229927    0.764672    0.063178
      7         16           0       -0.277787   -0.728720   -0.069071
      8          6           0       -2.670132    0.830249    0.259207
      9          7           0       -3.579037   -0.079398    0.168889
     10          7           0       -3.226741   -1.362031   -0.156906
     11          8           0        3.538591    0.633815   -0.065623
     12          1           0        2.613363   -1.432413    1.526481
     13          1           0        3.801039   -1.978627    0.316143
     14          1           0        2.087512   -2.424262    0.156252
     15          1           0        2.715839   -0.582836   -1.419493
     16          1           0        1.556698    2.362365   -0.158933
     17          1           0       -3.022746    1.822123    0.530702
     18          1           0       -2.500304   -1.457484   -0.869112
     19          1           0       -4.059236   -1.874298   -0.425710
     20          1           0        3.436316    0.866470    0.872466
 ---------------------------------------------------------------------

 SCF Done:  E(UB3LYP) =  -871.883707017     A.U. after   27 cycles

 The electronic state is 2-A.
 Alpha  occ. eigenvalues --  -88.71893 -19.01209 -14.19831 -14.16894 -14.14438
 Alpha  occ. eigenvalues --  -10.11473 -10.06375 -10.05364 -10.04871 -10.04320
 Alpha  occ. eigenvalues --  -10.04039  -7.80598  -5.76882  -5.76538  -5.76210
 Alpha  occ. eigenvalues --   -0.91559  -0.84461  -0.80146  -0.67073  -0.66083
 Alpha  occ. eigenvalues --   -0.61994  -0.59180  -0.52326  -0.47673  -0.43485
 Alpha  occ. eigenvalues --   -0.40720  -0.38690  -0.37419  -0.35063  -0.33435
 Alpha  occ. eigenvalues --   -0.31582  -0.29413  -0.27718  -0.27054  -0.26379
 Alpha  occ. eigenvalues --   -0.25965  -0.23869  -0.21994  -0.20552  -0.17398
 Alpha  occ. eigenvalues --   -0.14232  -0.12958  -0.12295  -0.11377  -0.07552
 Alpha  occ. eigenvalues --    0.04658
 Alpha virt. eigenvalues --    0.07933   0.09316   0.09645   0.10390   0.11599
 Alpha virt. eigenvalues --    0.12245   0.12709   0.13550   0.14008   0.15278
 Alpha virt. eigenvalues --    0.16355   0.16665   0.17176   0.17353   0.18371

  Beta  occ. eigenvalues --  -88.71825 -19.01191 -14.19739 -14.16282 -14.14206
  Beta  occ. eigenvalues --  -10.11492 -10.06065 -10.05334 -10.04941 -10.04077
  Beta  occ. eigenvalues --  -10.04026  -7.80537  -5.76853  -5.76510  -5.75985
  Beta  occ. eigenvalues --   -0.91508  -0.83800  -0.79715  -0.66728  -0.65713
  Beta  occ. eigenvalues --   -0.61754  -0.58756  -0.52108  -0.47218  -0.43227
  Beta  occ. eigenvalues --   -0.40388  -0.38583  -0.37211  -0.34916  -0.33327
  Beta  occ. eigenvalues --   -0.31381  -0.29213  -0.27455  -0.26830  -0.25894
  Beta  occ. eigenvalues --   -0.25250  -0.22586  -0.21681  -0.20273  -0.17238
  Beta  occ. eigenvalues --   -0.13118  -0.12107  -0.11588  -0.10584  -0.05927
  Beta virt. eigenvalues --    0.07803   0.09351   0.09691   0.10202   0.11306
  Beta virt. eigenvalues --    0.11640   0.12281   0.12711   0.13536   0.14021
  Beta virt. eigenvalues --    0.15796   0.16453   0.16726   0.17350   0.17426

 Mulliken charges and spin densities:
               1          2
     1  C    0.035683  -0.500493
     2  C   -0.800773   0.530376
     3  C    0.676925  -0.224686
     4  C    0.036624  -0.003026
     5  N   -0.085361   0.102956
     6  C   -0.005904   0.144061
     7  S   -0.524604   0.021979
     8  C   -0.450402  -0.051601
     9  N   -0.178690   0.266706
    10  N   -0.328340   0.037436
    11  O   -0.221003  -0.001322
    12  H    0.068070   0.075878
    13  H   -0.060918   0.194210
    14  H    0.038442   0.090305
    15  H   -0.067167   0.249918
    16  H    0.117719   0.022144
    17  H    0.145239  -0.000104
    18  H    0.176585   0.003760
    19  H    0.251840  -0.001124
    20  H    0.176036   0.042630
 Sum of Mulliken charges =  -1.00000   1.00000

 Dipole moment (field-independent basis, Debye):
    X=              2.1268    Y=             -2.1671    Z=             -0.1020  Tot=              3.0382
 Quadrupole moment (field-independent basis, Debye-Ang):
   XX=           -120.6571   YY=            -90.2447   ZZ=            -81.5629
   XY=              6.0120   XZ=              9.3346   YZ=              3.0906

 Summary of Natural Population Analysis:

                                       Natural Population
                Natural  -----------------------------------------------
    Atom  No    Charge         Core      Valence    Rydberg      Total
 -----------------------------------------------------------------------
      C    1   -0.29372      0.99965     2.28854    0.00553     3.29372
      C    2    0.04854      0.99951     1.93492    0.01703     2.95146
      C    3   -0.09314      0.99948     2.07812    0.01554     3.09314
      C    4   -0.04277      0.99947     2.02731    0.01598     3.04277
      N    5   -0.21813      0.99966     2.70667    0.01180     3.71813
      C    6    0.05540      0.99958     1.92947    0.01556     2.94460
      S    7    0.17586      4.99941     2.80082    0.02391     7.82414
      C    8   -0.02996      0.99958     2.01248    0.01790     3.02996
      N    9   -0.06092      0.99967     2.54247    0.01879     3.56092
      N   10   -0.30773      0.99975     2.79438    0.01360     3.80773
      O   11   -0.36886      0.99990     3.36199    0.00697     4.36886
      H   12    0.09666      0.00000     0.40199    0.00135     0.40334
      H   13    0.09688      0.00000     0.40140    0.00172     0.40312
      H   14    0.10342      0.00000     0.39540    0.00118     0.39658
      H   15    0.09114      0.00000     0.40683    0.00204     0.40886
      H   16    0.09426      0.00000     0.40349    0.00225     0.40574
      H   17    0.09140      0.00000     0.40678    0.00182     0.40860
      H   18    0.16793      0.00000     0.32979    0.00228     0.33207
      H   19    0.16954      0.00000     0.32876    0.00170     0.33046
      H   20    0.22419      0.00000     0.27261    0.00320     0.27581
 =======================================================================
   * Total *    0.00000     14.99566    29.82422    0.18012    45.00000

 Normal termination of Gaussian 16 at Tue Dec  8 21:51:43 2020.
