 Gaussian 16, Revision A.03,

 -----------------------------------------------------------
 # opt freq B3LYP/6-31G(d) empiricaldispersion=gd3bj scf=xqc
 -----------------------------------------------------------

 -------------------------------
 CID_113965799_JID_7481_neutraal
 -------------------------------
 Symbolic Z-matrix:
 Charge =  0 Multiplicity = 1

 SCF Done:  E(RB3LYP) =  -725.264661363     A.U. after   14 cycles
 SCF Done:  E(RB3LYP) =  -725.271000234     A.U. after   12 cycles
 SCF Done:  E(RB3LYP) =  -725.272395645     A.U. after   12 cycles
 SCF Done:  E(RB3LYP) =  -725.273203355     A.U. after   12 cycles
 SCF Done:  E(RB3LYP) =  -725.273511496     A.U. after   12 cycles
 SCF Done:  E(RB3LYP) =  -725.273581509     A.U. after   10 cycles
 SCF Done:  E(RB3LYP) =  -725.273608156     A.U. after   10 cycles
 SCF Done:  E(RB3LYP) =  -725.273623112     A.U. after   10 cycles
 SCF Done:  E(RB3LYP) =  -725.273654247     A.U. after   11 cycles
 SCF Done:  E(RB3LYP) =  -725.273676992     A.U. after   11 cycles
 SCF Done:  E(RB3LYP) =  -725.274836734     A.U. after   10 cycles
 SCF Done:  E(RB3LYP) =  -725.274836646     A.U. after    9 cycles
 SCF Done:  E(RB3LYP) =  -725.274837590     A.U. after   10 cycles
 SCF Done:  E(RB3LYP) =  -725.274838398     A.U. after    7 cycles
 SCF Done:  E(RB3LYP) =  -725.274838929     A.U. after    8 cycles
 Optimization completed.
    -- Stationary point found.
 Normal termination of Gaussian 16 at Sun Dec 13 13:07:58 2020.

 --------------------------------------------------------------------
 #N Geom=AllCheck Guess=TCheck SCRF=Check GenChk RB3LYP/6-31G(d) Freq
 --------------------------------------------------------------------

 Structure from the checkpoint file:  "JID_7481.chk"
 -------------------------------
 CID_113965799_JID_7481_neutraal
 -------------------------------
 Charge =  0 Multiplicity = 1

 SCF Done:  E(RB3LYP) =  -725.274838929     A.U. after    1 cycles

  Exact polarizability: 206.224  25.120 150.009 -18.521  18.385 119.745
 Approx polarizability: 286.958  54.141 249.315 -37.016  48.479 200.254

                      1                      2                      3
                      A                      A                      A
 Frequencies --     19.2157                38.0937                41.5234
 Red. masses --      2.9436                 4.2218                 2.7944
 Frc consts  --      0.0006                 0.0036                 0.0028
 IR Inten    --      0.0721                 0.0477                 0.3703

                      4                      5                      6
                      A                      A                      A
 Frequencies --     60.1131               138.1064               156.5086
 Red. masses --      3.8711                 3.8303                 5.4296
 Frc consts  --      0.0082                 0.0430                 0.0784
 IR Inten    --      1.0528                 0.1534                 2.0804

                      7                      8                      9
                      A                      A                      A
 Frequencies --    183.4361               232.4634               249.3263
 Red. masses --      2.5879                 2.5704                 1.1674
 Frc consts  --      0.0513                 0.0818                 0.0428
 IR Inten    --      1.4281                 5.3967                33.7894

                     10                     11                     12
                      A                      A                      A
 Frequencies --    269.3549               300.9337               323.8710
 Red. masses --      1.1553                 3.5408                 3.4802
 Frc consts  --      0.0494                 0.1889                 0.2151
 IR Inten    --      0.8210                13.1939                12.3441

                     13                     14                     15
                      A                      A                      A
 Frequencies --    338.6722               357.0462               371.0545
 Red. masses --      2.7807                 2.6788                 2.0274
 Frc consts  --      0.1879                 0.2012                 0.1645
 IR Inten    --     16.8550                 0.6569                15.8755

                     16                     17                     18
                      A                      A                      A
 Frequencies --    383.9179               410.9888               442.4655
 Red. masses --      3.0183                 2.3411                 3.0741
 Frc consts  --      0.2621                 0.2330                 0.3546
 IR Inten    --     26.7231                 1.8374                11.8638

                     19                     20                     21
                      A                      A                      A
 Frequencies --    456.7480               472.6296               510.8463
 Red. masses --      4.2981                 2.0437                 4.0537
 Frc consts  --      0.5283                 0.2690                 0.6233
 IR Inten    --      1.8129                 4.6654                 5.0198

                     22                     23                     24
                      A                      A                      A
 Frequencies --    561.6555               599.0598               619.6559
 Red. masses --      3.0426                 2.7368                 3.2720
 Frc consts  --      0.5655                 0.5787                 0.7402
 IR Inten    --      4.7950                 3.6044                 6.4031

                     25                     26                     27
                      A                      A                      A
 Frequencies --    668.0418               669.8913               718.8614
 Red. masses --      2.0550                 2.3142                 3.0960
 Frc consts  --      0.5404                 0.6119                 0.9426
 IR Inten    --    101.5637               175.9460                26.6554

                     28                     29                     30
                      A                      A                      A
 Frequencies --    743.7938               754.9420               783.7113
 Red. masses --      3.3340                 3.6528                 2.5081
 Frc consts  --      1.0867                 1.2266                 0.9076
 IR Inten    --     18.2238                22.7597                16.5760

                     31                     32                     33
                      A                      A                      A
 Frequencies --    806.2181               823.6581               835.1618
 Red. masses --      3.2010                 2.9072                 1.4183
 Frc consts  --      1.2258                 1.1620                 0.5829
 IR Inten    --      1.0028                19.9154                 6.0165

                     34                     35                     36
                      A                      A                      A
 Frequencies --    854.4999               860.4133               878.8508
 Red. masses --      1.8149                 1.5489                 1.7342
 Frc consts  --      0.7808                 0.6756                 0.7892
 IR Inten    --      8.5730                45.4853                 7.6749

                     37                     38                     39
                      A                      A                      A
 Frequencies --    887.8099               898.1305               917.9690
 Red. masses --      2.4189                 2.4724                 1.3727
 Frc consts  --      1.1233                 1.1750                 0.6815
 IR Inten    --     16.3904                 6.1334                 1.6227

                     40                     41                     42
                      A                      A                      A
 Frequencies --    944.5081               961.7552              1001.1782
 Red. masses --      1.9825                 3.4246                 1.7647
 Frc consts  --      1.0420                 1.8663                 1.0422
 IR Inten    --      3.1960                45.2402                 2.6984

                     43                     44                     45
                      A                      A                      A
 Frequencies --   1008.5330              1037.5560              1062.6713
 Red. masses --      1.3245                 1.5963                 1.7885
 Frc consts  --      0.7937                 1.0125                 1.1900
 IR Inten    --      1.4305                 3.0122                 1.6578

                     46                     47                     48
                      A                      A                      A
 Frequencies --   1094.5175              1115.0574              1124.9321
 Red. masses --      2.6621                 2.3201                 1.9693
 Frc consts  --      1.8790                 1.6996                 1.4683
 IR Inten    --      8.2926                 7.1461                12.4411

                     49                     50                     51
                      A                      A                      A
 Frequencies --   1149.3143              1173.8589              1179.9613
 Red. masses --      2.4276                 2.1938                 2.7572
 Frc consts  --      1.8893                 1.7810                 2.2618
 IR Inten    --      7.8528                 4.7559                47.9297

                     52                     53                     54
                      A                      A                      A
 Frequencies --   1202.3156              1224.8810              1226.9951
 Red. masses --      1.8077                 1.6079                 1.4867
 Frc consts  --      1.5396                 1.4213                 1.3187
 IR Inten    --     16.6731                 4.2292                 5.6127

                     55                     56                     57
                      A                      A                      A
 Frequencies --   1258.1965              1270.1805              1276.0936
 Red. masses --      1.4927                 1.3627                 2.0987
 Frc consts  --      1.3922                 1.2953                 2.0136
 IR Inten    --      5.7373                12.7181                29.4539

                     58                     59                     60
                      A                      A                      A
 Frequencies --   1294.0505              1300.8499              1329.9819
 Red. masses --      2.9335                 1.4710                 1.2878
 Frc consts  --      2.8943                 1.4667                 1.3421
 IR Inten    --     11.9709                 1.9261                 0.3156

                     61                     62                     63
                      A                      A                      A
 Frequencies --   1344.0526              1353.3247              1356.4445
 Red. masses --      1.3036                 2.1889                 1.3438
 Frc consts  --      1.3875                 2.3620                 1.4567
 IR Inten    --      0.8663                62.8389                 1.6982

                     64                     65                     66
                      A                      A                      A
 Frequencies --   1369.2000              1386.9252              1399.3891
 Red. masses --      1.3600                 1.5370                 2.8020
 Frc consts  --      1.5022                 1.7419                 3.2330
 IR Inten    --      9.3041                 0.2143                 6.7664

                     67                     68                     69
                      A                      A                      A
 Frequencies --   1411.6217              1422.2814              1439.2044
 Red. masses --      2.7272                 1.9039                 1.2470
 Frc consts  --      3.2018                 2.2692                 1.5219
 IR Inten    --      6.5453                38.8155                 2.8355

                     70                     71                     72
                      A                      A                      A
 Frequencies --   1466.9806              1481.8971              1518.4375
 Red. masses --      2.1637                 1.8607                 1.0880
 Frc consts  --      2.7434                 2.4074                 1.4780
 IR Inten    --     15.0719                 9.0637                 2.0315

                     73                     74                     75
                      A                      A                      A
 Frequencies --   1522.1075              1528.2462              1532.2921
 Red. masses --      1.0730                 1.0511                 1.0575
 Frc consts  --      1.4647                 1.4464                 1.4629
 IR Inten    --      2.4037                 2.5625                 4.3929

                     76                     77                     78
                      A                      A                      A
 Frequencies --   1538.7013              1540.8324              1551.1821
 Red. masses --      1.4657                 1.9702                 4.8288
 Frc consts  --      2.0445                 2.7559                 6.8457
 IR Inten    --     18.3065                40.8344                25.4137

                     79                     80                     81
                      A                      A                      A
 Frequencies --   1627.9162              1680.3575              1702.0126
 Red. masses --      5.6614                 1.3768                 3.5035
 Frc consts  --      8.8397                 2.2904                 5.9797
 IR Inten    --      2.8335                55.3552                31.7259

                     82                     83                     84
                      A                      A                      A
 Frequencies --   2984.0170              3035.9832              3041.0089
 Red. masses --      1.0827                 1.0380                 1.0782
 Frc consts  --      5.6800                 5.6368                 5.8748
 IR Inten    --     20.0050                17.8646                28.5974

                     85                     86                     87
                      A                      A                      A
 Frequencies --   3042.8981              3045.7364              3064.0482
 Red. masses --      1.0585                 1.0711                 1.0651
 Frc consts  --      5.7743                 5.8539                 5.8915
 IR Inten    --     40.3618                20.7298                24.2508

                     88                     89                     90
                      A                      A                      A
 Frequencies --   3085.5310              3099.6805              3103.1516
 Red. masses --      1.1020                 1.1020                 1.1013
 Frc consts  --      6.1813                 6.2384                 6.2481
 IR Inten    --     38.4038                10.0319                53.7618

                     91                     92                     93
                      A                      A                      A
 Frequencies --   3109.3942              3112.3498              3179.7939
 Red. masses --      1.1018                 1.1029                 1.0902
 Frc consts  --      6.2760                 6.2943                 6.4947
 IR Inten    --     51.2324                48.1265                18.0862

                     94                     95                     96
                      A                      A                      A
 Frequencies --   3219.8273              3258.0964              3461.0009
 Red. masses --      1.0914                 1.0956                 1.0731
 Frc consts  --      6.6668                 6.8522                 7.5732
 IR Inten    --      4.9335                11.3703                 2.2486

                     97                     98                     99
                      A                      A                      A
 Frequencies --   3541.5163              3638.6204              3680.3604
 Red. masses --      1.0480                 1.0969                 1.0808
 Frc consts  --      7.7442                 8.5560                 8.6257
 IR Inten    --      2.7909                 6.5734                71.6500

 - Thermochemistry -
 -------------------
 Temperature   298.150 Kelvin.  Pressure   1.00000 Atm.
 Atom     1 has atomic number  6 and mass  12.00000

 Molecular mass:   230.15315 amu.
 Principal axes and moments of inertia in atomic units:
                           1         2         3
     Eigenvalues --  1937.707557362.455488137.48812
           X            0.99993  -0.01155   0.00272
           Y            0.01157   0.99992  -0.00514
           Z           -0.00266   0.00517   0.99998
 This molecule is an asymmetric top.
 Rotational symmetry number  1.
 Warning -- assumption of classical behavior for rotation
           may cause significant error
 Rotational temperatures (Kelvin)      0.04470     0.01176     0.01064
 Rotational constants (GHZ):           0.93138     0.24513     0.22178
 Zero-point vibrational energy     794042.0 (Joules/Mol)
                                  189.78058 (Kcal/Mol)
 Warning -- explicit consideration of  24 degrees of freedom as
           vibrations may cause significant error
 Vibrational temperatures:     27.65    54.81    59.74    86.49   198.70
          (Kelvin)            225.18   263.92   334.46   358.72   387.54
                              432.98   465.98   487.27   513.71   533.86
                              552.37   591.32   636.61   657.16   680.01
                              734.99   808.10   861.91   891.55   961.16
                              963.82  1034.28  1070.15  1086.19  1127.59
                             1159.97  1185.06  1201.61  1229.43  1237.94
                             1264.47  1277.36  1292.21  1320.75  1358.94
                             1383.75  1440.47  1451.05  1492.81  1528.95
                             1574.77  1604.32  1618.53  1653.61  1688.92
                             1697.70  1729.86  1762.33  1765.37  1810.26
                             1827.51  1836.01  1861.85  1871.63  1913.55
                             1933.79  1947.13  1951.62  1969.97  1995.48
                             2013.41  2031.01  2046.35  2070.69  2110.66
                             2132.12  2184.69  2189.97  2198.81  2204.63
                             2213.85  2216.91  2231.81  2342.21  2417.66
                             2448.82  4293.33  4368.10  4375.33  4378.05
                             4382.14  4408.48  4439.39  4459.75  4464.74
                             4473.72  4477.98  4575.01  4632.61  4687.67
                             4979.61  5095.45  5235.16  5295.22

 Zero-point correction=                           0.302435 (Hartree/Particle)
 Thermal correction to Energy=                    0.317800
 Thermal correction to Enthalpy=                  0.318744
 Thermal correction to Gibbs Free Energy=         0.258405
 Sum of electronic and zero-point Energies=           -724.972404
 Sum of electronic and thermal Energies=              -724.957039
 Sum of electronic and thermal Enthalpies=            -724.956095
 Sum of electronic and thermal Free Energies=         -725.016433

                     E (Thermal)             CV                S
                      KCal/Mol        Cal/Mol-Kelvin    Cal/Mol-Kelvin
 Total                  199.422             60.916            126.993
 Electronic               0.000              0.000              0.000
 Translational            0.889              2.981             42.203
 Rotational               0.889              2.981             33.118
 Vibrational            197.645             54.954             51.672
 Vibration     1          0.593              1.986              6.714
 Vibration     2          0.594              1.982              5.356
 Vibration     3          0.594              1.981              5.185
 Vibration     4          0.597              1.973              4.453
 Vibration     5          0.614              1.915              2.830
 Vibration     6          0.620              1.895              2.592
 Vibration     7          0.631              1.862              2.293
 Vibration     8          0.653              1.791              1.860
 Vibration     9          0.662              1.764              1.735
 Vibration    10          0.674              1.730              1.600
 Vibration    11          0.693              1.672              1.412
 Vibration    12          0.708              1.628              1.290
 Vibration    13          0.719              1.598              1.218
 Vibration    14          0.732              1.561              1.135
 Vibration    15          0.743              1.532              1.075
 Vibration    16          0.753              1.504              1.024
 Vibration    17          0.775              1.446              0.923
 Vibration    18          0.802              1.378              0.819
 Vibration    19          0.815              1.346              0.776
 Vibration    20          0.829              1.311              0.730
 Vibration    21          0.866              1.226              0.632
 Vibration    22          0.917              1.114              0.521
 Vibration    23          0.957              1.034              0.451
 Vibration    24          0.980              0.990              0.417

                           ! Non-Optimized Parameters !
 Normal termination of Gaussian 16 at Sun Dec 13 13:20:34 2020.

 ----------------------------------------------------------------------
 # B3LYP/6-311++G(d,p) empiricaldispersion=gd3bj scf=xqc pop=npa geom=c
 heck
 ----------------------------------------------------------------------

 ---------------------------------------
 CID_113965799_JID_7481_Energie_neutraal
 ---------------------------------------
 Structure from the checkpoint file:  "JID_7481.chk"
 Charge =  0 Multiplicity = 1

 SCF Done:  E(RB3LYP) =  -725.476735437     A.U. after   16 cycles
 Normal termination of Gaussian 16 at Sun Dec 13 13:27:33 2020.

 ----------------------------------------------------------------------
 # B3LYP/6-311++G(d,p) empiricaldispersion=gd3bj scf=xqc pop=npa geom=c
 heck
 ----------------------------------------------------------------------

 -------------------------------------
 CID_113965799_JID_7481_Energie_kation
 -------------------------------------
 Structure from the checkpoint file:  "JID_7481.chk"
 Charge =  1 Multiplicity = 2

 SCF Done:  E(UB3LYP) =  -725.207515501     A.U. after   26 cycles
 Normal termination of Gaussian 16 at Sun Dec 13 13:43:20 2020.
 Gaussian 16:  ES64L-G16RevA.03 25-Dec-2016

 ----------------------------------------------------------------------
 # B3LYP/6-311++G(d,p) empiricaldispersion=gd3bj scf=xqc pop=npa geom=c
 heck
 ----------------------------------------------------------------------

 ------------------------------------
 CID_113965799_JID_7481_Energie_anion
 ------------------------------------
 Structure from the checkpoint file:  "JID_7481.chk"
 Charge = -1 Multiplicity = 2

                         Standard orientation:
 ---------------------------------------------------------------------
 Center     Atomic      Atomic             Coordinates (Angstroms)
 Number     Number       Type             X           Y           Z
 ---------------------------------------------------------------------
      1          6           0        3.733591   -1.735552    1.698752
      2          6           0        3.537103   -1.310745    0.241705
      3          6           0        4.286576    0.012119   -0.097468
      4          6           0        3.308638    0.825811   -0.956876
      5          6           0        1.949152    0.480533   -0.342554
      6          6           0        2.048155   -1.037020   -0.122122
      7          7           0        0.830692    0.855880   -1.223987
      8          6           0       -0.471430    0.663274   -0.654144
      9          6           0       -0.996739    1.557484    0.338864
     10          6           0       -2.253476    1.333381    0.888646
     11          6           0       -2.996051    0.213576    0.476710
     12          6           0       -4.271646   -0.349596    0.789355
     13          7           0       -4.506379   -1.449525    0.090066
     14          7           0       -3.408670   -1.632118   -0.688444
     15          6           0       -2.459607   -0.660634   -0.499089
     16          6           0       -1.203590   -0.436474   -1.075083
     17          7           0       -0.200063    2.624277    0.794551
     18          1           0        4.796934   -1.858213    1.938019
     19          1           0        3.322779   -0.980839    2.381384
     20          1           0        3.229508   -2.685867    1.909544
     21          1           0        3.917314   -2.113445   -0.401418
     22          1           0        4.502677    0.559344    0.829510
     23          1           0        5.246354   -0.163493   -0.594016
     24          1           0        3.317919    0.481383   -1.999260
     25          1           0        3.525196    1.901389   -0.956575
     26          1           0        1.871560    0.975246    0.639914
     27          1           0        1.779818   -1.533141   -1.062009
     28          1           0        1.355154   -1.394630    0.645677
     29          1           0        0.954592    1.816761   -1.541321
     30          1           0       -2.646912    2.012539    1.641193
     31          1           0       -5.012933    0.006512    1.492394
     32          1           0       -3.378031   -2.427500   -1.305788
     33          1           0       -0.782512   -1.081153   -1.838689
     34          1           0       -0.737345    3.390421    1.183155
     35          1           0        0.464799    2.968149    0.112795
 ---------------------------------------------------------------------

 SCF Done:  E(UB3LYP) =  -725.468385870     A.U. after   33 cycles
 SCF Done:  E(UB3LYP) =  -725.468385870     a.u. after    1 cycles

 The electronic state is 2-A.
 Alpha  occ. eigenvalues --  -14.27372 -14.22930 -14.20191 -14.19715 -10.10038
 Alpha  occ. eigenvalues --  -10.09951 -10.09099 -10.09060 -10.08552 -10.07869
 Alpha  occ. eigenvalues --  -10.06949 -10.06733 -10.06617 -10.06327 -10.06089
 Alpha  occ. eigenvalues --  -10.05953 -10.05633  -0.93763  -0.82612  -0.78884
 Alpha  occ. eigenvalues --   -0.73893  -0.72642  -0.71627  -0.65234  -0.62726
 Alpha  occ. eigenvalues --   -0.62385  -0.60371  -0.55489  -0.52055  -0.50502
 Alpha  occ. eigenvalues --   -0.49166  -0.47376  -0.45902  -0.43760  -0.40671
 Alpha  occ. eigenvalues --   -0.40110  -0.39233  -0.37494  -0.36635  -0.34509
 Alpha  occ. eigenvalues --   -0.34162  -0.33809  -0.32599  -0.32457  -0.31737
 Alpha  occ. eigenvalues --   -0.31216  -0.29999  -0.29128  -0.27184  -0.25340
 Alpha  occ. eigenvalues --   -0.24785  -0.23743  -0.23009  -0.22955  -0.22270
 Alpha  occ. eigenvalues --   -0.22046  -0.19838  -0.19470  -0.18022  -0.13868
 Alpha  occ. eigenvalues --   -0.11936  -0.09124   0.04364
 Alpha virt. eigenvalues --    0.06103   0.06799   0.07335   0.07715   0.08382
 Alpha virt. eigenvalues --    0.08676   0.09462   0.10079   0.10422   0.10860
 Alpha virt. eigenvalues --    0.11599   0.11870   0.11938   0.12452   0.13130

  Beta  occ. eigenvalues --  -14.27348 -14.22789 -14.20130 -14.19707 -10.10063
  Beta  occ. eigenvalues --  -10.09961 -10.09086 -10.08989 -10.08541 -10.07865
  Beta  occ. eigenvalues --  -10.06939 -10.06721 -10.06600 -10.06238 -10.06064
  Beta  occ. eigenvalues --  -10.05950 -10.05535  -0.93642  -0.82528  -0.78817
  Beta  occ. eigenvalues --   -0.73817  -0.72563  -0.71535  -0.65171  -0.62628
  Beta  occ. eigenvalues --   -0.62232  -0.60335  -0.55436  -0.51923  -0.50414
  Beta  occ. eigenvalues --   -0.49093  -0.47320  -0.45852  -0.43703  -0.40590
  Beta  occ. eigenvalues --   -0.39999  -0.39170  -0.37445  -0.36554  -0.34456
  Beta  occ. eigenvalues --   -0.34027  -0.33648  -0.32563  -0.32401  -0.31679
  Beta  occ. eigenvalues --   -0.31179  -0.29936  -0.29106  -0.27043  -0.25255
  Beta  occ. eigenvalues --   -0.24720  -0.23705  -0.22962  -0.22931  -0.22236
  Beta  occ. eigenvalues --   -0.22023  -0.19521  -0.19294  -0.17800  -0.13711
  Beta  occ. eigenvalues --   -0.11543  -0.08825
  Beta virt. eigenvalues --    0.06239   0.07258   0.07535   0.07778   0.08074
  Beta virt. eigenvalues --    0.08627   0.08868   0.09886   0.10361   0.10669
  Beta virt. eigenvalues --    0.10957   0.11640   0.11976   0.12116   0.12842

 Mulliken charges and spin densities:
               1          2
     1  C   -0.248021  -0.543301
     2  C   -0.145859   0.518614
     3  C    0.305183  -0.966505
     4  C   -0.167414   0.127826
     5  C   -0.778615   0.129687
     6  C    0.098817  -0.452502
     7  N   -0.043985   0.162108
     8  C    0.937864  -1.171965
     9  C    0.465937  -0.561638
    10  C   -2.225066   1.325020
    11  C    1.553050  -0.600411
    12  C    0.431884  -0.431433
    13  N   -0.206549   0.062808
    14  N   -0.060742   0.008123
    15  C    0.332139  -0.365760
    16  C   -0.982736   0.631392
    17  N   -0.140560  -0.169541
    18  H   -0.035485   0.166035
    19  H    0.046136   0.107806
    20  H    0.099744   0.023844
    21  H   -0.006645   0.184912
    22  H    0.027107   0.115023
    23  H   -0.104369   0.266136
    24  H    0.131747   0.006969
    25  H   -0.501502   0.669359
    26  H    0.378710  -0.200757
    27  H    0.120034  -0.010908
    28  H    0.184506   0.023977
    29  H   -0.233558   0.506754
    30  H   -0.142595   0.270294
    31  H    0.133989   0.009836
    32  H    0.280735   0.007186
    33  H   -0.004816   0.134002
    34  H   -0.362571   0.632112
    35  H   -0.136491   0.384898
 Sum of Mulliken charges =  -1.00000   1.00000

 Dipole moment (field-independent basis, Debye):
    X=             -0.7648    Y=             -6.6841    Z=             -0.2242  Tot=              6.7314
 Quadrupole moment (field-independent basis, Debye-Ang):
   XX=           -178.0203   YY=           -152.5431   ZZ=           -126.8419
   XY=             -7.3895   XZ=              2.9495   YZ=              5.1168

 Summary of Natural Population Analysis:

                                       Natural Population
                Natural  -----------------------------------------------
    Atom  No    Charge         Core      Valence    Rydberg      Total
 -----------------------------------------------------------------------
      C    1   -0.28093      0.99965     2.27658    0.00470     3.28093
      C    2   -0.11390      0.99962     2.10381    0.01047     3.11390
      C    3   -0.18832      0.99963     2.18021    0.00848     3.18832
      C    4   -0.19155      0.99961     2.18278    0.00916     3.19155
      C    5   -0.01242      0.99955     2.00009    0.01277     3.01242
      C    6   -0.19218      0.99960     2.18497    0.00762     3.19218
      N    7   -0.34598      0.99971     2.83352    0.01276     3.84598
      C    8    0.07855      0.99945     1.90937    0.01263     2.92145
      C    9    0.06915      0.99945     1.91954    0.01186     2.93085
      C   10   -0.10090      0.99950     2.09260    0.00881     3.10090
      C   11   -0.06051      0.99950     2.05143    0.00958     3.06051
      C   12   -0.01580      0.99961     2.00086    0.01533     3.01580
      N   13   -0.12865      0.99974     2.61638    0.01254     3.62865
      N   14   -0.18054      0.99966     2.66964    0.01124     3.68054
      C   15    0.05970      0.99948     1.93106    0.00976     2.94030
      C   16   -0.09973      0.99947     2.09111    0.00915     3.09973
      N   17   -0.40056      0.99972     2.88964    0.01120     3.90056
      H   18    0.09591      0.00000     0.40319    0.00091     0.40409
      H   19    0.09750      0.00000     0.40156    0.00094     0.40250
      H   20    0.09588      0.00000     0.40328    0.00083     0.40412
      H   21    0.09318      0.00000     0.40593    0.00089     0.40682
      H   22    0.09464      0.00000     0.40414    0.00122     0.40536
      H   23    0.09866      0.00000     0.40040    0.00095     0.40134
      H   24    0.09621      0.00000     0.40238    0.00140     0.40379
      H   25    0.10311      0.00000     0.39534    0.00155     0.39689
      H   26    0.08827      0.00000     0.40913    0.00260     0.41173
      H   27    0.10016      0.00000     0.39843    0.00140     0.39984
      H   28    0.10179      0.00000     0.39718    0.00103     0.39821
      H   29    0.18016      0.00000     0.31545    0.00439     0.31984
      H   30    0.09692      0.00000     0.40183    0.00125     0.40308
      H   31    0.09400      0.00000     0.40470    0.00131     0.40600
      H   32    0.19147      0.00000     0.30579    0.00274     0.30853
      H   33    0.10327      0.00000     0.39535    0.00138     0.39673
      H   34    0.18673      0.00000     0.30912    0.00415     0.31327
      H   35    0.18672      0.00000     0.30733    0.00594     0.31328
 =======================================================================
   * Total *    0.00000     16.99294    44.79412    0.21293    62.00000

 Normal termination of Gaussian 16 at Sun Dec 13 14:04:01 2020.
