 Gaussian 16, Revision A.03,

 -----------------------------------------------------------
 # opt freq B3LYP/6-31G(d) empiricaldispersion=gd3bj scf=xqc
 -----------------------------------------------------------

 -------------------------------
 CID_112657987_JID_4497_neutraal
 -------------------------------
 Symbolic Z-matrix:
 Charge =  0 Multiplicity = 1

 SCF Done:  E(RB3LYP) =  -1427.79049971     A.U. after   14 cycles
 SCF Done:  E(RB3LYP) =  -1427.79694436     A.U. after   13 cycles
 SCF Done:  E(RB3LYP) =  -1427.79445084     A.U. after   13 cycles
 SCF Done:  E(RB3LYP) =  -1427.79706933     A.U. after   13 cycles
 SCF Done:  E(RB3LYP) =  -1427.79747278     A.U. after   15 cycles
 SCF Done:  E(RB3LYP) =  -1427.79711940     A.U. after   13 cycles
 SCF Done:  E(RB3LYP) =  -1427.79802547     A.U. after   13 cycles
 SCF Done:  E(RB3LYP) =  -1427.79934314     A.U. after   13 cycles
 SCF Done:  E(RB3LYP) =  -1427.80009091     A.U. after   12 cycles
 SCF Done:  E(RB3LYP) =  -1427.80029112     A.U. after   12 cycles
 SCF Done:  E(RB3LYP) =  -1427.80051078     A.U. after   10 cycles
 SCF Done:  E(RB3LYP) =  -1427.80051289     A.U. after    9 cycles
 SCF Done:  E(RB3LYP) =  -1427.80051346     A.U. after    8 cycles
 SCF Done:  E(RB3LYP) =  -1427.80051351     A.U. after    7 cycles
 SCF Done:  E(RB3LYP) =  -1427.80051352     A.U. after    7 cycles
 Optimization completed.
    -- Stationary point found.
 Normal termination of Gaussian 16 at Thu Dec 10 10:02:31 2020.

 --------------------------------------------------------------------
 #N Geom=AllCheck Guess=TCheck SCRF=Check GenChk RB3LYP/6-31G(d) Freq
 --------------------------------------------------------------------

 Structure from the checkpoint file:  "JID_4497.chk"
 -------------------------------
 CID_112657987_JID_4497_neutraal
 -------------------------------
 Charge =  0 Multiplicity = 1

 SCF Done:  E(RB3LYP) =  -1427.80051352     A.U. after    1 cycles

  Exact polarizability: 136.552   3.120 109.499   6.128   0.012 119.676
 Approx polarizability: 190.015   9.514 174.619  11.230  -4.788 176.152

                      1                      2                      3
                      A                      A                      A
 Frequencies --     31.2077                44.6567                48.5560
 Red. masses --      5.6268                 5.5864                 5.9391
 Frc consts  --      0.0032                 0.0066                 0.0083
 IR Inten    --      0.6249                 1.6062                 1.7217

                      4                      5                      6
                      A                      A                      A
 Frequencies --     78.4881                87.8056                96.4149
 Red. masses --      3.8615                 4.0672                 3.7211
 Frc consts  --      0.0140                 0.0185                 0.0204
 IR Inten    --      3.0319                 0.8324                 5.1202

                      7                      8                      9
                      A                      A                      A
 Frequencies --    124.7292               158.3190               177.5223
 Red. masses --      5.7398                 5.2668                 2.1848
 Frc consts  --      0.0526                 0.0778                 0.0406
 IR Inten    --      3.9719                 0.6454                 2.6891

                     10                     11                     12
                      A                      A                      A
 Frequencies --    188.3061               190.6417               210.6018
 Red. masses --      1.1787                 1.6374                 4.4885
 Frc consts  --      0.0246                 0.0351                 0.1173
 IR Inten    --      0.1023                 2.5633                 1.3287

                     13                     14                     15
                      A                      A                      A
 Frequencies --    227.9190               263.2068               291.5281
 Red. masses --      3.5834                 2.2868                 2.7383
 Frc consts  --      0.1097                 0.0933                 0.1371
 IR Inten    --      4.5785                 0.9374                 8.0475

                     16                     17                     18
                      A                      A                      A
 Frequencies --    324.6805               344.1899               371.6421
 Red. masses --      4.1025                 3.1510                 3.6038
 Frc consts  --      0.2548                 0.2199                 0.2933
 IR Inten    --      1.9361                 7.5121                 1.4854

                     19                     20                     21
                      A                      A                      A
 Frequencies --    403.6491               462.9315               479.3073
 Red. masses --      3.3837                 3.1520                 3.7502
 Frc consts  --      0.3248                 0.3980                 0.5076
 IR Inten    --      3.2811                14.6737                18.0095

                     22                     23                     24
                      A                      A                      A
 Frequencies --    522.0131               538.9201               555.9710
 Red. masses --      3.9915                 2.5398                 4.4979
 Frc consts  --      0.6408                 0.4346                 0.8192
 IR Inten    --     10.7704                64.4399                15.6605

                     25                     26                     27
                      A                      A                      A
 Frequencies --    612.0168               630.9878               674.8059
 Red. masses --      3.2386                 2.5571                 4.1414
 Frc consts  --      0.7147                 0.5998                 1.1111
 IR Inten    --     33.5159                14.6713                 0.5245

                     28                     29                     30
                      A                      A                      A
 Frequencies --    699.9639               725.9560               755.9365
 Red. masses --      1.6827                 6.2531                 5.2308
 Frc consts  --      0.4857                 1.9416                 1.7611
 IR Inten    --     48.2612                 6.1380               111.2852

                     31                     32                     33
                      A                      A                      A
 Frequencies --    815.6077               847.5732               929.9180
 Red. masses --      2.7067                 2.0513                 2.4534
 Frc consts  --      1.0608                 0.8682                 1.2500
 IR Inten    --     22.6542                23.1237                67.1912

                     34                     35                     36
                      A                      A                      A
 Frequencies --    954.9687               970.6445               985.2924
 Red. masses --      2.3077                 1.8973                 1.9032
 Frc consts  --      1.2399                 1.0532                 1.0886
 IR Inten    --      6.3466                14.0040                 2.1136

                     37                     38                     39
                      A                      A                      A
 Frequencies --    998.3149              1015.0327              1057.2126
 Red. masses --      1.2070                 1.5644                 2.2743
 Frc consts  --      0.7087                 0.9497                 1.4977
 IR Inten    --      5.7058                42.8753                13.1544

                     40                     41                     42
                      A                      A                      A
 Frequencies --   1068.8528              1116.0369              1137.2366
 Red. masses --      2.8620                10.0071                 2.3568
 Frc consts  --      1.9265                 7.3437                 1.7959
 IR Inten    --     16.0274               120.6812                51.1308

                     43                     44                     45
                      A                      A                      A
 Frequencies --   1162.2661              1165.2440              1210.6496
 Red. masses --      1.3342                 1.3845                 1.5418
 Frc consts  --      1.0619                 1.1076                 1.3314
 IR Inten    --     10.8841               112.6352                75.5021

                     46                     47                     48
                      A                      A                      A
 Frequencies --   1217.7497              1236.5184              1249.6996
 Red. masses --      1.3812                 1.5719                 1.3076
 Frc consts  --      1.2068                 1.4160                 1.2032
 IR Inten    --     67.1816                16.9818                14.5364

                     49                     50                     51
                      A                      A                      A
 Frequencies --   1294.0842              1309.8500              1335.9309
 Red. masses --      6.0326                 1.3019                 1.4472
 Frc consts  --      5.9523                 1.3160                 1.5217
 IR Inten    --    215.9190                 5.6079                 0.5413

                     52                     53                     54
                      A                      A                      A
 Frequencies --   1352.5224              1365.0980              1384.8377
 Red. masses --      1.5377                 1.2528                 1.1599
 Frc consts  --      1.6573                 1.3755                 1.3106
 IR Inten    --     45.8726                40.7321                 2.5065

                     55                     56                     57
                      A                      A                      A
 Frequencies --   1423.6314              1444.1255              1473.1423
 Red. masses --      1.2136                 2.0952                 1.1513
 Frc consts  --      1.4492                 2.5744                 1.4720
 IR Inten    --      3.8936                49.6236                 1.4738

                     58                     59                     60
                      A                      A                      A
 Frequencies --   1486.7404              1492.4214              1493.2549
 Red. masses --      1.0848                 1.1122                 1.0715
 Frc consts  --      1.4127                 1.4595                 1.4077
 IR Inten    --     14.6573                17.4044                 5.5070

                     61                     62                     63
                      A                      A                      A
 Frequencies --   1505.8786              1522.1290              1523.0239
 Red. masses --      1.0637                 1.0544                 1.0521
 Frc consts  --      1.4212                 1.4394                 1.4379
 IR Inten    --      2.3822                 1.7635                19.1616

                     64                     65                     66
                      A                      A                      A
 Frequencies --   1533.4474              1539.9111              1839.3729
 Red. masses --      1.0674                 1.0512                 9.4542
 Frc consts  --      1.4789                 1.4687                18.8459
 IR Inten    --      6.1452                14.6931               249.8212

                     67                     68                     69
                      A                      A                      A
 Frequencies --   3032.6515              3060.6784              3066.8447
 Red. masses --      1.0476                 1.0700                 1.0307
 Frc consts  --      5.6766                 5.9054                 5.7119
 IR Inten    --     45.7900                 7.9674                34.4800

                     70                     71                     72
                      A                      A                      A
 Frequencies --   3075.5721              3087.7623              3108.7770
 Red. masses --      1.0665                 1.0657                 1.0615
 Frc consts  --      5.9437                 5.9864                 6.0442
 IR Inten    --      5.4047                39.0363                 1.1831

                     73                     74                     75
                      A                      A                      A
 Frequencies --   3117.1244              3143.4793              3145.3449
 Red. masses --      1.0923                 1.1039                 1.0940
 Frc consts  --      6.2533                 6.4266                 6.3769
 IR Inten    --     22.3088                 9.2422                 1.5610

                     76                     77                     78
                      A                      A                      A
 Frequencies --   3147.3296              3149.7372              3167.7683
 Red. masses --      1.0979                 1.1029                 1.1036
 Frc consts  --      6.4074                 6.4465                 6.5248
 IR Inten    --      7.4123                 6.1300                 1.8644

                     79                     80                     81
                      A                      A                      A
 Frequencies --   3176.0938              3185.9006              3682.3303
 Red. masses --      1.1065                 1.0994                 1.0639
 Frc consts  --      6.5761                 6.5745                 8.4993
 IR Inten    --      0.9568                 1.4731                51.2355

 - Thermochemistry -
 -------------------
 Temperature   298.150 Kelvin.  Pressure   1.00000 Atm.
 Atom     1 has atomic number  6 and mass  12.00000

 Molecular mass:   241.04425 amu.
 Principal axes and moments of inertia in atomic units:
                           1         2         3
     Eigenvalues --  2394.112204600.427445188.33178
           X            0.99999  -0.00304  -0.00241
           Y            0.00318   0.99827   0.05863
           Z            0.00223  -0.05864   0.99828
 This molecule is an asymmetric top.
 Rotational symmetry number  1.
 Warning -- assumption of classical behavior for rotation
           may cause significant error
 Rotational temperatures (Kelvin)      0.03618     0.01883     0.01669
 Rotational constants (GHZ):           0.75382     0.39230     0.34785
 Zero-point vibrational energy     616845.3 (Joules/Mol)
                                  147.42958 (Kcal/Mol)
 Warning -- explicit consideration of  25 degrees of freedom as
           vibrations may cause significant error
 Vibrational temperatures:     44.90    64.25    69.86   112.93   126.33
          (Kelvin)            138.72   179.46   227.79   255.42   270.93
                              274.29   303.01   327.92   378.70   419.44
                              467.14   495.21   534.71   580.76   666.06
                              689.62   751.06   775.39   799.92   880.56
                              907.85   970.90  1007.09  1044.49  1087.62
                             1173.48  1219.47  1337.94  1373.99  1396.54
                             1417.62  1436.35  1460.41  1521.09  1537.84
                             1605.73  1636.23  1672.24  1676.53  1741.85
                             1752.07  1779.07  1798.04  1861.90  1884.58
                             1922.11  1945.98  1964.07  1992.47  2048.29
                             2077.77  2119.52  2139.09  2147.26  2148.46
                             2166.62  2190.00  2191.29  2206.29  2215.59
                             2646.45  4363.31  4403.63  4412.51  4425.06
                             4442.60  4472.84  4484.85  4522.77  4525.45
                             4528.31  4531.77  4557.71  4569.69  4583.80
                             5298.05

 Zero-point correction=                           0.234944 (Hartree/Particle)
 Thermal correction to Energy=                    0.251556
 Thermal correction to Enthalpy=                  0.252500
 Thermal correction to Gibbs Free Energy=         0.189556
 Sum of electronic and zero-point Energies=          -1427.565570
 Sum of electronic and thermal Energies=             -1427.548958
 Sum of electronic and thermal Enthalpies=           -1427.548014
 Sum of electronic and thermal Free Energies=        -1427.610958

                     E (Thermal)             CV                S
                      KCal/Mol        Cal/Mol-Kelvin    Cal/Mol-Kelvin
 Total                  157.853             59.378            132.476
 Electronic               0.000              0.000              0.000
 Translational            0.889              2.981             42.341
 Rotational               0.889              2.981             32.413
 Vibrational            156.076             53.416             57.722
 Vibration     1          0.594              1.983              5.751
 Vibration     2          0.595              1.980              5.041
 Vibration     3          0.595              1.978              4.875
 Vibration     4          0.600              1.964              3.928
 Vibration     5          0.601              1.958              3.708
 Vibration     6          0.603              1.952              3.526
 Vibration     7          0.610              1.928              3.026
 Vibration     8          0.621              1.893              2.570
 Vibration     9          0.628              1.870              2.354
 Vibration    10          0.633              1.856              2.244
 Vibration    11          0.634              1.853              2.222
 Vibration    12          0.643              1.825              2.038
 Vibration    13          0.651              1.798              1.895
 Vibration    14          0.670              1.740              1.640
 Vibration    15          0.687              1.690              1.465
 Vibration    16          0.709              1.626              1.286
 Vibration    17          0.723              1.587              1.193
 Vibration    18          0.743              1.530              1.073
 Vibration    19          0.769              1.462              0.949
 Vibration    20          0.821              1.332              0.758
 Vibration    21          0.836              1.296              0.712
 Vibration    22          0.877              1.201              0.605
 Vibration    23          0.894              1.164              0.568
 Vibration    24          0.911              1.127              0.532
 Vibration    25          0.971              1.006              0.429

 Optimization completed.
    -- Stationary point found.
 Normal termination of Gaussian 16 at Thu Dec 10 10:11:23 2020.

 ----------------------------------------------------------------------
 # B3LYP/6-311++G(d,p) empiricaldispersion=gd3bj scf=xqc pop=npa geom=c
 heck
 ----------------------------------------------------------------------

 ---------------------------------------
 CID_112657987_JID_4497_Energie_neutraal
 ---------------------------------------
 Structure from the checkpoint file:  "JID_4497.chk"
 Charge =  0 Multiplicity = 1

 SCF Done:  E(RB3LYP) =  -1428.05170106     A.U. after   15 cycles
 Normal termination of Gaussian 16 at Thu Dec 10 10:16:01 2020.

 ----------------------------------------------------------------------
 # B3LYP/6-311++G(d,p) empiricaldispersion=gd3bj scf=xqc pop=npa geom=c
 heck
 ----------------------------------------------------------------------

 -------------------------------------
 CID_112657987_JID_4497_Energie_kation
 -------------------------------------
 Structure from the checkpoint file:  "JID_4497.chk"
 Charge =  1 Multiplicity = 2

 SCF Done:  E(UB3LYP) =  -1427.75255520     A.U. after   21 cycles
 Normal termination of Gaussian 16 at Thu Dec 10 10:24:27 2020.
 Gaussian 16:  ES64L-G16RevA.03 25-Dec-2016

 ----------------------------------------------------------------------
 # B3LYP/6-311++G(d,p) empiricaldispersion=gd3bj scf=xqc pop=npa geom=c
 heck
 ----------------------------------------------------------------------

 ------------------------------------
 CID_112657987_JID_4497_Energie_anion
 ------------------------------------
 Structure from the checkpoint file:  "JID_4497.chk"
 Charge = -1 Multiplicity = 2

                         Standard orientation:
 ---------------------------------------------------------------------
 Center     Atomic      Atomic             Coordinates (Angstroms)
 Number     Number       Type             X           Y           Z
 ---------------------------------------------------------------------
      1          6           0        0.302717    1.689479    2.099437
      2          7           0        0.305424    0.627072    1.080876
      3          6           0       -0.490029   -0.564456    1.445220
      4          6           0       -2.022070   -0.467574    1.283612
      5         16           0       -2.588627   -1.429364   -0.182734
      6          6           0       -3.871516   -0.311284   -0.841790
      7         16           0        0.175559    1.248507   -0.495837
      8          8           0       -1.214914    1.528718   -0.886997
      9          8           0        1.155829    2.339690   -0.574480
     10          6           0        0.770932   -0.125186   -1.515766
     11          6           0        2.267703   -0.363887   -1.356917
     12          6           0        2.611567   -1.236528   -0.169504
     13          8           0        1.935810   -2.152249    0.249958
     14          8           0        3.817372   -0.921874    0.347271
     15          1           0        0.702896    1.262969    3.023331
     16          1           0       -0.702262    2.088200    2.295743
     17          1           0        0.952672    2.500380    1.772117
     18          1           0       -0.091191   -1.419952    0.897817
     19          1           0       -0.239888   -0.740926    2.495908
     20          1           0       -2.520563   -0.859013    2.175063
     21          1           0       -2.331334    0.570340    1.145464
     22          1           0       -3.421694    0.649988   -1.096810
     23          1           0       -4.268646   -0.782134   -1.745029
     24          1           0       -4.688687   -0.180161   -0.126883
     25          1           0        0.162535   -1.004102   -1.293468
     26          1           0        0.525815    0.210512   -2.526954
     27          1           0        2.633779   -0.893943   -2.246093
     28          1           0        2.808855    0.582877   -1.299964
     29          1           0        3.980240   -1.558474    1.069001
 ---------------------------------------------------------------------

 SCF Done:  E(UB3LYP) =  -1428.04208142     A.U. after   33 cycles
 SCF Done:  E(UB3LYP) =  -1428.04208142     a.u. after    1 cycles

 The electronic state is 2-A.
 Alpha  occ. eigenvalues --  -88.96821 -88.74775 -19.07096 -19.02492 -19.02331
 Alpha  occ. eigenvalues --  -19.01800 -14.25694 -10.21069 -10.12424 -10.11922
 Alpha  occ. eigenvalues --  -10.10982 -10.10843 -10.10355 -10.10257  -8.03082
 Alpha  occ. eigenvalues --   -7.83390  -5.99353  -5.99316  -5.99161  -5.79799
 Alpha  occ. eigenvalues --   -5.79432  -5.78730  -1.02580  -1.01325  -0.92440
 Alpha  occ. eigenvalues --   -0.91431  -0.84755  -0.72807  -0.71495  -0.65520
 Alpha  occ. eigenvalues --   -0.63983  -0.59821  -0.57754  -0.51653  -0.50773
 Alpha  occ. eigenvalues --   -0.47332  -0.43855  -0.41743  -0.41321  -0.40182
 Alpha  occ. eigenvalues --   -0.39214  -0.37340  -0.36444  -0.35876  -0.35115
 Alpha  occ. eigenvalues --   -0.33895  -0.33705  -0.33203  -0.32238  -0.31636
 Alpha  occ. eigenvalues --   -0.31192  -0.29746  -0.29081  -0.28887  -0.26573
 Alpha  occ. eigenvalues --   -0.24804  -0.23450  -0.22912  -0.22315  -0.21979
 Alpha  occ. eigenvalues --   -0.21221  -0.19030  -0.16669  -0.13258   0.04174
 Alpha virt. eigenvalues --    0.05837   0.06317   0.07368   0.08208   0.09004
 Alpha virt. eigenvalues --    0.09403   0.10053   0.10226   0.10881   0.11453
 Alpha virt. eigenvalues --    0.11798   0.12003   0.12720   0.13305   0.13775

  Beta  occ. eigenvalues --  -88.96820 -88.74773 -19.07034 -19.02489 -19.02328
  Beta  occ. eigenvalues --  -19.01772 -14.25692 -10.21025 -10.12411 -10.11906
  Beta  occ. eigenvalues --  -10.10950 -10.10825 -10.10349 -10.10221  -8.03082
  Beta  occ. eigenvalues --   -7.83388  -5.99351  -5.99315  -5.99161  -5.79797
  Beta  occ. eigenvalues --   -5.79427  -5.78729  -1.02574  -1.01221  -0.92358
  Beta  occ. eigenvalues --   -0.91426  -0.84742  -0.72763  -0.71477  -0.65497
  Beta  occ. eigenvalues --   -0.63911  -0.59751  -0.57717  -0.51574  -0.50706
  Beta  occ. eigenvalues --   -0.47279  -0.43834  -0.41700  -0.41263  -0.40134
  Beta  occ. eigenvalues --   -0.39166  -0.37232  -0.36423  -0.35850  -0.35068
  Beta  occ. eigenvalues --   -0.33873  -0.33684  -0.33166  -0.32208  -0.31586
  Beta  occ. eigenvalues --   -0.31129  -0.29693  -0.29035  -0.28843  -0.26555
  Beta  occ. eigenvalues --   -0.24788  -0.23442  -0.22813  -0.22295  -0.21950
  Beta  occ. eigenvalues --   -0.21205  -0.18976  -0.16653  -0.13248
  Beta virt. eigenvalues --    0.06255   0.06912   0.07114   0.08448   0.08617
  Beta virt. eigenvalues --    0.09291   0.09775   0.10369   0.10754   0.11093
  Beta virt. eigenvalues --    0.11542   0.12066   0.12119   0.12849   0.13325

 Mulliken charges and spin densities:
               1          2
     1  C    0.504959  -0.741650
     2  N   -0.175677   0.178794
     3  C   -0.037208  -0.522319
     4  C   -0.499266   0.035472
     5  S    0.322216  -0.005985
     6  C   -0.601973  -0.175740
     7  S    0.576277  -0.366778
     8  O   -0.069622   0.009399
     9  O   -0.200680   0.009024
    10  C   -1.155678   0.644910
    11  C    1.247562  -1.601581
    12  C    0.071913  -0.199854
    13  O   -0.251722   0.021086
    14  O   -0.164425   0.083587
    15  H   -0.378418   0.548799
    16  H   -0.085450   0.230105
    17  H    0.067508   0.109993
    18  H    0.213614  -0.012900
    19  H   -0.153646   0.316520
    20  H   -0.339508   0.593568
    21  H    0.338657  -0.195012
    22  H    0.198352   0.031867
    23  H    0.115006   0.031331
    24  H    0.015753   0.142494
    25  H    0.435155  -0.189245
    26  H    0.050703   0.178444
    27  H   -0.940586   1.166880
    28  H    0.394052  -0.117445
    29  H   -0.497868   0.796237
 Sum of Mulliken charges =  -1.00000   1.00000

 Dipole moment (field-independent basis, Debye):
    X=             -6.3157    Y=              2.2567    Z=             -2.5665  Tot=              7.1811
 Quadrupole moment (field-independent basis, Debye-Ang):
   XX=           -163.3192   YY=           -142.0086   ZZ=           -145.6517
   XY=              7.9344   XZ=              2.4731   YZ=              3.5655

 Summary of Natural Population Analysis:

                                       Natural Population
                Natural  -----------------------------------------------
    Atom  No    Charge         Core      Valence    Rydberg      Total
 -----------------------------------------------------------------------
      C    1   -0.18253      0.99962     2.17371    0.00920     3.18253
      N    2   -0.36911      0.99975     2.85350    0.01585     3.86911
      C    3   -0.10258      0.99957     2.08810    0.01491     3.10258
      C    4   -0.26244      0.99959     2.25236    0.01049     3.26244
      S    5    0.08035      4.99964     2.90188    0.01812     7.91965
      C    6   -0.35014      0.99962     2.34545    0.00507     3.35014
      S    7    1.09784      4.99924     1.80589    0.09703     6.90216
      O    8   -0.47175      0.99990     3.46637    0.00548     4.47175
      O    9   -0.46680      0.99991     3.46155    0.00534     4.46680
      C   10   -0.29215      0.99957     2.27918    0.01340     3.29215
      C   11   -0.25156      0.99956     2.24123    0.01077     3.25156
      C   12    0.41570      0.99972     1.55902    0.02556     2.58430
      O   13   -0.31400      0.99987     3.30736    0.00677     4.31400
      O   14   -0.33843      0.99988     3.33175    0.00681     4.33843
      H   15    0.10429      0.00000     0.39410    0.00161     0.39571
      H   16    0.08800      0.00000     0.41073    0.00127     0.41200
      H   17    0.11277      0.00000     0.38612    0.00111     0.38723
      H   18    0.11741      0.00000     0.38061    0.00198     0.38259
      H   19    0.10802      0.00000     0.39003    0.00195     0.39198
      H   20    0.10361      0.00000     0.39433    0.00206     0.39639
      H   21    0.11276      0.00000     0.38570    0.00154     0.38724
      H   22    0.11471      0.00000     0.38349    0.00180     0.38529
      H   23    0.10301      0.00000     0.39605    0.00094     0.39699
      H   24    0.09694      0.00000     0.40152    0.00154     0.40306
      H   25    0.12982      0.00000     0.36817    0.00201     0.37018
      H   26    0.11973      0.00000     0.37895    0.00132     0.38027
      H   27    0.12591      0.00000     0.36960    0.00449     0.37409
      H   28    0.12456      0.00000     0.37389    0.00155     0.37544
      H   29    0.24605      0.00000     0.23461    0.01935     0.25395
 =======================================================================
   * Total *    0.00000     21.99543    41.71526    0.28931    64.00000

 Normal termination of Gaussian 16 at Thu Dec 10 10:37:57 2020.
