 Gaussian 16, Revision A.03,

 -----------------------------------------------------------
 # opt freq B3LYP/6-31G(d) empiricaldispersion=gd3bj scf=xqc
 -----------------------------------------------------------

 -------------------------------
 CID_111894395_JID_5339_neutraal
 -------------------------------
 Symbolic Z-matrix:
 Charge =  0 Multiplicity = 1

 SCF Done:  E(RB3LYP) =  -672.489025869     A.U. after   13 cycles
 SCF Done:  E(RB3LYP) =  -672.496767289     A.U. after   12 cycles
 SCF Done:  E(RB3LYP) =  -672.496664899     A.U. after   12 cycles
 SCF Done:  E(RB3LYP) =  -672.499723636     A.U. after   11 cycles
 SCF Done:  E(RB3LYP) =  -672.501482791     A.U. after   12 cycles
 SCF Done:  E(RB3LYP) =  -672.502500586     A.U. after   14 cycles
 SCF Done:  E(RB3LYP) =  -672.503679115     A.U. after   11 cycles
 SCF Done:  E(RB3LYP) =  -672.504048411     A.U. after   11 cycles
 SCF Done:  E(RB3LYP) =  -672.504278344     A.U. after   11 cycles
 SCF Done:  E(RB3LYP) =  -672.504505583     A.U. after   10 cycles
 SCF Done:  E(RB3LYP) =  -672.505045990     A.U. after    9 cycles
 SCF Done:  E(RB3LYP) =  -672.505050831     A.U. after    9 cycles
 SCF Done:  E(RB3LYP) =  -672.505051094     A.U. after    8 cycles
 SCF Done:  E(RB3LYP) =  -672.505051275     A.U. after    7 cycles
 SCF Done:  E(RB3LYP) =  -672.505051326     A.U. after    7 cycles
 SCF Done:  E(RB3LYP) =  -672.505051346     A.U. after    6 cycles
 Optimization completed.
    -- Stationary point found.
 Normal termination of Gaussian 16 at Thu Dec 10 15:58:39 2020.

 --------------------------------------------------------------------
 #N Geom=AllCheck Guess=TCheck SCRF=Check GenChk RB3LYP/6-31G(d) Freq
 --------------------------------------------------------------------

 Structure from the checkpoint file:  "JID_5339.chk"
 -------------------------------
 CID_111894395_JID_5339_neutraal
 -------------------------------
 Charge =  0 Multiplicity = 1

 SCF Done:  E(RB3LYP) =  -672.505051346     A.U. after    1 cycles

  Exact polarizability: 168.195  -2.910 145.354  -0.213  -2.478 113.165
 Approx polarizability: 214.894  -0.741 194.392  -4.034  -3.490 164.670

                      1                      2                      3
                      A                      A                      A
 Frequencies --     27.6330                34.9920                42.3400
 Red. masses --      3.2419                 3.8075                 3.4290
 Frc consts  --      0.0015                 0.0027                 0.0036
 IR Inten    --      0.3564                 0.0668                 0.7835

                      4                      5                      6
                      A                      A                      A
 Frequencies --     56.5079                63.4344                96.2869
 Red. masses --      3.1237                 3.0270                 2.8137
 Frc consts  --      0.0059                 0.0072                 0.0154
 IR Inten    --      0.4937                 0.1448                 1.8388

                      7                      8                      9
                      A                      A                      A
 Frequencies --    107.8163               131.5652               149.7998
 Red. masses --      3.7266                 3.0746                 2.3192
 Frc consts  --      0.0255                 0.0314                 0.0307
 IR Inten    --      0.3548                 2.2343                 1.0212

                     10                     11                     12
                      A                      A                      A
 Frequencies --    184.7697               192.2966               203.5247
 Red. masses --      1.7850                 2.2570                 1.8537
 Frc consts  --      0.0359                 0.0492                 0.0452
 IR Inten    --      5.0816                 3.7388                 1.2645

                     13                     14                     15
                      A                      A                      A
 Frequencies --    223.0661               245.2029               274.3562
 Red. masses --      1.4206                 1.9247                 1.5129
 Frc consts  --      0.0416                 0.0682                 0.0671
 IR Inten    --      1.0791                 2.1514                 3.7968

                     16                     17                     18
                      A                      A                      A
 Frequencies --    307.6222               314.1763               328.9004
 Red. masses --      2.2030                 2.3338                 2.1272
 Frc consts  --      0.1228                 0.1357                 0.1356
 IR Inten    --      4.6803                 3.0641                 1.9513

                     19                     20                     21
                      A                      A                      A
 Frequencies --    349.6446               399.9647               440.7218
 Red. masses --      2.2316                 2.7200                 2.7728
 Frc consts  --      0.1607                 0.2564                 0.3173
 IR Inten    --      1.1470                 5.9794                 1.3711

                     22                     23                     24
                      A                      A                      A
 Frequencies --    465.2548               478.5189               531.5720
 Red. masses --      2.7334                 2.8377                 2.1549
 Frc consts  --      0.3486                 0.3828                 0.3588
 IR Inten    --      8.6085                17.7071                14.0330

                     25                     26                     27
                      A                      A                      A
 Frequencies --    549.8548               600.7924               681.5311
 Red. masses --      2.1956                 1.6440                 1.4525
 Frc consts  --      0.3911                 0.3496                 0.3975
 IR Inten    --     14.9724                95.1324                18.4296

                     28                     29                     30
                      A                      A                      A
 Frequencies --    721.6258               733.7856               773.2037
 Red. masses --      2.7608                 6.2654                 2.2983
 Frc consts  --      0.8470                 1.9877                 0.8095
 IR Inten    --     21.0218                49.8878                 2.8894

                     31                     32                     33
                      A                      A                      A
 Frequencies --    792.5704               804.1143               828.0692
 Red. masses --      1.2970                 1.3602                 1.9271
 Frc consts  --      0.4800                 0.5182                 0.7785
 IR Inten    --      4.9134                20.8811                 4.3781

                     34                     35                     36
                      A                      A                      A
 Frequencies --    855.6868               875.1805               894.9870
 Red. masses --      1.6595                 1.9805                 1.8401
 Frc consts  --      0.7159                 0.8938                 0.8684
 IR Inten    --      9.2575                11.0242                 6.5535

                     37                     38                     39
                      A                      A                      A
 Frequencies --    916.1022               933.3485               942.6999
 Red. masses --      2.2632                 1.9826                 1.7180
 Frc consts  --      1.1191                 1.0176                 0.8995
 IR Inten    --      6.4812                 5.9596                 0.6055

                     40                     41                     42
                      A                      A                      A
 Frequencies --    985.8803               994.7195              1028.7746
 Red. masses --      1.6880                 2.3896                 2.5612
 Frc consts  --      0.9667                 1.3931                 1.5971
 IR Inten    --     11.7831                 0.2714                 9.5800

                     43                     44                     45
                      A                      A                      A
 Frequencies --   1060.1112              1078.7894              1096.8592
 Red. masses --      1.4410                 1.8320                 2.3525
 Frc consts  --      0.9542                 1.2562                 1.6675
 IR Inten    --      1.2210                12.3476                23.2377

                     46                     47                     48
                      A                      A                      A
 Frequencies --   1102.8547              1114.7015              1118.6621
 Red. masses --      2.2276                 2.0998                 2.0011
 Frc consts  --      1.5963                 1.5372                 1.4754
 IR Inten    --      1.7497                14.4100                 4.4455

                     49                     50                     51
                      A                      A                      A
 Frequencies --   1125.1443              1161.6830              1167.2473
 Red. masses --      1.4004                 2.4641                 1.5406
 Frc consts  --      1.0446                 1.9592                 1.2367
 IR Inten    --      1.8991                34.4138                10.3024

                     52                     53                     54
                      A                      A                      A
 Frequencies --   1173.4003              1193.2848              1207.4928
 Red. masses --      3.5235                 1.7902                 2.0383
 Frc consts  --      2.8583                 1.5019                 1.7510
 IR Inten    --    116.2909                 2.5546                 9.7013

                     55                     56                     57
                      A                      A                      A
 Frequencies --   1211.9322              1214.0255              1265.1415
 Red. masses --      1.7770                 1.6684                 1.4628
 Frc consts  --      1.5378                 1.4488                 1.3795
 IR Inten    --     44.2764                 2.5421                26.6882

                     58                     59                     60
                      A                      A                      A
 Frequencies --   1269.1724              1327.6869              1337.5773
 Red. masses --      1.2222                 1.6143                 1.1655
 Frc consts  --      1.1599                 1.6766                 1.2286
 IR Inten    --      6.9575                85.2563                17.2648

                     61                     62                     63
                      A                      A                      A
 Frequencies --   1350.0267              1359.6819              1396.9667
 Red. masses --      1.4601                 1.1515                 1.3421
 Frc consts  --      1.5679                 1.2543                 1.5431
 IR Inten    --    107.5273                13.9406                82.4103

                     64                     65                     66
                      A                      A                      A
 Frequencies --   1405.1592              1408.7624              1413.3733
 Red. masses --      1.2890                 1.2924                 1.2896
 Frc consts  --      1.4996                 1.5112                 1.5178
 IR Inten    --      2.4592                 5.4220                 5.8970

                     67                     68                     69
                      A                      A                      A
 Frequencies --   1429.4773              1433.2630              1438.7246
 Red. masses --      1.2938                 1.4709                 1.2645
 Frc consts  --      1.5577                 1.7803                 1.5422
 IR Inten    --     34.9684                15.7456                13.2327

                     70                     71                     72
                      A                      A                      A
 Frequencies --   1447.1666              1449.3786              1471.5162
 Red. masses --      1.3239                 1.4257                 1.7649
 Frc consts  --      1.6336                 1.7646                 2.2516
 IR Inten    --     15.7554                 2.6735                21.9032

                     73                     74                     75
                      A                      A                      A
 Frequencies --   1505.1515              1510.5858              1512.6141
 Red. masses --      1.0955                 1.3178                 1.0674
 Frc consts  --      1.4622                 1.7717                 1.4389
 IR Inten    --     24.7106                 6.5611                 0.6296

                     76                     77                     78
                      A                      A                      A
 Frequencies --   1517.3357              1519.5872              1526.3121
 Red. masses --      1.0487                 1.0686                 1.0706
 Frc consts  --      1.4225                 1.4538                 1.4695
 IR Inten    --     13.2173                 9.8477                 2.9012

                     79                     80                     81
                      A                      A                      A
 Frequencies --   1527.1952              1527.9646              1533.6696
 Red. masses --      1.0633                 1.0618                 1.0819
 Frc consts  --      1.4612                 1.4605                 1.4994
 IR Inten    --      6.1683                 2.3831                 7.7588

                     82                     83                     84
                      A                      A                      A
 Frequencies --   1540.2691              1548.6384              1571.0810
 Red. masses --      1.0988                 1.0655                 1.4613
 Frc consts  --      1.5359                 1.5056                 2.1252
 IR Inten    --      3.4176                 0.2902               139.8449

                     85                     86                     87
                      A                      A                      A
 Frequencies --   1747.4541              2964.4642              3001.1428
 Red. masses --      5.4560                 1.0579                 1.0965
 Frc consts  --      9.8161                 5.4778                 5.8190
 IR Inten    --    623.2194                52.9155                17.6601

                     88                     89                     90
                      A                      A                      A
 Frequencies --   3026.1252              3048.6866              3048.8201
 Red. masses --      1.0695                 1.0390                 1.0498
 Frc consts  --      5.7703                 5.6898                 5.7493
 IR Inten    --     86.8059                32.7459                40.5219

                     91                     92                     93
                      A                      A                      A
 Frequencies --   3049.4404              3051.1687              3079.2294
 Red. masses --      1.0359                 1.0455                 1.0702
 Frc consts  --      5.6757                 5.7344                 5.9784
 IR Inten    --     14.7249                19.7781                35.4057

                     94                     95                     96
                      A                      A                      A
 Frequencies --   3082.3355              3086.9974              3090.0253
 Red. masses --      1.0870                 1.0993                 1.1058
 Frc consts  --      6.0847                 6.1720                 6.2211
 IR Inten    --     51.8253                53.4842                45.2434

                     97                     98                     99
                      A                      A                      A
 Frequencies --   3105.7097              3111.6432              3114.3357
 Red. masses --      1.1015                 1.1008                 1.1009
 Frc consts  --      6.2597                 6.2798                 6.2913
 IR Inten    --     27.0012                15.4877                37.9899

                    100                    101                    102
                      A                      A                      A
 Frequencies --   3129.8304              3136.0194              3141.8667
 Red. masses --      1.0993                 1.0969                 1.1020
 Frc consts  --      6.3448                 6.3558                 6.4090
 IR Inten    --     32.9051                 5.7873                38.7636

                    103                    104                    105
                      A                      A                      A
 Frequencies --   3144.7816              3146.9192              3159.4599
 Red. masses --      1.0985                 1.0563                 1.0911
 Frc consts  --      6.4008                 6.1632                 6.4172
 IR Inten    --     36.4539                11.5820                34.5785

                    106                    107                    108
                      A                      A                      A
 Frequencies --   3232.2402              3571.8025              3581.9745
 Red. masses --      1.1180                 1.0744                 1.0750
 Frc consts  --      6.8817                 8.0758                 8.1268
 IR Inten    --     13.3707                28.9543                11.6775

 - Thermochemistry -
 -------------------
 Temperature   298.150 Kelvin.  Pressure   1.00000 Atm.
 Atom     1 has atomic number  6 and mass  12.00000

 Molecular mass:   213.18411 amu.
 Principal axes and moments of inertia in atomic units:
                           1         2         3
     Eigenvalues --  2336.208265607.948767010.22194
           X            0.99998   0.00316   0.00554
           Y           -0.00319   0.99998   0.00473
           Z           -0.00552  -0.00475   0.99997
 This molecule is an asymmetric top.
 Rotational symmetry number  1.
 Warning -- assumption of classical behavior for rotation
           may cause significant error
 Rotational temperatures (Kelvin)      0.03707     0.01544     0.01236
 Rotational constants (GHZ):           0.77251     0.32182     0.25744
 Zero-point vibrational energy     903091.1 (Joules/Mol)
                                  215.84394 (Kcal/Mol)
 Warning -- explicit consideration of  26 degrees of freedom as
           vibrations may cause significant error
 Vibrational temperatures:     39.76    50.35    60.92    81.30    91.27
          (Kelvin)            138.54   155.12   189.29   215.53   265.84
                              276.67   292.83   320.94   352.79   394.74
                              442.60   452.03   473.21   503.06   575.46
                              634.10   669.40   688.48   764.81   791.12
                              864.41   980.57  1038.26  1055.75  1112.47
                             1140.33  1156.94  1191.41  1231.14  1259.19
                             1287.69  1318.07  1342.88  1356.33  1418.46
                             1431.18  1480.18  1525.26  1552.14  1578.14
                             1586.76  1603.81  1609.51  1618.83  1671.40
                             1679.41  1688.26  1716.87  1737.31  1743.70
                             1746.71  1820.26  1826.06  1910.25  1924.48
                             1942.39  1956.28  2009.92  2021.71  2026.89
                             2033.53  2056.70  2062.15  2070.00  2082.15
                             2085.33  2117.18  2165.58  2173.40  2176.31
                             2183.11  2186.35  2196.02  2197.29  2198.40
                             2206.61  2216.10  2228.15  2260.44  2514.20
                             4265.20  4317.98  4353.92  4386.38  4386.57
                             4387.46  4389.95  4430.32  4434.79  4441.50
                             4445.86  4468.42  4476.96  4480.83  4503.13
                             4512.03  4520.45  4524.64  4527.71  4545.76
                             4650.47  5139.03  5153.66

 Zero-point correction=                           0.343969 (Hartree/Particle)
 Thermal correction to Energy=                    0.361734
 Thermal correction to Enthalpy=                  0.362678
 Thermal correction to Gibbs Free Energy=         0.296768
 Sum of electronic and zero-point Energies=           -672.161082
 Sum of electronic and thermal Energies=              -672.143318
 Sum of electronic and thermal Enthalpies=            -672.142374
 Sum of electronic and thermal Free Energies=         -672.208283

                     E (Thermal)             CV                S
                      KCal/Mol        Cal/Mol-Kelvin    Cal/Mol-Kelvin
 Total                  226.991             64.979            138.718
 Electronic               0.000              0.000              0.000
 Translational            0.889              2.981             41.974
 Rotational               0.889              2.981             32.885
 Vibrational            225.214             59.018             63.859
 Vibration     1          0.593              1.984              5.992
 Vibration     2          0.594              1.982              5.524
 Vibration     3          0.595              1.980              5.146
 Vibration     4          0.596              1.975              4.576
 Vibration     5          0.597              1.972              4.347
 Vibration     6          0.603              1.952              3.528
 Vibration     7          0.606              1.943              3.308
 Vibration     8          0.612              1.922              2.923
 Vibration     9          0.618              1.903              2.675
 Vibration    10          0.631              1.861              2.280
 Vibration    11          0.634              1.851              2.206
 Vibration    12          0.639              1.835              2.101
 Vibration    13          0.649              1.806              1.934
 Vibration    14          0.660              1.771              1.765
 Vibration    15          0.677              1.721              1.569
 Vibration    16          0.697              1.659              1.375
 Vibration    17          0.702              1.647              1.340
 Vibration    18          0.712              1.618              1.265
 Vibration    19          0.727              1.576              1.168
 Vibration    20          0.766              1.470              0.963
 Vibration    21          0.801              1.381              0.824
 Vibration    22          0.823              1.327              0.751
 Vibration    23          0.835              1.298              0.714
 Vibration    24          0.887              1.180              0.584
 Vibration    25          0.905              1.140              0.544
 Vibration    26          0.959              1.030              0.448

 Optimization completed.
    -- Stationary point found.
 Normal termination of Gaussian 16 at Thu Dec 10 16:09:53 2020.

 ----------------------------------------------------------------------
 # B3LYP/6-311++G(d,p) empiricaldispersion=gd3bj scf=xqc pop=npa geom=c
 heck
 ----------------------------------------------------------------------

 ---------------------------------------
 CID_111894395_JID_5339_Energie_neutraal
 ---------------------------------------
 Structure from the checkpoint file:  "JID_5339.chk"
 Charge =  0 Multiplicity = 1

 SCF Done:  E(RB3LYP) =  -672.701411456     A.U. after   13 cycles
 Normal termination of Gaussian 16 at Thu Dec 10 16:14:39 2020.

 ----------------------------------------------------------------------
 # B3LYP/6-311++G(d,p) empiricaldispersion=gd3bj scf=xqc pop=npa geom=c
 heck
 ----------------------------------------------------------------------

 -------------------------------------
 CID_111894395_JID_5339_Energie_kation
 -------------------------------------
 Structure from the checkpoint file:  "JID_5339.chk"
 Charge =  1 Multiplicity = 2

 SCF Done:  E(UB3LYP) =  -672.422438868     A.U. after   24 cycles
 Normal termination of Gaussian 16 at Thu Dec 10 16:27:04 2020.
 Gaussian 16:  ES64L-G16RevA.03 25-Dec-2016

 ----------------------------------------------------------------------
 # B3LYP/6-311++G(d,p) empiricaldispersion=gd3bj scf=xqc pop=npa geom=c
 heck
 ----------------------------------------------------------------------

 ------------------------------------
 CID_111894395_JID_5339_Energie_anion
 ------------------------------------
 Structure from the checkpoint file:  "JID_5339.chk"
 Charge = -1 Multiplicity = 2

                         Standard orientation:
 ---------------------------------------------------------------------
 Center     Atomic      Atomic             Coordinates (Angstroms)
 Number     Number       Type             X           Y           Z
 ---------------------------------------------------------------------
      1          6           0        0.489619    2.497685    1.668212
      2          6           0        0.456875    2.799784    0.169092
      3          7           0        0.900872    1.680385   -0.674730
      4          6           0        0.360881    0.404368   -0.509600
      5          7           0       -0.873305    0.066198   -0.407508
      6          6           0       -1.941957    1.026999   -0.589746
      7          6           0       -3.265468    0.319659   -0.891768
      8          8           0       -3.937862   -0.206302    0.241385
      9          6           0       -3.285251   -1.255934    0.953737
     10          6           0       -3.034049   -2.511882    0.125473
     11          7           0        1.300726   -0.630897   -0.461489
     12          6           0        2.653124   -0.506434   -0.904325
     13          6           0        3.666840    0.125422    0.038954
     14          6           0        3.700830   -1.356822   -0.221072
     15          6           0        3.323663   -2.338428    0.866500
     16          1           0        1.505476    2.249997    1.998000
     17          1           0       -0.159018    1.646825    1.900607
     18          1           0        0.143488    3.362679    2.245246
     19          1           0       -0.547168    3.107408   -0.127637
     20          1           0        1.120090    3.638571   -0.067195
     21          1           0        1.911507    1.648258   -0.733427
     22          1           0       -2.106214    1.649248    0.305408
     23          1           0       -1.727822    1.715322   -1.425634
     24          1           0       -3.969888    1.047541   -1.310167
     25          1           0       -3.088325   -0.454682   -1.652547
     26          1           0       -2.337060   -0.903671    1.377854
     27          1           0       -3.968759   -1.480392    1.780326
     28          1           0       -2.257937   -2.332569   -0.623683
     29          1           0       -2.690962   -3.323542    0.778428
     30          1           0       -3.951899   -2.837578   -0.376854
     31          1           0        0.854268   -1.522716   -0.639061
     32          1           0        2.807470   -0.320260   -1.970641
     33          1           0        4.445486    0.755420   -0.382291
     34          1           0        3.288306    0.445657    1.005750
     35          1           0        4.496142   -1.696496   -0.881683
     36          1           0        3.007279   -3.298840    0.441324
     37          1           0        4.178243   -2.530117    1.525305
     38          1           0        2.501501   -1.951946    1.474829
 ---------------------------------------------------------------------

 SCF Done:  E(UB3LYP) =  -672.689819247     A.U. after   30 cycles

 The electronic state is 2-A.
 Alpha  occ. eigenvalues --  -19.02846 -14.22869 -14.22668 -14.17200 -10.16809
 Alpha  occ. eigenvalues --  -10.11953 -10.11939 -10.11504 -10.11004 -10.09731
 Alpha  occ. eigenvalues --  -10.08668 -10.07590 -10.06955 -10.06943 -10.06806
 Alpha  occ. eigenvalues --   -0.93794  -0.88891  -0.81324  -0.78444  -0.74343
 Alpha  occ. eigenvalues --   -0.67340  -0.65656  -0.63430  -0.61873  -0.56546
 Alpha  occ. eigenvalues --   -0.54284  -0.51418  -0.48931  -0.47456  -0.46589
 Alpha  occ. eigenvalues --   -0.43846  -0.41608  -0.40798  -0.40492  -0.38731
 Alpha  occ. eigenvalues --   -0.37091  -0.35761  -0.34790  -0.33858  -0.33282
 Alpha  occ. eigenvalues --   -0.32375  -0.31722  -0.31362  -0.30266  -0.29487
 Alpha  occ. eigenvalues --   -0.29366  -0.28523  -0.27969  -0.26833  -0.26297
 Alpha  occ. eigenvalues --   -0.26062  -0.25478  -0.21611  -0.20468  -0.19537
 Alpha  occ. eigenvalues --   -0.17635  -0.16045  -0.14598  -0.12005   0.04173
 Alpha virt. eigenvalues --    0.06107   0.06569   0.07277   0.07938   0.08208
 Alpha virt. eigenvalues --    0.08530   0.09046   0.09350   0.10306   0.10538
 Alpha virt. eigenvalues --    0.11078   0.11366   0.11677   0.12011   0.12223

  Beta  occ. eigenvalues --  -19.02846 -14.22857 -14.22660 -14.17195 -10.16810
  Beta  occ. eigenvalues --  -10.11950 -10.11936 -10.11488 -10.10981 -10.09725
  Beta  occ. eigenvalues --  -10.08651 -10.07556 -10.06950 -10.06920 -10.06780
  Beta  occ. eigenvalues --   -0.93792  -0.88876  -0.81296  -0.78426  -0.74310
  Beta  occ. eigenvalues --   -0.67332  -0.65618  -0.63416  -0.61828  -0.56526
  Beta  occ. eigenvalues --   -0.54239  -0.51371  -0.48883  -0.47432  -0.46557
  Beta  occ. eigenvalues --   -0.43805  -0.41557  -0.40773  -0.40465  -0.38698
  Beta  occ. eigenvalues --   -0.37053  -0.35746  -0.34771  -0.33843  -0.33266
  Beta  occ. eigenvalues --   -0.32348  -0.31689  -0.31327  -0.30242  -0.29472
  Beta  occ. eigenvalues --   -0.29332  -0.28496  -0.27952  -0.26812  -0.26262
  Beta  occ. eigenvalues --   -0.26029  -0.25451  -0.21607  -0.20436  -0.19506
  Beta  occ. eigenvalues --   -0.17628  -0.16023  -0.14586  -0.11987
  Beta virt. eigenvalues --    0.06236   0.06879   0.07090   0.07567   0.08428
  Beta virt. eigenvalues --    0.08631   0.08975   0.09274   0.09643   0.10649
  Beta virt. eigenvalues --    0.10800   0.11405   0.11532   0.11879   0.12148

 Mulliken charges and spin densities:
               1          2
     1  C    0.497283  -0.935414
     2  C   -0.302615   0.036886
     3  N   -0.027282  -0.052794
     4  C    0.046027  -0.429753
     5  N   -0.078492  -0.036952
     6  C    0.225467  -0.245200
     7  C   -0.153618  -0.473762
     8  O   -0.117368   0.000684
     9  C   -0.272533   0.102792
    10  C   -0.237037  -0.235072
    11  N   -0.047184   0.037231
    12  C   -1.269857   0.823699
    13  C    1.125019  -1.672165
    14  C   -0.188878   0.667617
    15  C    0.983168  -1.724387
    16  H    0.020154   0.099686
    17  H   -0.040090   0.195564
    18  H   -0.199385   0.348723
    19  H    0.084460   0.071552
    20  H   -0.904671   1.100875
    21  H    0.538720  -0.227343
    22  H    0.158273   0.011201
    23  H    0.023057   0.108090
    24  H    0.125209   0.021963
    25  H    0.133788   0.014340
    26  H    0.175595  -0.025754
    27  H    0.079614   0.072391
    28  H    0.060491   0.101815
    29  H    0.047251   0.065509
    30  H    0.122940   0.010163
    31  H    0.372638  -0.073596
    32  H   -0.564517   0.799895
    33  H   -0.575575   0.757241
    34  H    0.112298   0.061932
    35  H   -0.598212   0.823211
    36  H   -0.193210   0.322989
    37  H   -0.155120   0.296419
    38  H   -0.005805   0.179723
 Sum of Mulliken charges =  -1.00000   1.00000

 Dipole moment (field-independent basis, Debye):
    X=             -8.5199    Y=             -1.9917    Z=              0.8648  Tot=              8.7923
 Quadrupole moment (field-independent basis, Debye-Ang):
   XX=           -189.7740   YY=           -153.0738   ZZ=           -127.6882
   XY=             -0.3761   XZ=              9.3966   YZ=             -1.0302

 Summary of Natural Population Analysis:

                                       Natural Population
                Natural  -----------------------------------------------
    Atom  No    Charge         Core      Valence    Rydberg      Total
 -----------------------------------------------------------------------
      C    1   -0.29548      0.99966     2.29071    0.00511     3.29548
      C    2   -0.08774      0.99963     2.07696    0.01116     3.08774
      N    3   -0.33449      0.99968     2.82397    0.01084     3.83449
      C    4    0.32301      0.99957     1.66024    0.01718     2.67699
      N    5   -0.32578      0.99962     2.81488    0.01129     3.82578
      C    6   -0.11454      0.99961     2.10531    0.00962     3.11454
      C    7   -0.00757      0.99957     1.99521    0.01279     3.00757
      O    8   -0.30573      0.99989     3.29648    0.00936     4.30573
      C    9   -0.01176      0.99959     2.00033    0.01184     3.01176
      C   10   -0.30503      0.99966     2.30120    0.00416     3.30503
      N   11   -0.32261      0.99966     2.81303    0.00992     3.82261
      C   12   -0.02738      0.99956     2.01510    0.01272     3.02738
      C   13   -0.20367      0.99960     2.19323    0.01084     3.20367
      C   14   -0.10646      0.99959     2.09583    0.01105     3.10646
      C   15   -0.28906      0.99965     2.28237    0.00704     3.28906
      H   16    0.09890      0.00000     0.39978    0.00132     0.40110
      H   17    0.10094      0.00000     0.39783    0.00123     0.39906
      H   18    0.10053      0.00000     0.39847    0.00100     0.39947
      H   19    0.09189      0.00000     0.40628    0.00184     0.40811
      H   20    0.09888      0.00000     0.39913    0.00199     0.40112
      H   21    0.19657      0.00000     0.29965    0.00378     0.30343
      H   22    0.08805      0.00000     0.40994    0.00202     0.41195
      H   23    0.08833      0.00000     0.40956    0.00211     0.41167
      H   24    0.08542      0.00000     0.41334    0.00124     0.41458
      H   25    0.07949      0.00000     0.41894    0.00157     0.42051
      H   26    0.08946      0.00000     0.40887    0.00166     0.41054
      H   27    0.08107      0.00000     0.41754    0.00139     0.41893
      H   28    0.10710      0.00000     0.39134    0.00155     0.39290
      H   29    0.09852      0.00000     0.40024    0.00124     0.40148
      H   30    0.09373      0.00000     0.40513    0.00114     0.40627
      H   31    0.19245      0.00000     0.30443    0.00311     0.30755
      H   32    0.09728      0.00000     0.40081    0.00191     0.40272
      H   33    0.11033      0.00000     0.38629    0.00338     0.38967
      H   34    0.10430      0.00000     0.39413    0.00158     0.39570
      H   35    0.10617      0.00000     0.39117    0.00266     0.39383
      H   36    0.09904      0.00000     0.39977    0.00118     0.40096
      H   37    0.10170      0.00000     0.39731    0.00098     0.39830
      H   38    0.10415      0.00000     0.39448    0.00137     0.39585
 =======================================================================
   * Total *    0.00000     14.99454    43.80929    0.19617    59.00000

 Normal termination of Gaussian 16 at Thu Dec 10 16:41:57 2020.
