 Gaussian 16, Revision A.03,

 -----------------------------------------------------------
 # opt freq B3LYP/6-31G(d) empiricaldispersion=gd3bj scf=xqc
 -----------------------------------------------------------

 ------------------------------
 CID_154474551_JID_707_neutraal
 ------------------------------
 Symbolic Z-matrix:
 Charge =  0 Multiplicity = 1

 SCF Done:  E(RB3LYP) =  -427.840242502     A.U. after   14 cycles
 SCF Done:  E(RB3LYP) =  -427.842509887     A.U. after   11 cycles
 SCF Done:  E(RB3LYP) =  -427.842708335     A.U. after   10 cycles
 SCF Done:  E(RB3LYP) =  -427.842741850     A.U. after    9 cycles
 SCF Done:  E(RB3LYP) =  -427.842798527     A.U. after    9 cycles
 SCF Done:  E(RB3LYP) =  -427.842824489     A.U. after    9 cycles
 SCF Done:  E(RB3LYP) =  -427.842849114     A.U. after    9 cycles
 SCF Done:  E(RB3LYP) =  -427.842854463     A.U. after    9 cycles
 SCF Done:  E(RB3LYP) =  -427.842864432     A.U. after    9 cycles
 SCF Done:  E(RB3LYP) =  -427.842870335     A.U. after    9 cycles
 SCF Done:  E(RB3LYP) =  -427.842872029     A.U. after    9 cycles
 SCF Done:  E(RB3LYP) =  -427.842872430     A.U. after    8 cycles
 Optimization completed.
    -- Stationary point found.

 1\1\GINC-NODE205\FOpt\RB3LYP\6-31G(d)\C9H16O1\VSC10255\08-Dec-2020\0\\
 # opt freq B3LYP/6-31G(d) empiricaldispersion=gd3bj scf=xqc\\CID_15447
 4551_JID_707_neutraal\\0,1\C,1.0689635239,0.0169723177,-0.0334313723\C
 ,0.3646409169,-1.2528980946,-0.4853211828\C,1.3023076197,-2.2766530392
 ,-1.1877550308\C,1.5458061385,-3.2667405489,-0.0548549844\C,0.66519534
 93,-2.9973336753,0.9140815654\O,-0.1630244542,-1.9320785998,0.69279660
 81\C,2.6566961702,-4.2684945583,0.0221140186\C,0.6575619477,-2.8461975
 955,-2.4790438042\C,0.5975612384,-1.7570166803,-3.5600237532\C,1.37325

 Normal termination of Gaussian 16 at Tue Dec  8 12:27:59 2020.

 --------------------------------------------------------------------
 #N Geom=AllCheck Guess=TCheck SCRF=Check GenChk RB3LYP/6-31G(d) Freq
 --------------------------------------------------------------------

 Structure from the checkpoint file:  "JID_707.chk"
 ------------------------------
 CID_154474551_JID_707_neutraal
 ------------------------------
 Charge =  0 Multiplicity = 1

 SCF Done:  E(RB3LYP) =  -427.842872430     A.U. after    1 cycles

  Exact polarizability: 103.174  -0.382 101.076  -6.332   1.066  78.796
 Approx polarizability: 142.912  -3.281 133.440 -20.336   5.053 126.106

                      1                      2                      3
                      A                      A                      A
 Frequencies --     40.3921                79.3395               145.7398
 Red. masses --      2.9706                 2.6921                 1.1945
 Frc consts  --      0.0029                 0.0100                 0.0149
 IR Inten    --      0.4872                 0.1634                 0.0572

                      4                      5                      6
                      A                      A                      A
 Frequencies --    187.6144               198.5774               239.9855
 Red. masses --      2.4969                 1.9313                 1.0732
 Frc consts  --      0.0518                 0.0449                 0.0364
 IR Inten    --      0.4306                 0.2955                 0.1298

                      7                      8                      9
                      A                      A                      A
 Frequencies --    256.9054               262.5364               281.5290
 Red. masses --      1.9113                 1.2747                 1.8753
 Frc consts  --      0.0743                 0.0518                 0.0876
 IR Inten    --      0.2903                 0.2354                 0.5764

                     10                     11                     12
                      A                      A                      A
 Frequencies --    294.4765               337.3835               381.1162
 Red. masses --      2.0515                 2.0312                 2.3221
 Frc consts  --      0.1048                 0.1362                 0.1987
 IR Inten    --      0.5586                 0.1457                 0.5648

                     13                     14                     15
                      A                      A                      A
 Frequencies --    420.5596               421.5074               505.9667
 Red. masses --      2.4238                 2.7029                 3.1898
 Frc consts  --      0.2526                 0.2829                 0.4811
 IR Inten    --      0.4581                 2.1308                 4.3948

                     16                     17                     18
                      A                      A                      A
 Frequencies --    552.0006               615.1293               764.4025
 Red. masses --      3.0722                 3.6403                 4.9535
 Frc consts  --      0.5516                 0.8116                 1.7053
 IR Inten    --      8.0927                 2.3031                 7.4247

                     19                     20                     21
                      A                      A                      A
 Frequencies --    837.2966               848.6274               882.0438
 Red. masses --      2.0796                 2.7446                 1.4732
 Frc consts  --      0.8590                 1.1646                 0.6753
 IR Inten    --      2.1103                14.6847                 9.3934

                     22                     23                     24
                      A                      A                      A
 Frequencies --    905.4492               916.7972               944.5868
 Red. masses --      2.3330                 2.4812                 1.2038
 Frc consts  --      1.1269                 1.2287                 0.6328
 IR Inten    --      6.9200                 5.2623                 1.6877

                     25                     26                     27
                      A                      A                      A
 Frequencies --    979.7568              1003.5803              1036.5414
 Red. masses --      1.5548                 1.8373                 1.5612
 Frc consts  --      0.8793                 1.0903                 0.9883
 IR Inten    --      0.9347                 6.2045                 2.4796

                     28                     29                     30
                      A                      A                      A
 Frequencies --   1060.0440              1074.8269              1087.9751
 Red. masses --      2.3226                 1.3835                 1.6298
 Frc consts  --      1.5377                 0.9417                 1.1366
 IR Inten    --     19.2850                 1.5657                 3.3210

                     31                     32                     33
                      A                      A                      A
 Frequencies --   1139.1676              1151.0589              1159.0123
 Red. masses --      2.0523                 2.3813                 2.8534
 Frc consts  --      1.5691                 1.8589                 2.2583
 IR Inten    --     15.3999                45.9201                92.8822

                     34                     35                     36
                      A                      A                      A
 Frequencies --   1187.4448              1206.3043              1231.1693
 Red. masses --      2.3003                 1.8077                 1.8690
 Frc consts  --      1.9110                 1.5499                 1.6692
 IR Inten    --      1.4040                 3.6161                 1.1148

                     37                     38                     39
                      A                      A                      A
 Frequencies --   1292.9987              1308.1860              1321.4749
 Red. masses --      1.3681                 1.3649                 1.8534
 Frc consts  --      1.3476                 1.3762                 1.9069
 IR Inten    --      4.3155                15.3180                 9.7491

                     40                     41                     42
                      A                      A                      A
 Frequencies --   1368.1626              1385.6849              1388.9350
 Red. masses --      1.3902                 1.4004                 1.4991
 Frc consts  --      1.5332                 1.5843                 1.7039
 IR Inten    --      8.7214                 2.0523                 3.4677

                     43                     44                     45
                      A                      A                      A
 Frequencies --   1404.2726              1430.0406              1432.8962
 Red. masses --      1.3819                 1.2643                 1.3023
 Frc consts  --      1.6056                 1.5233                 1.5754
 IR Inten    --      6.4654                 3.9095                11.6050

                     46                     47                     48
                      A                      A                      A
 Frequencies --   1447.7805              1453.0914              1504.8139
 Red. masses --      1.2345                 1.2594                 1.0452
 Frc consts  --      1.5246                 1.5668                 1.3945
 IR Inten    --      6.4735                 1.6808                 2.7605

                     49                     50                     51
                      A                      A                      A
 Frequencies --   1516.1080              1518.0971              1524.7676
 Red. masses --      1.0471                 1.0524                 1.0475
 Frc consts  --      1.4181                 1.4290                 1.4349
 IR Inten    --      3.4910                 2.5213                 1.2072

                     52                     53                     54
                      A                      A                      A
 Frequencies --   1527.4822              1530.3439              1537.1648
 Red. masses --      1.0455                 1.0583                 1.0571
 Frc consts  --      1.4372                 1.4602                 1.4717
 IR Inten    --      4.8397                 3.0229                 3.0530

                     55                     56                     57
                      A                      A                      A
 Frequencies --   1547.9383              1738.1460              2996.4895
 Red. masses --      1.0468                 6.2601                 1.0819
 Frc consts  --      1.4778                11.1431                 5.7236
 IR Inten    --     14.8118                41.1890                14.8650

                     58                     59                     60
                      A                      A                      A
 Frequencies --   3023.5486              3028.6634              3038.7321
 Red. masses --      1.0841                 1.0452                 1.0375
 Frc consts  --      5.8390                 5.6488                 5.6445
 IR Inten    --     16.1711                42.8640                24.4494

                     61                     62                     63
                      A                      A                      A
 Frequencies --   3045.3868              3051.9697              3085.3882
 Red. masses --      1.0397                 1.0353                 1.0896
 Frc consts  --      5.6815                 5.6817                 6.1113
 IR Inten    --     38.0600                18.8861                27.5144

                     64                     65                     66
                      A                      A                      A
 Frequencies --   3090.1589              3100.1250              3106.1177
 Red. masses --      1.0886                 1.1010                 1.0992
 Frc consts  --      6.1244                 6.2344                 6.2485
 IR Inten    --     12.8950                 8.1304                66.6465

                     67                     68                     69
                      A                      A                      A
 Frequencies --   3114.0589              3114.8441              3122.7618
 Red. masses --      1.1017                 1.1017                 1.1012
 Frc consts  --      6.2947                 6.2979                 6.3271
 IR Inten    --     30.3379                53.5792                28.4373

                     70                     71                     72
                      A                      A                      A
 Frequencies --   3135.0165              3140.2737              3235.4447
 Red. masses --      1.1030                 1.0978                 1.0969
 Frc consts  --      6.3868                 6.3784                 6.7655
 IR Inten    --     29.6813                28.2113                15.5663

 - Thermochemistry -
 -------------------
 Temperature   298.150 Kelvin.  Pressure   1.00000 Atm.
 Atom     1 has atomic number  6 and mass  12.00000

 Molecular mass:   140.12012 amu.
 Principal axes and moments of inertia in atomic units:
                           1         2         3
     Eigenvalues --  1157.132151488.467362214.97034
           X            0.99975  -0.01219   0.01882
           Y            0.01223   0.99992  -0.00198
           Z           -0.01879   0.00221   0.99982
 This molecule is an asymmetric top.
 Rotational symmetry number  1.
 Warning -- assumption of classical behavior for rotation
           may cause significant error
 Rotational temperatures (Kelvin)      0.07485     0.05819     0.03910
 Rotational constants (GHZ):           1.55967     1.21248     0.81479
 Zero-point vibrational energy     617537.5 (Joules/Mol)
                                  147.59501 (Kcal/Mol)
 Warning -- explicit consideration of  17 degrees of freedom as
           vibrations may cause significant error
 Vibrational temperatures:     58.12   114.15   209.69   269.94   285.71
          (Kelvin)            345.29   369.63   377.73   405.06   423.69
                              485.42   548.34   605.09   606.46   727.97
                              794.21   885.03  1099.80  1204.68  1220.99
                             1269.06  1302.74  1319.07  1359.05  1409.65
                             1443.93  1491.35  1525.17  1546.44  1565.35
                             1639.01  1656.12  1667.56  1708.47  1735.60
                             1771.38  1860.34  1882.19  1901.31  1968.48
                             1993.69  1998.37  2020.44  2057.51  2061.62
                             2083.03  2090.67  2165.09  2181.34  2184.20
                             2193.80  2197.71  2201.82  2211.64  2227.14
                             2500.80  4311.28  4350.21  4357.57  4372.06
                             4381.63  4391.10  4439.19  4446.05  4460.39
                             4469.01  4480.44  4481.57  4492.96  4510.59
                             4518.15  4655.08

 Zero-point correction=                           0.235208 (Hartree/Particle)
 Thermal correction to Energy=                    0.246482
 Thermal correction to Enthalpy=                  0.247426
 Thermal correction to Gibbs Free Energy=         0.198655
 Sum of electronic and zero-point Energies=           -427.607665
 Sum of electronic and thermal Energies=              -427.596390
 Sum of electronic and thermal Enthalpies=            -427.595446
 Sum of electronic and thermal Free Energies=         -427.644218

                     E (Thermal)             CV                S
                      KCal/Mol        Cal/Mol-Kelvin    Cal/Mol-Kelvin
 Total                  154.670             42.488            102.649
 Electronic               0.000              0.000              0.000
 Translational            0.889              2.981             40.724
 Rotational               0.889              2.981             29.724
 Vibrational            152.892             36.527             32.201
 Vibration     1          0.594              1.981              5.240
 Vibration     2          0.600              1.963              3.907
 Vibration     3          0.617              1.907              2.727
 Vibration     4          0.632              1.857              2.251
 Vibration     5          0.637              1.842              2.146
 Vibration     6          0.657              1.779              1.803
 Vibration     7          0.666              1.751              1.683
 Vibration     8          0.670              1.741              1.645
 Vibration     9          0.681              1.708              1.524
 Vibration    10          0.689              1.684              1.448
 Vibration    11          0.718              1.601              1.224
 Vibration    12          0.751              1.510              1.035
 Vibration    13          0.783              1.426              0.890
 Vibration    14          0.784              1.423              0.887
 Vibration    15          0.861              1.237              0.643
 Vibration    16          0.907              1.135              0.540
 Vibration    17          0.975              1.000              0.424

 Optimization completed.
    -- Stationary point found.

 1\1\GINC-NODE205\Freq\RB3LYP\6-31G(d)\C9H16O1\VSC10255\08-Dec-2020\0\\
 #N Geom=AllCheck Guess=TCheck SCRF=Check GenChk RB3LYP/6-31G(d) Freq\\
 CID_154474551_JID_707_neutraal\\0,1\C,1.0689635239,0.0169723177,-0.033
 4313723\C,0.3646409169,-1.2528980946,-0.4853211828\C,1.3023076197,-2.2
 766530392,-1.1877550308\C,1.5458061385,-3.2667405489,-0.0548549844\C,0
 .6651953493,-2.9973336753,0.9140815654\O,-0.1630244542,-1.9320785998,0
 .6927966081\C,2.6566961702,-4.2684945583,0.0221140186\C,0.6575619477,-
 2.8461975955,-2.4790438042\C,0.5975612384,-1.7570166803,-3.5600237532\

 Normal termination of Gaussian 16 at Tue Dec  8 12:32:58 2020.

 ----------------------------------------------------------------------
 # B3LYP/6-311++G(d,p) empiricaldispersion=gd3bj scf=xqc pop=npa geom=c
 heck
 ----------------------------------------------------------------------

 --------------------------------------
 CID_154474551_JID_707_Energie_neutraal
 --------------------------------------
 Structure from the checkpoint file:  "JID_707.chk"
 Charge =  0 Multiplicity = 1

 SCF Done:  E(RB3LYP) =  -427.963059474     A.U. after   14 cycles
 Normal termination of Gaussian 16 at Tue Dec  8 12:41:23 2020.

 ----------------------------------------------------------------------
 # B3LYP/6-311++G(d,p) empiricaldispersion=gd3bj scf=xqc pop=npa geom=c
 heck
 ----------------------------------------------------------------------

 ------------------------------------
 CID_154474551_JID_707_Energie_kation
 ------------------------------------
 Structure from the checkpoint file:  "JID_707.chk"
 Charge =  1 Multiplicity = 2

 SCF Done:  E(UB3LYP) =  -427.679258787     A.U. after   19 cycles
 Normal termination of Gaussian 16 at Tue Dec  8 12:49:40 2020.
 Gaussian 16:  ES64L-G16RevA.03 25-Dec-2016

 -----------------------------------
 CID_154474551_JID_707_Energie_anion
 -----------------------------------
 Structure from the checkpoint file:  "JID_707.chk"
 Charge = -1 Multiplicity = 2

                         Standard orientation:
 ---------------------------------------------------------------------
 Center     Atomic      Atomic             Coordinates (Angstroms)
 Number     Number       Type             X           Y           Z
 ---------------------------------------------------------------------
      1          6           0        1.828175   -1.679639    0.932648
      2          6           0        0.994713   -1.065686   -0.181466
      3          6           0       -0.136418   -0.124686    0.324267
      4          6           0        0.498470    1.240382    0.086498
      5          6           0        1.578433    1.056338   -0.679466
      6          8           0        1.866936   -0.239148   -1.008353
      7          6           0        0.073985    2.534866    0.709103
      8          6           0       -1.476811   -0.402129   -0.406402
      9          6           0       -2.044084   -1.759190    0.035207
     10          6           0       -2.527974    0.693462   -0.198591
     11          1           0        2.672878   -2.240864    0.521576
     12          1           0        1.214377   -2.358834    1.535760
     13          1           0        2.218876   -0.892901    1.587439
     14          1           0        0.608140   -1.845625   -0.843343
     15          1           0       -0.306469   -0.287278    1.400399
     16          1           0        2.276938    1.787750   -1.070681
     17          1           0       -0.919866    2.867474    0.390948
     18          1           0        0.038363    2.449588    1.804576
     19          1           0        0.783964    3.332623    0.464606
     20          1           0       -1.250452   -0.451155   -1.481501
     21          1           0       -2.314867   -1.733424    1.098839
     22          1           0       -2.946975   -2.010640   -0.532451
     23          1           0       -1.327298   -2.576189   -0.103694
     24          1           0       -2.235344    1.630282   -0.679127
     25          1           0       -3.490040    0.388056   -0.626251
     26          1           0       -2.688642    0.892015    0.868936
 ---------------------------------------------------------------------

 SCF Done:  E(UB3LYP) =  -427.944752430     A.U. after   31 cycles

 The electronic state is 2-A.
 Alpha  occ. eigenvalues --  -19.03575 -10.12145 -10.10674 -10.07412 -10.07064
 Alpha  occ. eigenvalues --  -10.06019 -10.05988 -10.05912 -10.05171 -10.05029
 Alpha  occ. eigenvalues --   -0.95682  -0.72166  -0.67689  -0.66117  -0.59204
 Alpha  occ. eigenvalues --   -0.57748  -0.56674  -0.49648  -0.46465  -0.44261
 Alpha  occ. eigenvalues --   -0.39274  -0.37199  -0.34672  -0.33477  -0.32149
 Alpha  occ. eigenvalues --   -0.31055  -0.30753  -0.29516  -0.29102  -0.27976
 Alpha  occ. eigenvalues --   -0.27737  -0.26129  -0.25435  -0.24473  -0.23109
 Alpha  occ. eigenvalues --   -0.22286  -0.22065  -0.20781  -0.10429   0.04838
 Alpha virt. eigenvalues --    0.07047   0.07543   0.08161   0.09282   0.09699
 Alpha virt. eigenvalues --    0.10160   0.10599   0.10785   0.12201   0.12321
 Alpha virt. eigenvalues --    0.12758   0.13313   0.13588   0.14211   0.14713

  Beta  occ. eigenvalues --  -19.03571 -10.12136 -10.10660 -10.07399 -10.07055
  Beta  occ. eigenvalues --  -10.06015 -10.05954 -10.05884 -10.05133 -10.04996
  Beta  occ. eigenvalues --   -0.95673  -0.72144  -0.67664  -0.66084  -0.59149
  Beta  occ. eigenvalues --   -0.57676  -0.56622  -0.49597  -0.46411  -0.44222
  Beta  occ. eigenvalues --   -0.39234  -0.37159  -0.34633  -0.33443  -0.32112
  Beta  occ. eigenvalues --   -0.31016  -0.30716  -0.29474  -0.29061  -0.27936
  Beta  occ. eigenvalues --   -0.27698  -0.26095  -0.25408  -0.24440  -0.23077
  Beta  occ. eigenvalues --   -0.22256  -0.22021  -0.20754  -0.10410
  Beta virt. eigenvalues --    0.07131   0.08084   0.08258   0.08832   0.09865
  Beta virt. eigenvalues --    0.10265   0.10726   0.11149   0.11244   0.12553
  Beta virt. eigenvalues --    0.12899   0.13218   0.13785   0.13966   0.14618

 Mulliken charges and spin densities:
               1          2
     1  C    1.085162  -1.687386
     2  C   -0.910798   0.407725
     3  C    1.291412  -0.698445
     4  C   -0.867655   0.827805
     5  C   -1.534006   1.386519
     6  O   -0.047526   0.008281
     7  C    2.864327  -3.581998
     8  C   -2.293010   2.565798
     9  C    1.688414  -2.351146
    10  C    0.808072  -1.497502
    11  H   -0.169668   0.314336
    12  H   -0.193287   0.337939
    13  H   -0.029277   0.190607
    14  H    0.036765   0.183880
    15  H   -0.118224   0.360108
    16  H   -0.473541   0.645650
    17  H   -0.114750   0.248261
    18  H   -0.209460   0.368637
    19  H   -0.439681   0.589937
    20  H   -0.084589   0.263599
    21  H   -0.364569   0.517581
    22  H   -0.209258   0.355363
    23  H   -0.203442   0.305701
    24  H   -0.068033   0.205676
    25  H   -0.266766   0.403352
    26  H   -0.176611   0.329721
 Sum of Mulliken charges =  -1.00000   1.00000

 Dipole moment (field-independent basis, Debye):
    X=              2.0886    Y=             -0.5591    Z=             -1.9182  Tot=              2.8904
 Quadrupole moment (field-independent basis, Debye-Ang):
   XX=           -116.6365   YY=           -118.0681   ZZ=            -98.3206
   XY=             -4.3218   XZ=              0.6915   YZ=              0.6150

 Summary of Natural Population Analysis:

                                       Natural Population
                Natural  -----------------------------------------------
    Atom  No    Charge         Core      Valence    Rydberg      Total
 -----------------------------------------------------------------------
      C    1   -0.29445      0.99963     2.28865    0.00617     3.29445
      C    2    0.07155      0.99955     1.91514    0.01376     2.92845
      C    3   -0.12244      0.99953     2.10994    0.01296     3.12244
      C    4   -0.05746      0.99948     2.04591    0.01207     3.05746
      C    5    0.07791      0.99934     1.90865    0.01410     2.92209
      O    6   -0.28830      0.99989     3.27890    0.00952     4.28830
      C    7   -0.29158      0.99962     2.28598    0.00598     3.29158
      C    8   -0.10853      0.99960     2.09898    0.00995     3.10853
      C    9   -0.28459      0.99965     2.27872    0.00623     3.28459
      C   10   -0.28469      0.99965     2.27895    0.00610     3.28469
      H   11    0.10131      0.00000     0.39767    0.00102     0.39869
      H   12    0.10283      0.00000     0.39581    0.00136     0.39717
      H   13    0.10185      0.00000     0.39684    0.00131     0.39815
      H   14    0.09007      0.00000     0.40838    0.00156     0.40993
      H   15    0.10141      0.00000     0.39637    0.00222     0.39859
      H   16    0.09146      0.00000     0.40741    0.00113     0.40854
      H   17    0.10186      0.00000     0.39650    0.00164     0.39814
      H   18    0.10244      0.00000     0.39594    0.00162     0.39756
      H   19    0.10313      0.00000     0.39549    0.00137     0.39687
      H   20    0.09167      0.00000     0.40626    0.00207     0.40833
      H   21    0.09834      0.00000     0.40011    0.00155     0.40166
      H   22    0.10041      0.00000     0.39841    0.00118     0.39959
      H   23    0.09774      0.00000     0.40088    0.00138     0.40226
      H   24    0.10031      0.00000     0.39852    0.00118     0.39969
      H   25    0.09971      0.00000     0.39922    0.00107     0.40029
      H   26    0.09804      0.00000     0.40076    0.00120     0.40196
 =======================================================================
   * Total *    0.00000      9.99594    28.88437    0.11968    39.00000

 Normal termination of Gaussian 16 at Tue Dec  8 13:04:45 2020.
