 Gaussian 16, Revision A.03,

 -----------------------------------------------------------
 # opt freq B3LYP/6-31G(d) empiricaldispersion=gd3bj scf=xqc
 -----------------------------------------------------------

 ------------------------------
 CID_21183503_JID_4733_neutraal
 ------------------------------
 Symbolic Z-matrix:
 Charge =  0 Multiplicity = 1

 SCF Done:  E(RB3LYP) =  -575.243294627     A.U. after   15 cycles
 SCF Done:  E(RB3LYP) =  -575.248089002     A.U. after   12 cycles
 SCF Done:  E(RB3LYP) =  -575.248402416     A.U. after   12 cycles
 SCF Done:  E(RB3LYP) =  -575.248485797     A.U. after   12 cycles
 SCF Done:  E(RB3LYP) =  -575.248585578     A.U. after   11 cycles
 SCF Done:  E(RB3LYP) =  -575.248598669     A.U. after   11 cycles
 SCF Done:  E(RB3LYP) =  -575.248601302     A.U. after    9 cycles
 SCF Done:  E(RB3LYP) =  -575.248605330     A.U. after    9 cycles
 SCF Done:  E(RB3LYP) =  -575.248607479     A.U. after    9 cycles
 SCF Done:  E(RB3LYP) =  -575.248609610     A.U. after    9 cycles
 SCF Done:  E(RB3LYP) =  -575.248278095     A.U. after   12 cycles
 SCF Done:  E(RB3LYP) =  -575.248643271     A.U. after   12 cycles
 SCF Done:  E(RB3LYP) =  -575.248661632     A.U. after   11 cycles
 SCF Done:  E(RB3LYP) =  -575.248662573     A.U. after   11 cycles
 SCF Done:  E(RB3LYP) =  -575.248674063     A.U. after   10 cycles
 SCF Done:  E(RB3LYP) =  -575.248674634     A.U. after    8 cycles
 Optimization completed.
    -- Stationary point found.
 Normal termination of Gaussian 16 at Thu Dec 10 11:38:03 2020.

 --------------------------------------------------------------------
 #N Geom=AllCheck Guess=TCheck SCRF=Check GenChk RB3LYP/6-31G(d) Freq
 --------------------------------------------------------------------

 Structure from the checkpoint file:  "JID_4733.chk"
 ------------------------------
 CID_21183503_JID_4733_neutraal
 ------------------------------
 Charge =  0 Multiplicity = 1

 SCF Done:  E(RB3LYP) =  -575.248674634     A.U. after    1 cycles

  Exact polarizability: 159.603  -9.988 158.847 -19.592  -6.938  79.104
 Approx polarizability: 240.405 -22.608 288.335 -43.305 -19.142 126.670

                      1                      2                      3
                      A                      A                      A
 Frequencies --     23.6741                56.7805               107.3765
 Red. masses --      3.4143                 3.9156                 3.0861
 Frc consts  --      0.0011                 0.0074                 0.0210
 IR Inten    --      0.8345                 0.6609                 0.6398

                      4                      5                      6
                      A                      A                      A
 Frequencies --    139.3542               167.4500               175.1643
 Red. masses --      1.9251                 4.3689                 3.7109
 Frc consts  --      0.0220                 0.0722                 0.0671
 IR Inten    --      0.4519                 1.9373                 1.1140

                      7                      8                      9
                      A                      A                      A
 Frequencies --    203.4903               268.0485               303.8420
 Red. masses --      1.5560                 2.5995                 2.7679
 Frc consts  --      0.0380                 0.1100                 0.1506
 IR Inten    --      0.1351                 1.9933                 0.2718

                     10                     11                     12
                      A                      A                      A
 Frequencies --    367.1510               421.0361               437.8470
 Red. masses --      2.1576                 2.6052                 3.5121
 Frc consts  --      0.1714                 0.2721                 0.3967
 IR Inten    --      0.8906                 0.3382                 0.8841

                     13                     14                     15
                      A                      A                      A
 Frequencies --    449.2362               461.2570               507.4068
 Red. masses --      2.3131                 4.5909                 5.3013
 Frc consts  --      0.2750                 0.5755                 0.8042
 IR Inten    --      1.7947                 0.1383                 2.6417

                     16                     17                     18
                      A                      A                      A
 Frequencies --    526.1255               579.5397               623.8530
 Red. masses --      6.1739                 4.9950                 3.9726
 Frc consts  --      1.0069                 0.9884                 0.9109
 IR Inten    --      2.6016                 4.7614                 5.2642

                     19                     20                     21
                      A                      A                      A
 Frequencies --    684.2340               724.3576               765.8474
 Red. masses --      4.2869                 4.2138                 1.2412
 Frc consts  --      1.1825                 1.3027                 0.4289
 IR Inten    --      2.6981                 4.0234                25.1258

                     22                     23                     24
                      A                      A                      A
 Frequencies --    772.1719               799.9885               822.4222
 Red. masses --      1.3614                 2.7071                 6.4646
 Frc consts  --      0.4783                 1.0208                 2.5762
 IR Inten    --     25.8377                 0.7286                 1.9880

                     25                     26                     27
                      A                      A                      A
 Frequencies --    830.3348               882.0142               885.7713
 Red. masses --      2.7398                 1.8447                 1.6524
 Frc consts  --      1.1129                 0.8455                 0.7639
 IR Inten    --      1.4625                 0.4124                 1.0869

                     28                     29                     30
                      A                      A                      A
 Frequencies --    924.2090               936.5629               949.3605
 Red. masses --      2.5428                 1.3984                 2.0888
 Frc consts  --      1.2797                 0.7227                 1.1092
 IR Inten    --      5.5916                 4.8887                 0.9962

                     31                     32                     33
                      A                      A                      A
 Frequencies --    968.9059               981.0552              1002.3825
 Red. masses --      1.3704                 1.7462                 1.2980
 Frc consts  --      0.7580                 0.9902                 0.7684
 IR Inten    --      4.0839                 2.0115                 0.1246

                     34                     35                     36
                      A                      A                      A
 Frequencies --   1034.3286              1058.6347              1067.4045
 Red. masses --      4.3200                 2.2259                 2.2940
 Frc consts  --      2.7230                 1.4697                 1.5400
 IR Inten    --      8.8093                 0.9886                 1.7528

                     37                     38                     39
                      A                      A                      A
 Frequencies --   1095.9447              1124.7716              1135.1396
 Red. masses --      3.0703                 1.7802                 1.8474
 Frc consts  --      2.1727                 1.3269                 1.4025
 IR Inten    --      0.8066                 1.0293                 3.0832

                     40                     41                     42
                      A                      A                      A
 Frequencies --   1184.2114              1199.5352              1215.2125
 Red. masses --      1.3869                 1.3275                 1.2811
 Frc consts  --      1.1459                 1.1254                 1.1146
 IR Inten    --      1.0216                 2.6594                 1.0974

                     43                     44                     45
                      A                      A                      A
 Frequencies --   1270.0789              1275.7704              1297.3618
 Red. masses --      1.4638                 1.5172                 1.7023
 Frc consts  --      1.3912                 1.4550                 1.6881
 IR Inten    --      3.5263                 6.4593                 2.9251

                     46                     47                     48
                      A                      A                      A
 Frequencies --   1333.1375              1342.1327              1360.6761
 Red. masses --      1.3534                 2.0401                 1.9048
 Frc consts  --      1.4171                 2.1651                 2.0778
 IR Inten    --     10.6006                 4.9239                15.3768

                     49                     50                     51
                      A                      A                      A
 Frequencies --   1385.1129              1394.1480              1410.1867
 Red. masses --      2.5758                 1.3976                 1.8342
 Frc consts  --      2.9116                 1.6005                 2.1490
 IR Inten    --     22.5121                 3.9251                 3.2498

                     52                     53                     54
                      A                      A                      A
 Frequencies --   1421.0867              1442.3144              1447.3281
 Red. masses --      2.7334                 1.3781                 2.5643
 Frc consts  --      3.2523                 1.6891                 3.1648
 IR Inten    --      4.4536                 5.8852                15.0205

                     55                     56                     57
                      A                      A                      A
 Frequencies --   1478.6476              1513.5120              1520.1524
 Red. masses --      2.3170                 1.1013                 1.1757
 Frc consts  --      2.9847                 1.4864                 1.6007
 IR Inten    --      0.5556                 2.3321                 7.4004

                     58                     59                     60
                      A                      A                      A
 Frequencies --   1521.7165              1531.6822              1537.3487
 Red. masses --      1.0649                 1.0776                 1.0779
 Frc consts  --      1.4529                 1.4895                 1.5010
 IR Inten    --      1.7092                 7.0997                 4.1696

                     61                     62                     63
                      A                      A                      A
 Frequencies --   1548.1045              1605.4918              1628.5242
 Red. masses --      2.1894                 6.2956                 6.3238
 Frc consts  --      3.0915                 9.5610                 9.8813
 IR Inten    --      4.8556                10.7262                 3.6954

                     64                     65                     66
                      A                      A                      A
 Frequencies --   1678.2564              3039.3407              3042.7396
 Red. masses --      5.7745                 1.0657                 1.0606
 Frc consts  --      9.5826                 5.8004                 5.7853
 IR Inten    --      2.0031                28.1284                19.7685

                     67                     68                     69
                      A                      A                      A
 Frequencies --   3047.3056              3073.3425              3079.9001
 Red. masses --      1.0375                 1.0993                 1.0644
 Frc consts  --      5.6763                 6.1175                 5.9489
 IR Inten    --     26.0910                22.9659                10.4673

                     70                     71                     72
                      A                      A                      A
 Frequencies --   3094.7394              3110.8943              3115.2670
 Red. masses --      1.0950                 1.1019                 1.1017
 Frc consts  --      6.1787                 6.2831                 6.2993
 IR Inten    --     28.4968                75.9505                43.1481

                     73                     74                     75
                      A                      A                      A
 Frequencies --   3123.2295              3168.2291              3189.4850
 Red. masses --      1.1034                 1.0905                 1.0865
 Frc consts  --      6.3415                 6.4493                 6.5119
 IR Inten    --     22.6427                18.9822                 0.9473

                     76                     77                     78
                      A                      A                      A
 Frequencies --   3199.1535              3213.2571              3240.2400
 Red. masses --      1.0904                 1.0958                 1.0916
 Frc consts  --      6.5751                 6.6660                 6.7524
 IR Inten    --     12.7770                23.1365                 9.3897

 - Thermochemistry -
 -------------------
 Temperature   298.150 Kelvin.  Pressure   1.00000 Atm.
 Atom     1 has atomic number  6 and mass  12.00000

 Molecular mass:   186.11570 amu.
 Principal axes and moments of inertia in atomic units:
                           1         2         3
     Eigenvalues --  1862.465313012.651644410.93422
           X            0.99989   0.01447  -0.00145
           Y           -0.01447   0.99990   0.00070
           Z            0.00146  -0.00068   1.00000
 This molecule is an asymmetric top.
 Rotational symmetry number  1.
 Warning -- assumption of classical behavior for rotation
           may cause significant error
 Rotational temperatures (Kelvin)      0.04650     0.02875     0.01964
 Rotational constants (GHZ):           0.96901     0.59905     0.40915
 Zero-point vibrational energy     625308.0 (Joules/Mol)
                                  149.45219 (Kcal/Mol)
 Warning -- explicit consideration of  17 degrees of freedom as
           vibrations may cause significant error
 Vibrational temperatures:     34.06    81.69   154.49   200.50   240.92
          (Kelvin)            252.02   292.78   385.66   437.16   528.25
                              605.78   629.96   646.35   663.65   730.05
                              756.98   833.83   897.59   984.46  1042.19
                             1101.88  1110.98  1151.01  1183.28  1194.67
                             1269.02  1274.43  1329.73  1347.51  1365.92
                             1394.04  1411.52  1442.20  1488.17  1523.14
                             1535.76  1576.82  1618.30  1633.21  1703.82
                             1725.86  1748.42  1827.36  1835.55  1866.61
                             1918.09  1931.03  1957.71  1992.87  2005.87
                             2028.94  2044.63  2075.17  2082.38  2127.44
                             2177.61  2187.16  2189.41  2203.75  2211.90
                             2227.38  2309.94  2343.08  2414.64  4372.93
                             4377.82  4384.39  4421.85  4431.29  4452.64
                             4475.88  4482.17  4493.63  4558.38  4588.96
                             4602.87  4623.16  4661.98

 Zero-point correction=                           0.238167 (Hartree/Particle)
 Thermal correction to Energy=                    0.250257
 Thermal correction to Enthalpy=                  0.251202
 Thermal correction to Gibbs Free Energy=         0.198894
 Sum of electronic and zero-point Energies=           -575.010507
 Sum of electronic and thermal Energies=              -574.998417
 Sum of electronic and thermal Enthalpies=            -574.997473
 Sum of electronic and thermal Free Energies=         -575.049781

                     E (Thermal)             CV                S
                      KCal/Mol        Cal/Mol-Kelvin    Cal/Mol-Kelvin
 Total                  157.039             47.266            110.091
 Electronic               0.000              0.000              0.000
 Translational            0.889              2.981             41.570
 Rotational               0.889              2.981             31.582
 Vibrational            155.261             41.304             36.939
 Vibration     1          0.593              1.985              6.299
 Vibration     2          0.596              1.975              4.566
 Vibration     3          0.606              1.943              3.316
 Vibration     4          0.615              1.914              2.813
 Vibration     5          0.624              1.883              2.464
 Vibration     6          0.627              1.873              2.379
 Vibration     7          0.639              1.835              2.101
 Vibration     8          0.673              1.732              1.609
 Vibration     9          0.695              1.666              1.396
 Vibration    10          0.740              1.540              1.092
 Vibration    11          0.784              1.425              0.888
 Vibration    12          0.798              1.388              0.833
 Vibration    13          0.808              1.363              0.798
 Vibration    14          0.819              1.336              0.762
 Vibration    15          0.863              1.234              0.640
 Vibration    16          0.881              1.192              0.596
 Vibration    17          0.936              1.076              0.486

 Optimization completed.
    -- Stationary point found.
 Normal termination of Gaussian 16 at Thu Dec 10 11:45:59 2020.

 ----------------------------------------------------------------------
 # B3LYP/6-311++G(d,p) empiricaldispersion=gd3bj scf=xqc pop=npa geom=c
 heck
 ----------------------------------------------------------------------

 --------------------------------------
 CID_21183503_JID_4733_Energie_neutraal
 --------------------------------------
 Structure from the checkpoint file:  "JID_4733.chk"
 Charge =  0 Multiplicity = 1

 SCF Done:  E(RB3LYP) =  -575.394101130     A.U. after   15 cycles
 Normal termination of Gaussian 16 at Thu Dec 10 11:48:54 2020.

 ----------------------------------------------------------------------
 # B3LYP/6-311++G(d,p) empiricaldispersion=gd3bj scf=xqc pop=npa geom=c
 heck
 ----------------------------------------------------------------------

 ------------------------------------
 CID_21183503_JID_4733_Energie_kation
 ------------------------------------
 Structure from the checkpoint file:  "JID_4733.chk"
 Charge =  1 Multiplicity = 2

 SCF Done:  E(UB3LYP) =  -575.083660210     A.U. after   29 cycles
 Normal termination of Gaussian 16 at Thu Dec 10 11:56:19 2020.
 Gaussian 16:  ES64L-G16RevA.03 25-Dec-2016

 ----------------------------------------------------------------------
 # B3LYP/6-311++G(d,p) empiricaldispersion=gd3bj scf=xqc pop=npa geom=c
 heck
 ----------------------------------------------------------------------

 -----------------------------------
 CID_21183503_JID_4733_Energie_anion
 -----------------------------------
 Structure from the checkpoint file:  "JID_4733.chk"
 Charge = -1 Multiplicity = 2

                         Standard orientation:
 ---------------------------------------------------------------------
 Center     Atomic      Atomic             Coordinates (Angstroms)
 Number     Number       Type             X           Y           Z
 ---------------------------------------------------------------------
      1          6           0       -3.211553   -1.736916   -0.427424
      2          6           0       -2.699558   -0.428785   -1.038197
      3          6           0       -2.772006    0.770776   -0.082653
      4          6           0       -1.731049    0.760503    1.057904
      5          6           0       -0.328029    0.989972    0.542002
      6          7           0       -0.064001    2.250115    0.244823
      7          7           0        1.141434    2.614103   -0.274733
      8          6           0        2.054216    1.694596   -0.479262
      9          6           0        1.879678    0.314679   -0.191826
     10          6           0        2.881316   -0.656655   -0.422172
     11          6           0        2.636970   -1.978636   -0.121452
     12          6           0        1.388928   -2.365297    0.419491
     13          6           0        0.400678   -1.432315    0.653061
     14          6           0        0.623170   -0.066507    0.348663
     15          1           0       -2.650996   -2.021111    0.470391
     16          1           0       -3.131134   -2.566314   -1.138689
     17          1           0       -4.265024   -1.645098   -0.136556
     18          1           0       -1.668016   -0.560294   -1.390246
     19          1           0       -3.295889   -0.200997   -1.930858
     20          1           0       -2.629204    1.701661   -0.642904
     21          1           0       -3.775657    0.817724    0.361113
     22          1           0       -1.960443    1.583478    1.741308
     23          1           0       -1.796967   -0.166025    1.635748
     24          1           0        2.996431    2.046748   -0.897288
     25          1           0        3.836091   -0.344651   -0.836819
     26          1           0        3.401544   -2.729661   -0.296887
     27          1           0        1.209218   -3.410439    0.653882
     28          1           0       -0.548553   -1.747028    1.068368
 ---------------------------------------------------------------------

 SCF Done:  E(UB3LYP) =  -575.407327035     A.U. after   26 cycles

 The electronic state is 2-A.
 Alpha  occ. eigenvalues --  -14.16879 -14.16307 -10.05704 -10.05363 -10.04633
 Alpha  occ. eigenvalues --  -10.04143 -10.03942 -10.03772 -10.03737 -10.03422
 Alpha  occ. eigenvalues --  -10.02776 -10.02726 -10.01574 -10.01499  -0.83676
 Alpha  occ. eigenvalues --   -0.71300  -0.69557  -0.66644  -0.62590  -0.60571
 Alpha  occ. eigenvalues --   -0.59963  -0.53664  -0.49611  -0.48803  -0.46532
 Alpha  occ. eigenvalues --   -0.43398  -0.38958  -0.36636  -0.34929  -0.34252
 Alpha  occ. eigenvalues --   -0.34054  -0.30742  -0.30240  -0.29287  -0.28090
 Alpha  occ. eigenvalues --   -0.27289  -0.26527  -0.26278  -0.25019  -0.22755
 Alpha  occ. eigenvalues --   -0.22311  -0.21499  -0.21019  -0.20764  -0.20035
 Alpha  occ. eigenvalues --   -0.14996  -0.13901  -0.12341  -0.09472  -0.07494
 Alpha  occ. eigenvalues --    0.04644
 Alpha virt. eigenvalues --    0.07739   0.09058   0.09804   0.09875   0.10838
 Alpha virt. eigenvalues --    0.11022   0.11332   0.12318   0.12470   0.13579
 Alpha virt. eigenvalues --    0.13924   0.14033   0.14552   0.15095   0.15663

  Beta  occ. eigenvalues --  -14.16832 -14.16208 -10.05703 -10.05363 -10.04608
  Beta  occ. eigenvalues --  -10.04028 -10.03854 -10.03798 -10.03757 -10.03109
  Beta  occ. eigenvalues --  -10.02694 -10.02644 -10.01228 -10.01158  -0.83339
  Beta  occ. eigenvalues --   -0.70950  -0.69326  -0.66416  -0.62258  -0.60276
  Beta  occ. eigenvalues --   -0.59606  -0.53556  -0.49078  -0.48586  -0.46256
  Beta  occ. eigenvalues --   -0.43173  -0.38804  -0.36158  -0.34839  -0.34126
  Beta  occ. eigenvalues --   -0.33936  -0.30614  -0.30117  -0.29065  -0.27819
  Beta  occ. eigenvalues --   -0.27095  -0.26408  -0.25778  -0.24808  -0.22572
  Beta  occ. eigenvalues --   -0.22061  -0.21310  -0.20748  -0.20048  -0.19896
  Beta  occ. eigenvalues --   -0.13833  -0.13488  -0.11553  -0.07550  -0.07285
  Beta virt. eigenvalues --    0.07636   0.09010   0.09614   0.09795   0.10668
  Beta virt. eigenvalues --    0.10870   0.11169   0.11329   0.12269   0.12461
  Beta virt. eigenvalues --    0.13533   0.13879   0.14157   0.14829   0.15350

 Mulliken charges and spin densities:
               1          2
     1  C   -0.575944  -0.016429
     2  C   -0.266083   0.031876
     3  C   -0.135711  -0.136254
     4  C   -0.046593   0.033387
     5  C   -0.238199   0.213318
     6  N   -0.005894   0.045718
     7  N   -0.095842   0.006123
     8  C   -0.714933   0.241109
     9  C    0.830481  -0.076442
    10  C   -0.897552   0.240758
    11  C   -0.243708   0.077063
    12  C   -0.429960   0.070642
    13  C   -0.482887   0.224070
    14  C    0.800751  -0.042469
    15  H    0.132984   0.010892
    16  H    0.118457   0.001612
    17  H    0.102677   0.007974
    18  H    0.143139  -0.001752
    19  H    0.126049   0.003419
    20  H    0.167475  -0.009590
    21  H    0.051798   0.053828
    22  H    0.147714   0.058043
    23  H    0.086764   0.044170
    24  H    0.138702  -0.015489
    25  H    0.083609  -0.021529
    26  H    0.100114  -0.006018
    27  H    0.109753  -0.000265
    28  H   -0.007160  -0.037765
 Sum of Mulliken charges =  -1.00000   1.00000

 Dipole moment (field-independent basis, Debye):
    X=             -3.0466    Y=             -4.2849    Z=             -0.4742  Tot=              5.2790
 Quadrupole moment (field-independent basis, Debye-Ang):
   XX=           -106.0112   YY=           -119.9427   ZZ=            -94.8879
   XY=              1.0090   XZ=             -0.2655   YZ=              0.0166

 Summary of Natural Population Analysis:

                                       Natural Population
                Natural  -----------------------------------------------
    Atom  No    Charge         Core      Valence    Rydberg      Total
 -----------------------------------------------------------------------
      C    1   -0.28445      0.99967     2.28045    0.00433     3.28445
      C    2   -0.19376      0.99964     2.18794    0.00618     3.19376
      C    3   -0.18147      0.99962     2.17374    0.00811     3.18147
      C    4   -0.20552      0.99960     2.19623    0.00968     3.20552
      C    5    0.15444      0.99952     1.82558    0.02047     2.84556
      N    6   -0.14655      0.99966     2.63262    0.01428     3.64655
      N    7   -0.14353      0.99971     2.62718    0.01664     3.64353
      C    8    0.07488      0.99958     1.91134    0.01421     2.92512
      C    9   -0.05084      0.99949     2.04379    0.00756     3.05084
      C   10   -0.03725      0.99954     2.02874    0.00897     3.03725
      C   11   -0.09153      0.99958     2.08237    0.00959     3.09153
      C   12   -0.09084      0.99958     2.08160    0.00966     3.09084
      C   13   -0.04157      0.99954     2.03413    0.00791     3.04157
      C   14   -0.04901      0.99945     2.04018    0.00937     3.04901
      H   15    0.09703      0.00000     0.40169    0.00128     0.40297
      H   16    0.09431      0.00000     0.40489    0.00080     0.40569
      H   17    0.08828      0.00000     0.41042    0.00130     0.41172
      H   18    0.10556      0.00000     0.39337    0.00107     0.39444
      H   19    0.08786      0.00000     0.41103    0.00111     0.41214
      H   20    0.10378      0.00000     0.39482    0.00139     0.39622
      H   21    0.08382      0.00000     0.41427    0.00191     0.41618
      H   22    0.10579      0.00000     0.39177    0.00244     0.39421
      H   23    0.09356      0.00000     0.40453    0.00192     0.40644
      H   24    0.07700      0.00000     0.42126    0.00174     0.42300
      H   25    0.08595      0.00000     0.41238    0.00167     0.41405
      H   26    0.08764      0.00000     0.41129    0.00106     0.41236
      H   27    0.08883      0.00000     0.41050    0.00067     0.41117
      H   28    0.08760      0.00000     0.41083    0.00157     0.41240
 =======================================================================
   * Total *    0.00001     13.99418    35.83894    0.16687    49.99999

 Normal termination of Gaussian 16 at Thu Dec 10 12:02:58 2020.
