 Gaussian 16, Revision A.03,

 -----------------------------------------------------------
 # opt freq B3LYP/6-31G(d) empiricaldispersion=gd3bj scf=xqc
 -----------------------------------------------------------

 ------------------------------
 CID_81282662_JID_8236_neutraal
 ------------------------------
 Symbolic Z-matrix:
 Charge =  0 Multiplicity = 1

 SCF Done:  E(RB3LYP) =  -835.234198955     A.U. after   15 cycles
 SCF Done:  E(RB3LYP) =  -835.239723298     A.U. after   14 cycles
 SCF Done:  E(RB3LYP) =  -835.238277355     A.U. after   14 cycles
 SCF Done:  E(RB3LYP) =  -835.241265643     A.U. after   14 cycles
 SCF Done:  E(RB3LYP) =  -835.243472944     A.U. after   13 cycles
 SCF Done:  E(RB3LYP) =  -835.244200935     A.U. after   13 cycles
 SCF Done:  E(RB3LYP) =  -835.244872931     A.U. after   13 cycles
 SCF Done:  E(RB3LYP) =  -835.244867587     A.U. after   13 cycles
 SCF Done:  E(RB3LYP) =  -835.245282141     A.U. after   13 cycles
 SCF Done:  E(RB3LYP) =  -835.245328770     A.U. after   12 cycles
 SCF Done:  E(RB3LYP) =  -835.245973791     A.U. after   11 cycles
 SCF Done:  E(RB3LYP) =  -835.245975057     A.U. after   10 cycles
 SCF Done:  E(RB3LYP) =  -835.245977427     A.U. after    9 cycles
 SCF Done:  E(RB3LYP) =  -835.245977503     A.U. after    7 cycles
 SCF Done:  E(RB3LYP) =  -835.245977529     A.U. after    7 cycles
 Optimization completed.
    -- Stationary point found.
 Normal termination of Gaussian 16 at Fri Dec 11 19:55:09 2020.

 --------------------------------------------------------------------
 #N Geom=AllCheck Guess=TCheck SCRF=Check GenChk RB3LYP/6-31G(d) Freq
 --------------------------------------------------------------------

 Structure from the checkpoint file:  "JID_8236.chk"
 ------------------------------
 CID_81282662_JID_8236_neutraal
 ------------------------------
 Charge =  0 Multiplicity = 1

 SCF Done:  E(RB3LYP) =  -835.245977529     A.U. after    1 cycles

  Exact polarizability: 217.669   7.571 158.247  17.478   1.143  99.250
 Approx polarizability: 329.720  19.679 254.985  40.386   2.769 152.575

                      1                      2                      3
                      A                      A                      A
 Frequencies --     32.0254                38.6551                50.5025
 Red. masses --      6.8767                 6.0494                 6.7521
 Frc consts  --      0.0042                 0.0053                 0.0101
 IR Inten    --      6.7279                 8.0397                 2.2645

                      4                      5                      6
                      A                      A                      A
 Frequencies --     61.4994                76.8472                90.7342
 Red. masses --      8.3933                 4.6658                 1.1068
 Frc consts  --      0.0187                 0.0162                 0.0054
 IR Inten    --      0.8322                 2.7326                 1.0931

                      7                      8                      9
                      A                      A                      A
 Frequencies --    110.0211               130.9226               135.1140
 Red. masses --      5.0593                 6.7176                 6.5113
 Frc consts  --      0.0361                 0.0678                 0.0700
 IR Inten    --      1.3494                 6.7199                 4.5238

                     10                     11                     12
                      A                      A                      A
 Frequencies --    202.4723               214.5290               237.6200
 Red. masses --      3.9482                 3.0131                 3.5882
 Frc consts  --      0.0954                 0.0817                 0.1194
 IR Inten    --      3.7461                 1.1018                 2.3448

                     13                     14                     15
                      A                      A                      A
 Frequencies --    245.5035               314.8903               339.2986
 Red. masses --      5.8978                 4.4952                 4.6894
 Frc consts  --      0.2094                 0.2626                 0.3181
 IR Inten    --      7.7963                 9.8602                 2.3546

                     16                     17                     18
                      A                      A                      A
 Frequencies --    346.8199               368.9849               374.3066
 Red. masses --      2.7382                 1.3530                 4.6391
 Frc consts  --      0.1941                 0.1085                 0.3829
 IR Inten    --     44.4675               138.5531                 2.6198

                     19                     20                     21
                      A                      A                      A
 Frequencies --    410.9250               448.9103               478.6835
 Red. masses --      4.3847                 3.2302                 2.8734
 Frc consts  --      0.4362                 0.3835                 0.3879
 IR Inten    --      9.7440                 4.4423                22.5448

                     22                     23                     24
                      A                      A                      A
 Frequencies --    480.9375               512.1997               519.0918
 Red. masses --      1.8538                 2.7035                 4.3505
 Frc consts  --      0.2526                 0.4179                 0.6907
 IR Inten    --     14.1537                15.0024                 3.3594

                     25                     26                     27
                      A                      A                      A
 Frequencies --    537.3834               567.1211               576.5653
 Red. masses --      2.7182                 3.0414                 2.1568
 Frc consts  --      0.4625                 0.5763                 0.4224
 IR Inten    --     10.0976                 9.9940                68.6645

                     28                     29                     30
                      A                      A                      A
 Frequencies --    612.8448               617.3453               621.0331
 Red. masses --      2.0426                 5.1767                 3.3242
 Frc consts  --      0.4520                 1.1624                 0.7554
 IR Inten    --     36.2527                 5.1135                 2.1531

                     31                     32                     33
                      A                      A                      A
 Frequencies --    657.9663               698.2702               705.6929
 Red. masses --      2.6321                 1.7358                 3.1333
 Frc consts  --      0.6714                 0.4986                 0.9194
 IR Inten    --     52.8731                90.5110                 9.8004

                     34                     35                     36
                      A                      A                      A
 Frequencies --    730.1358               751.0698               758.5950
 Red. masses --      3.5307                 1.9278                 2.9642
 Frc consts  --      1.1090                 0.6407                 1.0050
 IR Inten    --      0.9830                 8.5968                 5.4817

                     37                     38                     39
                      A                      A                      A
 Frequencies --    842.7937               845.1607               856.0799
 Red. masses --      3.4849                 1.4364                 1.4291
 Frc consts  --      1.4584                 0.6045                 0.6171
 IR Inten    --      9.2772                31.4008                13.6989

                     40                     41                     42
                      A                      A                      A
 Frequencies --    872.4782               931.3793               972.7202
 Red. masses --      3.7504                 4.2656                 1.3243
 Frc consts  --      1.6820                 2.1801                 0.7383
 IR Inten    --      2.3807                 3.6855                 0.7194

                     43                     44                     45
                      A                      A                      A
 Frequencies --    977.7155               985.8773              1033.9096
 Red. masses --      2.4297                 2.2196                 1.6786
 Frc consts  --      1.3684                 1.2711                 1.0572
 IR Inten    --     29.1605                10.6615                 3.7854

                     46                     47                     48
                      A                      A                      A
 Frequencies --   1073.9284              1087.5188              1113.6526
 Red. masses --      1.5104                 2.0817                 1.7632
 Frc consts  --      1.0263                 1.4506                 1.2884
 IR Inten    --      3.0663                 4.3818                 7.3224

                     49                     50                     51
                      A                      A                      A
 Frequencies --   1136.4021              1150.8672              1206.9553
 Red. masses --      1.8804                 2.8807                 2.0980
 Frc consts  --      1.4308                 2.2480                 1.8007
 IR Inten    --     10.8043                18.0911                39.9455

                     52                     53                     54
                      A                      A                      A
 Frequencies --   1231.1085              1267.5929              1283.9339
 Red. masses --      1.3925                 2.6689                 1.6240
 Frc consts  --      1.2435                 2.5267                 1.5773
 IR Inten    --      7.7749                 0.5007                73.2735

                     55                     56                     57
                      A                      A                      A
 Frequencies --   1307.3102              1332.6430              1348.6185
 Red. masses --      1.7778                 1.5458                 3.0790
 Frc consts  --      1.7902                 1.6175                 3.2994
 IR Inten    --     10.4051                23.7902                37.6022

                     58                     59                     60
                      A                      A                      A
 Frequencies --   1360.4575              1371.0424              1375.3487
 Red. masses --      1.5591                 2.4862                 1.7940
 Frc consts  --      1.7002                 2.7535                 1.9994
 IR Inten    --     17.7333                64.8575               112.2414

                     61                     62                     63
                      A                      A                      A
 Frequencies --   1394.7568              1434.3747              1447.4735
 Red. masses --      3.1235                 1.8594                 1.2696
 Frc consts  --      3.5801                 2.2540                 1.5672
 IR Inten    --    105.1416               102.9296                 2.1499

                     64                     65                     66
                      A                      A                      A
 Frequencies --   1477.4938              1497.1735              1509.5685
 Red. masses --      1.7006                 1.2644                 1.0428
 Frc consts  --      2.1872                 1.6698                 1.4001
 IR Inten    --      3.3892                 1.2378                 7.3145

                     67                     68                     69
                      A                      A                      A
 Frequencies --   1519.1971              1524.2958              1560.0436
 Red. masses --      1.1210                 1.4023                 2.4844
 Frc consts  --      1.5243                 1.9196                 3.5624
 IR Inten    --     17.0281                11.4460               124.1348

                     70                     71                     72
                      A                      A                      A
 Frequencies --   1602.7223              1647.0219              1660.2518
 Red. masses --      5.9550                 1.2112                 1.7080
 Frc consts  --      9.0126                 1.9358                 2.7738
 IR Inten    --     37.7174                16.9109               210.7968

                     73                     74                     75
                      A                      A                      A
 Frequencies --   1673.8763              1808.2041              1826.0309
 Red. masses --      2.5177                 8.5307                 9.0978
 Frc consts  --      4.1562                16.4334                17.8731
 IR Inten    --    218.0365               336.7993               298.7557

                     76                     77                     78
                      A                      A                      A
 Frequencies --   2339.8223              3055.9626              3058.4242
 Red. masses --     12.6731                 1.0366                 1.0692
 Frc consts  --     40.8789                 5.7037                 5.8924
 IR Inten    --     84.2753                12.1098                20.3954

                     79                     80                     81
                      A                      A                      A
 Frequencies --   3077.0018              3112.1233              3124.7918
 Red. masses --      1.0609                 1.1005                 1.1045
 Frc consts  --      5.9182                 6.2798                 6.3544
 IR Inten    --     26.1047                 7.4378                 3.5801

                     82                     83                     84
                      A                      A                      A
 Frequencies --   3138.9495              3140.1675              3215.2222
 Red. masses --      1.1029                 1.0947                 1.0904
 Frc consts  --      6.4024                 6.3597                 6.6413
 IR Inten    --     13.3413                 9.4834                 6.0501

                     85                     86                     87
                      A                      A                      A
 Frequencies --   3219.4173              3245.9748              3527.3296
 Red. masses --      1.0886                 1.0926                 1.0499
 Frc consts  --      6.6477                 6.7827                 7.6966
 IR Inten    --      8.5734                 0.4297               101.9867

                     88                     89                     90
                      A                      A                      A
 Frequencies --   3539.8086              3647.6554              3684.1319
 Red. masses --      1.0481                 1.1014                 1.1010
 Frc consts  --      7.7377                 8.6344                 8.8049
 IR Inten    --     97.1642                77.9214               110.5339

 - Thermochemistry -
 -------------------
 Temperature   298.150 Kelvin.  Pressure   1.00000 Atm.
 Atom     1 has atomic number  6 and mass  12.00000

 Molecular mass:   246.11168 amu.
 Principal axes and moments of inertia in atomic units:
                           1         2         3
     Eigenvalues --  3055.351516356.524228479.37266
           X            0.99978  -0.02092  -0.00085
           Y            0.02092   0.99978  -0.00151
           Z            0.00088   0.00149   1.00000
 This molecule is an asymmetric top.
 Rotational symmetry number  1.
 Warning -- assumption of classical behavior for rotation
           may cause significant error
 Rotational temperatures (Kelvin)      0.02835     0.01363     0.01021
 Rotational constants (GHZ):           0.59068     0.28392     0.21284
 Zero-point vibrational energy     674276.8 (Joules/Mol)
                                  161.15602 (Kcal/Mol)
 Warning -- explicit consideration of  29 degrees of freedom as
           vibrations may cause significant error
 Vibrational temperatures:     46.08    55.62    72.66    88.48   110.57
          (Kelvin)            130.55   158.30   188.37   194.40   291.31
                              308.66   341.88   353.22   453.06   488.17
                              499.00   530.89   538.54   591.23   645.88
                              688.72   691.96   736.94   746.86   773.17
                              815.96   829.55   881.75   888.22   893.53
                              946.67  1004.66  1015.33  1050.50  1080.62
                             1091.45  1212.59  1216.00  1231.71  1255.30
                             1340.05  1399.53  1406.71  1418.46  1487.57
                             1545.14  1564.70  1602.30  1635.03  1655.84
                             1736.54  1771.29  1823.78  1847.29  1880.93
                             1917.38  1940.36  1957.39  1972.62  1978.82
                             2006.74  2063.75  2082.59  2125.78  2154.10
                             2171.93  2185.79  2193.12  2244.55  2305.96
                             2369.70  2388.73  2408.33  2601.60  2627.25
                             3366.48  4396.85  4400.39  4427.12  4477.65
                             4495.88  4516.25  4518.00  4625.99  4632.02
                             4670.23  5075.04  5093.00  5248.16  5300.64

 Zero-point correction=                           0.256818 (Hartree/Particle)
 Thermal correction to Energy=                    0.274391
 Thermal correction to Enthalpy=                  0.275335
 Thermal correction to Gibbs Free Energy=         0.210139
 Sum of electronic and zero-point Energies=           -834.989159
 Sum of electronic and thermal Energies=              -834.971587
 Sum of electronic and thermal Enthalpies=            -834.970642
 Sum of electronic and thermal Free Energies=         -835.035839

                     E (Thermal)             CV                S
                      KCal/Mol        Cal/Mol-Kelvin    Cal/Mol-Kelvin
 Total                  172.183             65.665            137.217
 Electronic               0.000              0.000              0.000
 Translational            0.889              2.981             42.403
 Rotational               0.889              2.981             33.465
 Vibrational            170.405             59.703             61.349
 Vibration     1          0.594              1.983              5.700
 Vibration     2          0.594              1.981              5.327
 Vibration     3          0.595              1.977              4.798
 Vibration     4          0.597              1.973              4.408
 Vibration     5          0.599              1.965              3.970
 Vibration     6          0.602              1.956              3.644
 Vibration     7          0.606              1.941              3.269
 Vibration     8          0.612              1.922              2.932
 Vibration     9          0.613              1.918              2.872
 Vibration    10          0.639              1.836              2.111
 Vibration    11          0.644              1.819              2.005
 Vibration    12          0.656              1.783              1.821
 Vibration    13          0.660              1.770              1.763
 Vibration    14          0.702              1.645              1.337
 Vibration    15          0.719              1.597              1.215
 Vibration    16          0.725              1.582              1.181
 Vibration    17          0.741              1.536              1.084
 Vibration    18          0.745              1.525              1.062
 Vibration    19          0.775              1.447              0.923
 Vibration    20          0.808              1.363              0.799
 Vibration    21          0.835              1.297              0.714
 Vibration    22          0.837              1.292              0.708
 Vibration    23          0.867              1.223              0.628
 Vibration    24          0.874              1.208              0.612
 Vibration    25          0.892              1.167              0.571
 Vibration    26          0.923              1.102              0.510
 Vibration    27          0.933              1.082              0.492
 Vibration    28          0.972              1.005              0.428
 Vibration    29          0.977              0.995              0.421

                           ! Non-Optimized Parameters !
 Normal termination of Gaussian 16 at Fri Dec 11 20:08:19 2020.

 ----------------------------------------------------------------------
 # B3LYP/6-311++G(d,p) empiricaldispersion=gd3bj scf=xqc pop=npa geom=c
 heck
 ----------------------------------------------------------------------

 --------------------------------------
 CID_81282662_JID_8236_Energie_neutraal
 --------------------------------------
 Structure from the checkpoint file:  "JID_8236.chk"
 Charge =  0 Multiplicity = 1

 SCF Done:  E(RB3LYP) =  -835.493473039     A.U. after   16 cycles
 Normal termination of Gaussian 16 at Fri Dec 11 20:13:44 2020.

 ----------------------------------------------------------------------
 # B3LYP/6-311++G(d,p) empiricaldispersion=gd3bj scf=xqc pop=npa geom=c
 heck
 ----------------------------------------------------------------------

 ------------------------------------
 CID_81282662_JID_8236_Energie_kation
 ------------------------------------
 Structure from the checkpoint file:  "JID_8236.chk"
 Charge =  1 Multiplicity = 2

 SCF Done:  E(UB3LYP) =  -835.199734926     A.U. after   24 cycles
 Normal termination of Gaussian 16 at Fri Dec 11 20:25:26 2020.
 Gaussian 16:  ES64L-G16RevA.03 25-Dec-2016

 ----------------------------------------------------------------------
 # B3LYP/6-311++G(d,p) empiricaldispersion=gd3bj scf=xqc pop=npa geom=c
 heck
 ----------------------------------------------------------------------

 -----------------------------------
 CID_81282662_JID_8236_Energie_anion
 -----------------------------------
 Structure from the checkpoint file:  "JID_8236.chk"
 Charge = -1 Multiplicity = 2

                         Standard orientation:
 ---------------------------------------------------------------------
 Center     Atomic      Atomic             Coordinates (Angstroms)
 Number     Number       Type             X           Y           Z
 ---------------------------------------------------------------------
      1          6           0        3.181340   -2.058902   -0.050524
      2          6           0        2.305583   -0.838345   -0.162276
      3          6           0        2.847657    0.452885    0.011702
      4          6           0        2.012608    1.575505   -0.099079
      5          6           0        0.662895    1.444495   -0.378675
      6          6           0        0.098004    0.162218   -0.565748
      7          6           0        0.947425   -0.961952   -0.440062
      8          7           0       -1.256054    0.014185   -0.834708
      9          6           0       -1.839705   -1.294686   -1.058647
     10          6           0       -2.179866   -2.126350    0.189828
     11          8           0       -2.890623   -3.109679    0.103378
     12          7           0       -1.683139   -1.656918    1.391857
     13          6           0       -2.074188    1.199390   -1.044921
     14          6           0       -2.372292    2.052473    0.202799
     15          8           0       -2.456453    3.268814    0.108769
     16          7           0       -2.569846    1.363739    1.355127
     17          6           0        4.235380    0.613361    0.307861
     18          7           0        5.368623    0.724522    0.550870
     19          1           0        2.600919   -2.976598   -0.179006
     20          1           0        3.972739   -2.043986   -0.808613
     21          1           0        3.682115   -2.098227    0.923369
     22          1           0        2.434406    2.565136    0.042481
     23          1           0        0.054153    2.337295   -0.437200
     24          1           0        0.553911   -1.962830   -0.571891
     25          1           0       -2.779693   -1.178038   -1.601385
     26          1           0       -1.198390   -1.911501   -1.700268
     27          1           0       -0.809076   -1.141749    1.381376
     28          1           0       -1.789794   -2.307929    2.162079
     29          1           0       -1.615762    1.872778   -1.775957
     30          1           0       -3.035021    0.880797   -1.458817
     31          1           0       -2.471009    0.357067    1.425551
     32          1           0       -2.789042    1.895455    2.185542
 ---------------------------------------------------------------------

 SCF Done:  E(UB3LYP) =  -835.499802440     A.U. after   33 cycles
 SCF Done:  E(UB3LYP) =  -835.499802440     a.u. after    1 cycles

 The electronic state is 2-A.
 Alpha  occ. eigenvalues --  -19.01464 -19.00529 -14.25053 -14.25049 -14.24501
 Alpha  occ. eigenvalues --  -14.18282 -10.19613 -10.19016 -10.13291 -10.12948
 Alpha  occ. eigenvalues --  -10.11048 -10.08914 -10.08460 -10.07817 -10.07309
 Alpha  occ. eigenvalues --  -10.07269 -10.06990 -10.06798  -0.96496  -0.95511
 Alpha  occ. eigenvalues --   -0.87413  -0.82302  -0.81886  -0.78687  -0.75531
 Alpha  occ. eigenvalues --   -0.68420  -0.67287  -0.66257  -0.60421  -0.59410
 Alpha  occ. eigenvalues --   -0.53191  -0.51219  -0.49952  -0.49363  -0.46678
 Alpha  occ. eigenvalues --   -0.44888  -0.44158  -0.43163  -0.42099  -0.38016
 Alpha  occ. eigenvalues --   -0.37616  -0.36402  -0.35721  -0.34299  -0.34007
 Alpha  occ. eigenvalues --   -0.33059  -0.32954  -0.32526  -0.31184  -0.30500
 Alpha  occ. eigenvalues --   -0.29712  -0.28871  -0.27852  -0.27476  -0.25219
 Alpha  occ. eigenvalues --   -0.24997  -0.24466  -0.21230  -0.20865  -0.20675
 Alpha  occ. eigenvalues --   -0.19026  -0.17699  -0.17322  -0.15453  -0.11111
 Alpha  occ. eigenvalues --    0.03503
 Alpha virt. eigenvalues --    0.05608   0.06620   0.07104   0.08038   0.08259
 Alpha virt. eigenvalues --    0.08515   0.09331   0.09421   0.10392   0.10704
 Alpha virt. eigenvalues --    0.10865   0.11480   0.12288   0.12847   0.13113

  Beta  occ. eigenvalues --  -19.01448 -19.00525 -14.25009 -14.24999 -14.24477
  Beta  occ. eigenvalues --  -14.18097 -10.19595 -10.19014 -10.13275 -10.12936
  Beta  occ. eigenvalues --  -10.10754 -10.08845 -10.08453 -10.07673 -10.07270
  Beta  occ. eigenvalues --  -10.07161 -10.07018 -10.06864  -0.96463  -0.95503
  Beta  occ. eigenvalues --   -0.87250  -0.82229  -0.81850  -0.78409  -0.75298
  Beta  occ. eigenvalues --   -0.68247  -0.67132  -0.66017  -0.60277  -0.59347
  Beta  occ. eigenvalues --   -0.52942  -0.51127  -0.49814  -0.49245  -0.46593
  Beta  occ. eigenvalues --   -0.44819  -0.44060  -0.43021  -0.42040  -0.37912
  Beta  occ. eigenvalues --   -0.37541  -0.36289  -0.35648  -0.34227  -0.33949
  Beta  occ. eigenvalues --   -0.32949  -0.32768  -0.32458  -0.31133  -0.30418
  Beta  occ. eigenvalues --   -0.29641  -0.28808  -0.27554  -0.27108  -0.25082
  Beta  occ. eigenvalues --   -0.24299  -0.24171  -0.21122  -0.20710  -0.20372
  Beta  occ. eigenvalues --   -0.19003  -0.17626  -0.16865  -0.15025  -0.10399
  Beta virt. eigenvalues --    0.05972   0.07033   0.07274   0.07890   0.08297
  Beta virt. eigenvalues --    0.08487   0.08682   0.09422   0.09626   0.10395
  Beta virt. eigenvalues --    0.10795   0.10904   0.11609   0.12331   0.12888

 Mulliken charges and spin densities:
               1          2
     1  C   -0.368678  -0.018655
     2  C   -0.027452   0.123976
     3  C    1.825230  -0.030919
     4  C   -0.564604   0.336693
     5  C   -0.111296   0.054483
     6  C    0.334677  -0.369703
     7  C   -0.169422   0.245876
     8  N    0.099663   0.133102
     9  C    0.437524  -0.755824
    10  C   -0.177160   0.188090
    11  O   -0.314313   0.020211
    12  N   -0.428687  -0.056243
    13  C    0.181072  -0.517324
    14  C   -0.155973   0.102382
    15  O   -0.311003   0.008459
    16  N   -0.379804  -0.034961
    17  C   -1.709824  -0.373257
    18  N   -0.261874   0.100344
    19  H   -0.030565   0.157852
    20  H    0.125687   0.046132
    21  H    0.136071   0.036217
    22  H    0.148361   0.026831
    23  H    0.148980   0.005253
    24  H    0.192436  -0.103835
    25  H    0.052989   0.154154
    26  H   -0.160699   0.370014
    27  H    0.284397  -0.019094
    28  H   -0.259411   0.599551
    29  H    0.134997   0.107607
    30  H   -0.052655   0.208860
    31  H    0.333629   0.003701
    32  H    0.047707   0.250027
 Sum of Mulliken charges =  -1.00000   1.00000

 Dipole moment (field-independent basis, Debye):
    X=             -3.7267    Y=             -0.4087    Z=             -1.9442  Tot=              4.2232
 Quadrupole moment (field-independent basis, Debye-Ang):
   XX=           -195.3446   YY=           -155.3200   ZZ=           -125.9139
   XY=            -11.0694   XZ=             -3.5415   YZ=              2.3032

 Summary of Natural Population Analysis:

                                       Natural Population
                Natural  -----------------------------------------------
    Atom  No    Charge         Core      Valence    Rydberg      Total
 -----------------------------------------------------------------------
      C    1   -0.29636      0.99964     2.29079    0.00594     3.29636
      C    2    0.03345      0.99951     1.95845    0.00859     2.96655
      C    3   -0.09609      0.99937     2.08824    0.00848     3.09609
      C    4   -0.03321      0.99955     2.02409    0.00957     3.03321
      C    5   -0.15174      0.99953     2.14489    0.00731     3.15174
      C    6    0.14353      0.99949     1.84626    0.01072     2.85647
      C    7   -0.15400      0.99949     2.14631    0.00820     3.15400
      N    8   -0.25321      0.99964     2.74167    0.01190     3.75321
      C    9   -0.12708      0.99956     2.11676    0.01076     3.12708
      C   10    0.33909      0.99970     1.63765    0.02356     2.66091
      O   11   -0.31124      0.99987     3.30520    0.00616     4.31124
      N   12   -0.41985      0.99971     2.91093    0.00920     3.91985
      C   13   -0.12342      0.99957     2.11246    0.01140     3.12342
      C   14    0.33152      0.99970     1.64616    0.02261     2.66848
      O   15   -0.32405      0.99988     3.31822    0.00595     4.32405
      N   16   -0.40536      0.99969     2.89815    0.00752     3.90536
      C   17    0.15023      0.99964     1.83120    0.01893     2.84977
      N   18   -0.17706      0.99979     2.66650    0.01078     3.67706
      H   19    0.10037      0.00000     0.39890    0.00073     0.39963
      H   20    0.10770      0.00000     0.39149    0.00081     0.39230
      H   21    0.10837      0.00000     0.39070    0.00093     0.39163
      H   22    0.10017      0.00000     0.39905    0.00078     0.39983
      H   23    0.10757      0.00000     0.39066    0.00176     0.39243
      H   24    0.10039      0.00000     0.39795    0.00166     0.39961
      H   25    0.11250      0.00000     0.38644    0.00106     0.38750
      H   26    0.11340      0.00000     0.38503    0.00156     0.38660
      H   27    0.20593      0.00000     0.29141    0.00266     0.29407
      H   28    0.19898      0.00000     0.29718    0.00385     0.30102
      H   29    0.10871      0.00000     0.38994    0.00135     0.39129
      H   30    0.10890      0.00000     0.39010    0.00100     0.39110
      H   31    0.20679      0.00000     0.29016    0.00305     0.29321
      H   32    0.19506      0.00000     0.30316    0.00178     0.30494
 =======================================================================
   * Total *   -0.00000     17.99334    46.78610    0.22056    65.00000

 Normal termination of Gaussian 16 at Fri Dec 11 20:41:38 2020.
