 Gaussian 16, Revision A.03,

 -----------------------------------------------------------
 # opt freq B3LYP/6-31G(d) empiricaldispersion=gd3bj scf=xqc
 -----------------------------------------------------------

 ------------------------------
 CID_55271274_JID_4767_neutraal
 ------------------------------
 Symbolic Z-matrix:
 Charge =  0 Multiplicity = 1

 SCF Done:  E(RB3LYP) =  -628.406624601     A.U. after   15 cycles
 SCF Done:  E(RB3LYP) =  -628.411409102     A.U. after   12 cycles
 SCF Done:  E(RB3LYP) =  -628.412077782     A.U. after   12 cycles
 SCF Done:  E(RB3LYP) =  -628.412374596     A.U. after   12 cycles
 SCF Done:  E(RB3LYP) =  -628.412504432     A.U. after   11 cycles
 SCF Done:  E(RB3LYP) =  -628.412540893     A.U. after   11 cycles
 SCF Done:  E(RB3LYP) =  -628.412546098     A.U. after   10 cycles
 SCF Done:  E(RB3LYP) =  -628.412547755     A.U. after    8 cycles
 SCF Done:  E(RB3LYP) =  -628.412547962     A.U. after    7 cycles
 Optimization completed.
    -- Stationary point found.
 Normal termination of Gaussian 16 at Thu Dec 10 10:04:48 2020.

 --------------------------------------------------------------------
 #N Geom=AllCheck Guess=TCheck SCRF=Check GenChk RB3LYP/6-31G(d) Freq
 --------------------------------------------------------------------

 Structure from the checkpoint file:  "JID_4767.chk"
 ------------------------------
 CID_55271274_JID_4767_neutraal
 ------------------------------
 Charge =  0 Multiplicity = 1

 SCF Done:  E(RB3LYP) =  -628.412547962     A.U. after    1 cycles

  Exact polarizability: 179.882  -9.510 113.222  10.747  14.438  81.158
 Approx polarizability: 269.587 -18.113 194.630  23.808  41.026 131.237

                      1                      2                      3
                      A                      A                      A
 Frequencies --     44.1924                70.7378                95.7675
 Red. masses --      4.8666                 3.8484                 3.7351
 Frc consts  --      0.0056                 0.0113                 0.0202
 IR Inten    --      0.1481                 0.3396                 0.9960

                      4                      5                      6
                      A                      A                      A
 Frequencies --    181.9303               189.0558               238.3022
 Red. masses --      4.8296                 4.4151                 3.9405
 Frc consts  --      0.0942                 0.0930                 0.1318
 IR Inten    --      6.6012                 0.7207                 6.9839

                      7                      8                      9
                      A                      A                      A
 Frequencies --    249.5964               269.5693               297.1792
 Red. masses --      1.3138                 2.3125                 3.5529
 Frc consts  --      0.0482                 0.0990                 0.1849
 IR Inten    --      0.6097                 0.8992                10.1220

                     10                     11                     12
                      A                      A                      A
 Frequencies --    342.7136               351.8808               405.3557
 Red. masses --      1.1977                 3.5076                 2.9992
 Frc consts  --      0.0829                 0.2559                 0.2904
 IR Inten    --     16.2186                 2.0934                 2.9769

                     13                     14                     15
                      A                      A                      A
 Frequencies --    419.2432               435.2687               442.5394
 Red. masses --      1.2330                 1.8270                 3.9585
 Frc consts  --      0.1277                 0.2039                 0.4568
 IR Inten    --     88.1967               122.1956                10.0123

                     16                     17                     18
                      A                      A                      A
 Frequencies --    464.8053               521.3684               540.8796
 Red. masses --      2.0850                 3.6927                 3.2797
 Frc consts  --      0.2654                 0.5914                 0.5653
 IR Inten    --     50.3218                43.1329                 7.9468

                     19                     20                     21
                      A                      A                      A
 Frequencies --    612.4511               618.7415               663.2957
 Red. masses --      3.6066                 3.6762                 3.6842
 Frc consts  --      0.7971                 0.8292                 0.9550
 IR Inten    --      1.6346                 3.4119                 2.4668

                     22                     23                     24
                      A                      A                      A
 Frequencies --    700.2746               735.4029               777.0762
 Red. masses --      5.0609                 1.3911                 3.2471
 Frc consts  --      1.4622                 0.4433                 1.1552
 IR Inten    --      9.6909                65.1664                11.0327

                     25                     26                     27
                      A                      A                      A
 Frequencies --    795.0639               809.4805               839.0194
 Red. masses --      4.9605                 5.0011                 2.5201
 Frc consts  --      1.8475                 1.9308                 1.0452
 IR Inten    --      5.1791                 0.1002                32.3416

                     28                     29                     30
                      A                      A                      A
 Frequencies --    858.6347               909.8193               910.8971
 Red. masses --      1.2839                 1.6977                 3.2046
 Frc consts  --      0.5577                 0.8280                 1.5666
 IR Inten    --      0.6774                55.6010                29.1231

                     31                     32                     33
                      A                      A                      A
 Frequencies --    927.0657               938.0762               939.9074
 Red. masses --      1.9884                 1.4031                 1.7766
 Frc consts  --      1.0069                 0.7275                 0.9247
 IR Inten    --    176.0315                 7.3859                28.2849

                     34                     35                     36
                      A                      A                      A
 Frequencies --    991.8143              1044.8328              1092.0152
 Red. masses --      3.0390                 1.7104                 1.9066
 Frc consts  --      1.7613                 1.1002                 1.3396
 IR Inten    --     16.4300                43.4179                 3.9119

                     37                     38                     39
                      A                      A                      A
 Frequencies --   1098.7649              1114.6353              1121.5081
 Red. masses --      1.7358                 1.4473                 1.5315
 Frc consts  --      1.2347                 1.0594                 1.1349
 IR Inten    --     10.3269                22.2635                14.6075

                     40                     41                     42
                      A                      A                      A
 Frequencies --   1138.0335              1164.4325              1231.1298
 Red. masses --      2.0582                 1.9031                 1.7955
 Frc consts  --      1.5705                 1.5203                 1.6034
 IR Inten    --     53.1524                 4.4420                 7.8791

                     43                     44                     45
                      A                      A                      A
 Frequencies --   1246.1744              1291.1437              1292.3040
 Red. masses --      2.4571                 1.6893                 1.5748
 Frc consts  --      2.2482                 1.6592                 1.5495
 IR Inten    --      2.0638                 0.8761                 0.8020

                     46                     47                     48
                      A                      A                      A
 Frequencies --   1325.3942              1334.7483              1361.2503
 Red. masses --      1.8973                 3.7042                 1.6012
 Frc consts  --      1.9637                 3.8882                 1.7481
 IR Inten    --     18.9061                26.3046                20.5628

                     49                     50                     51
                      A                      A                      A
 Frequencies --   1385.6148              1391.4838              1408.2886
 Red. masses --      2.0287                 1.8143                 1.5073
 Frc consts  --      2.2948                 2.0697                 1.7613
 IR Inten    --      6.5748                23.5639                15.0990

                     52                     53                     54
                      A                      A                      A
 Frequencies --   1434.4964              1447.4549              1450.7716
 Red. masses --      1.2341                 3.0916                 1.2568
 Frc consts  --      1.4962                 3.8164                 1.5585
 IR Inten    --     11.5427                63.5615                59.3148

                     55                     56                     57
                      A                      A                      A
 Frequencies --   1467.2997              1522.8665              1526.9799
 Red. masses --      2.3808                 1.0516                 1.4704
 Frc consts  --      3.0201                 1.4368                 2.0199
 IR Inten    --      4.6296                 6.3429                 8.0257

                     58                     59                     60
                      A                      A                      A
 Frequencies --   1530.7226              1557.5267              1628.2696
 Red. masses --      1.9003                 4.4026                 5.1229
 Frc consts  --      2.6234                 6.2926                 8.0024
 IR Inten    --     15.3778                 7.6658                15.0945

                     61                     62                     63
                      A                      A                      A
 Frequencies --   1663.3211              1691.0480              3028.0875
 Red. masses --      6.4898                 1.0877                 1.0838
 Frc consts  --     10.5787                 1.8326                 5.8551
 IR Inten    --     11.0244                28.3301                28.8231

                     64                     65                     66
                      A                      A                      A
 Frequencies --   3050.5846              3088.2836              3117.6657
 Red. masses --      1.0369                 1.0873                 1.1004
 Frc consts  --      5.6855                 6.1099                 6.3016
 IR Inten    --     14.4724                15.4146                41.2620

                     67                     68                     69
                      A                      A                      A
 Frequencies --   3134.8038              3180.4452              3186.0523
 Red. masses --      1.1020                 1.0904                 1.0890
 Frc consts  --      6.3803                 6.4985                 6.5133
 IR Inten    --     29.5186                12.9654                13.3381

                     70                     71                     72
                      A                      A                      A
 Frequencies --   3262.2809              3282.2051              3474.4391
 Red. masses --      1.0905                 1.1030                 1.0489
 Frc consts  --      6.8380                 7.0008                 7.4606
 IR Inten    --      2.2124                 4.1691                 4.4545

                     73                     74                     75
                      A                      A                      A
 Frequencies --   3563.0435              3668.2943              3706.5669
 Red. masses --      1.0929                 1.0804                 1.0654
 Frc consts  --      8.1750                 8.5657                 8.6239
 IR Inten    --      1.6042                81.7539                14.2144

 - Thermochemistry -
 -------------------
 Temperature   298.150 Kelvin.  Pressure   1.00000 Atm.
 Atom     1 has atomic number  6 and mass  12.00000

 Molecular mass:   191.10586 amu.
 Principal axes and moments of inertia in atomic units:
                           1         2         3
     Eigenvalues --  1181.463934387.920464696.72771
           X            0.99999   0.00375   0.00092
           Y           -0.00373   0.99970  -0.02416
           Z           -0.00101   0.02416   0.99971
 This molecule is an asymmetric top.
 Rotational symmetry number  1.
 Warning -- assumption of classical behavior for rotation
           may cause significant error
 Rotational temperatures (Kelvin)      0.07331     0.01974     0.01844
 Rotational constants (GHZ):           1.52755     0.41130     0.38426
 Zero-point vibrational energy     593902.1 (Joules/Mol)
                                  141.94600 (Kcal/Mol)
 Warning -- explicit consideration of  20 degrees of freedom as
           vibrations may cause significant error
 Vibrational temperatures:     63.58   101.78   137.79   261.76   272.01
          (Kelvin)            342.86   359.11   387.85   427.57   493.09
                              506.28   583.22   603.20   626.25   636.72
                              668.75   750.13   778.21   881.18   890.23
                              954.33  1007.54  1058.08  1118.04  1143.92
                             1164.66  1207.16  1235.38  1309.03  1310.58
                             1333.84  1349.68  1352.32  1427.00  1503.28
                             1571.17  1580.88  1603.71  1613.60  1637.38
                             1675.36  1771.32  1792.97  1857.67  1859.34
                             1906.95  1920.41  1958.54  1993.59  2002.03
                             2026.21  2063.92  2082.56  2087.34  2111.12
                             2191.07  2196.98  2202.37  2240.93  2342.72
                             2393.15  2433.04  4356.74  4389.11  4443.35
                             4485.63  4510.28  4575.95  4584.02  4693.69
                             4722.36  4998.94  5126.42  5277.86  5332.92

 Zero-point correction=                           0.226205 (Hartree/Particle)
 Thermal correction to Energy=                    0.238607
 Thermal correction to Enthalpy=                  0.239551
 Thermal correction to Gibbs Free Energy=         0.187703
 Sum of electronic and zero-point Energies=           -628.186343
 Sum of electronic and thermal Energies=              -628.173941
 Sum of electronic and thermal Enthalpies=            -628.172996
 Sum of electronic and thermal Free Energies=         -628.224845

                     E (Thermal)             CV                S
                      KCal/Mol        Cal/Mol-Kelvin    Cal/Mol-Kelvin
 Total                  149.728             49.421            109.123
 Electronic               0.000              0.000              0.000
 Translational            0.889              2.981             41.649
 Rotational               0.889              2.981             31.566
 Vibrational            147.951             43.460             35.909
 Vibration     1          0.595              1.980              5.062
 Vibration     2          0.598              1.968              4.133
 Vibration     3          0.603              1.952              3.539
 Vibration     4          0.630              1.864              2.309
 Vibration     5          0.633              1.855              2.237
 Vibration     6          0.656              1.782              1.816
 Vibration     7          0.662              1.763              1.733
 Vibration     8          0.674              1.729              1.599
 Vibration     9          0.691              1.679              1.433
 Vibration    10          0.722              1.590              1.199
 Vibration    11          0.728              1.571              1.158
 Vibration    12          0.770              1.459              0.943
 Vibration    13          0.782              1.428              0.895
 Vibration    14          0.796              1.393              0.842
 Vibration    15          0.802              1.377              0.819
 Vibration    16          0.822              1.328              0.752
 Vibration    17          0.876              1.203              0.607
 Vibration    18          0.896              1.160              0.563
 Vibration    19          0.972              1.005              0.429
 Vibration    20          0.979              0.992              0.419

 Optimization completed.
    -- Stationary point found.
 Normal termination of Gaussian 16 at Thu Dec 10 10:11:49 2020.

 ----------------------------------------------------------------------
 # B3LYP/6-311++G(d,p) empiricaldispersion=gd3bj scf=xqc pop=npa geom=c
 heck
 ----------------------------------------------------------------------

 --------------------------------------
 CID_55271274_JID_4767_Energie_neutraal
 --------------------------------------
 Structure from the checkpoint file:  "JID_4767.chk"
 Charge =  0 Multiplicity = 1

 SCF Done:  E(RB3LYP) =  -628.599506147     A.U. after   17 cycles
 Normal termination of Gaussian 16 at Thu Dec 10 10:14:44 2020.

 ----------------------------------------------------------------------
 # B3LYP/6-311++G(d,p) empiricaldispersion=gd3bj scf=xqc pop=npa geom=c
 heck
 ----------------------------------------------------------------------

 ------------------------------------
 CID_55271274_JID_4767_Energie_kation
 ------------------------------------
 Structure from the checkpoint file:  "JID_4767.chk"
 Charge =  1 Multiplicity = 2

 SCF Done:  E(UB3LYP) =  -628.302726602     A.U. after   29 cycles
 Normal termination of Gaussian 16 at Thu Dec 10 10:21:25 2020.
 Gaussian 16:  ES64L-G16RevA.03 25-Dec-2016

 ----------------------------------------------------------------------
 # B3LYP/6-311++G(d,p) empiricaldispersion=gd3bj scf=xqc pop=npa geom=c
 heck
 ----------------------------------------------------------------------

 -----------------------------------
 CID_55271274_JID_4767_Energie_anion
 -----------------------------------
 Structure from the checkpoint file:  "JID_4767.chk"
 Charge = -1 Multiplicity = 2

                         Standard orientation:
 ---------------------------------------------------------------------
 Center     Atomic      Atomic             Coordinates (Angstroms)
 Number     Number       Type             X           Y           Z
 ---------------------------------------------------------------------
      1          6           0        2.366954    1.897879   -0.879909
      2          6           0        2.833231    0.557873   -0.322604
      3          6           0        2.005082    0.061467    0.889761
      4          6           0        0.542926   -0.156307    0.521348
      5          6           0        0.130915   -1.334686   -0.143076
      6          7           0       -1.119298   -1.593394   -0.544253
      7          6           0       -1.998632   -0.635663   -0.265794
      8          6           0       -1.738991    0.596115    0.404708
      9          6           0       -0.415854    0.819984    0.798951
     10          6           0       -2.989004    1.295730    0.488281
     11          6           0       -3.931903    0.499624   -0.112391
     12          7           0       -3.341109   -0.664525   -0.569224
     13          7           0        2.703199   -1.105232    1.434366
     14          8           0        2.878494   -0.443215   -1.342848
     15          1           0        1.336637    1.834457   -1.249290
     16          1           0        3.013348    2.200286   -1.709156
     17          1           0        2.399214    2.678166   -0.110755
     18          1           0        3.868019    0.638658    0.025179
     19          1           0        2.039352    0.858639    1.645396
     20          1           0        0.858067   -2.118555   -0.339512
     21          1           0       -0.130008    1.733526    1.315680
     22          1           0       -3.167326    2.264326    0.933534
     23          1           0       -4.989808    0.667501   -0.255693
     24          1           0       -3.799884   -1.429008   -1.040346
     25          1           0        2.091501   -1.622445    2.062292
     26          1           0        2.940726   -1.727772    0.663504
     27          1           0        1.984304   -0.502091   -1.719920
 ---------------------------------------------------------------------

 SCF Done:  E(UB3LYP) =  -628.591938309     A.U. after   33 cycles
 SCF Done:  E(UB3LYP) =  -628.591938309     a.u. after    1 cycles

 The electronic state is 2-A.
 Alpha  occ. eigenvalues --  -19.02155 -14.23092 -14.18912 -14.16874 -10.12208
 Alpha  occ. eigenvalues --  -10.10027 -10.09608 -10.07706 -10.06711 -10.06608
 Alpha  occ. eigenvalues --  -10.05133 -10.04547 -10.04423 -10.03959  -0.92546
 Alpha  occ. eigenvalues --   -0.86704  -0.79745  -0.78238  -0.68995  -0.66361
 Alpha  occ. eigenvalues --   -0.63706  -0.60862  -0.56638  -0.52144  -0.50779
 Alpha  occ. eigenvalues --   -0.47493  -0.45792  -0.42382  -0.39905  -0.38011
 Alpha  occ. eigenvalues --   -0.37650  -0.36766  -0.34120  -0.33654  -0.32265
 Alpha  occ. eigenvalues --   -0.31140  -0.30603  -0.28969  -0.27771  -0.27371
 Alpha  occ. eigenvalues --   -0.27148  -0.26686  -0.25738  -0.23342  -0.22210
 Alpha  occ. eigenvalues --   -0.18907  -0.17549  -0.15084  -0.13343  -0.10916
 Alpha  occ. eigenvalues --   -0.09907   0.04925
 Alpha virt. eigenvalues --    0.06934   0.07319   0.08717   0.08883   0.09497
 Alpha virt. eigenvalues --    0.09766   0.11025   0.11629   0.11689   0.12508
 Alpha virt. eigenvalues --    0.13068   0.13522   0.14219   0.14649   0.15249

  Beta  occ. eigenvalues --  -19.02122 -14.23073 -14.18912 -14.16570 -10.12210
  Beta  occ. eigenvalues --  -10.10048 -10.09603 -10.07533 -10.06607 -10.06605
  Beta  occ. eigenvalues --  -10.05182 -10.04495 -10.04160 -10.03963  -0.92473
  Beta  occ. eigenvalues --   -0.86551  -0.79451  -0.78133  -0.68722  -0.66319
  Beta  occ. eigenvalues --   -0.63568  -0.60594  -0.56575  -0.51870  -0.50577
  Beta  occ. eigenvalues --   -0.47356  -0.45742  -0.42162  -0.39852  -0.37983
  Beta  occ. eigenvalues --   -0.37590  -0.36603  -0.34017  -0.33585  -0.32226
  Beta  occ. eigenvalues --   -0.30702  -0.30533  -0.28906  -0.27668  -0.27329
  Beta  occ. eigenvalues --   -0.27023  -0.26605  -0.25629  -0.22681  -0.22067
  Beta  occ. eigenvalues --   -0.18546  -0.16912  -0.14990  -0.13036  -0.10427
  Beta  occ. eigenvalues --   -0.09087
  Beta virt. eigenvalues --    0.07128   0.08140   0.08765   0.08912   0.09356
  Beta virt. eigenvalues --    0.09694   0.10248   0.11350   0.11693   0.11793
  Beta virt. eigenvalues --    0.12550   0.13113   0.13501   0.14230   0.14644

 Mulliken charges and spin densities:
               1          2
     1  C   -0.467156  -0.177267
     2  C   -0.088099  -0.054065
     3  C   -0.127491  -0.172990
     4  C    0.609356  -0.287118
     5  C    0.175484  -0.325096
     6  N   -0.094511   0.117541
     7  C   -0.891878   0.350976
     8  C    1.158221  -0.814666
     9  C   -0.369563  -0.062033
    10  C   -0.496003   0.264448
    11  C    0.487810  -0.588812
    12  N   -0.281160   0.101503
    13  N   -0.150793  -0.008919
    14  O   -0.221021  -0.027545
    15  H    0.173142  -0.001837
    16  H    0.094612   0.053297
    17  H    0.074176   0.061948
    18  H    0.157895   0.034114
    19  H    0.093374   0.137497
    20  H    0.160825  -0.012084
    21  H   -0.065553   0.162036
    22  H   -0.141466   0.262119
    23  H   -1.264201   1.422172
    24  H   -0.138462   0.443772
    25  H    0.222111   0.000625
    26  H    0.241175   0.006717
    27  H    0.149178   0.113666
 Sum of Mulliken charges =  -1.00000   1.00000

 Dipole moment (field-independent basis, Debye):
    X=              7.4225    Y=              1.2735    Z=              0.1030  Tot=              7.5317
 Quadrupole moment (field-independent basis, Debye-Ang):
   XX=           -172.6430   YY=           -104.0189   ZZ=           -105.3003
   XY=              1.7501   XZ=             -0.6645   YZ=             -3.3102

 Summary of Natural Population Analysis:

                                       Natural Population
                Natural  -----------------------------------------------
    Atom  No    Charge         Core      Valence    Rydberg      Total
 -----------------------------------------------------------------------
      C    1   -0.30105      0.99964     2.29633    0.00508     3.30105
      C    2    0.06483      0.99955     1.92265    0.01296     2.93517
      C    3   -0.02458      0.99954     2.01196    0.01308     3.02458
      C    4   -0.07760      0.99949     2.06758    0.01053     3.07760
      C    5    0.02145      0.99954     1.96374    0.01526     2.97855
      N    6   -0.21005      0.99966     2.69915    0.01124     3.71005
      C    7    0.18029      0.99949     1.80257    0.01764     2.81971
      C    8   -0.05658      0.99949     2.04688    0.01021     3.05658
      C    9   -0.03431      0.99948     2.02676    0.00808     3.03431
      C   10   -0.15534      0.99954     2.14573    0.01007     3.15534
      C   11    0.03220      0.99958     1.95498    0.01324     2.96780
      N   12   -0.27987      0.99966     2.76952    0.01069     3.77987
      N   13   -0.42471      0.99977     2.91606    0.00888     3.92471
      O   14   -0.37834      0.99990     3.37157    0.00687     4.37834
      H   15    0.10612      0.00000     0.39274    0.00114     0.39388
      H   16    0.09885      0.00000     0.40001    0.00114     0.40115
      H   17    0.09974      0.00000     0.39920    0.00106     0.40026
      H   18    0.08603      0.00000     0.41218    0.00178     0.41397
      H   19    0.09160      0.00000     0.40627    0.00213     0.40840
      H   20    0.08421      0.00000     0.41417    0.00162     0.41579
      H   21    0.09094      0.00000     0.40724    0.00182     0.40906
      H   22    0.10126      0.00000     0.39790    0.00085     0.39874
      H   23    0.09798      0.00000     0.39850    0.00352     0.40202
      H   24    0.20060      0.00000     0.29503    0.00437     0.29940
      H   25    0.17487      0.00000     0.32327    0.00185     0.32513
      H   26    0.17812      0.00000     0.31967    0.00220     0.32188
      H   27    0.23335      0.00000     0.26356    0.00309     0.26665
 =======================================================================
   * Total *    0.00000     13.99435    36.82523    0.18042    51.00000

 Normal termination of Gaussian 16 at Thu Dec 10 10:29:13 2020.
