 Gaussian 16, Revision A.03,

 -----------------------------------------------------------
 # opt freq B3LYP/6-31G(d) empiricaldispersion=gd3bj scf=xqc
 -----------------------------------------------------------

 -------------------------------
 CID_130933954_JID_1574_neutraal
 -------------------------------
 Symbolic Z-matrix:
 Charge =  0 Multiplicity = 1

 SCF Done:  E(RB3LYP) =  -822.204266261     A.U. after   14 cycles
 SCF Done:  E(RB3LYP) =  -822.210159675     A.U. after   11 cycles
 SCF Done:  E(RB3LYP) =  -822.209602955     A.U. after   12 cycles
 SCF Done:  E(RB3LYP) =  -822.211143124     A.U. after   10 cycles
 SCF Done:  E(RB3LYP) =  -822.211617280     A.U. after   11 cycles
 SCF Done:  E(RB3LYP) =  -822.212390731     A.U. after   12 cycles
 SCF Done:  E(RB3LYP) =  -822.212772658     A.U. after   11 cycles
 SCF Done:  E(RB3LYP) =  -822.213211231     A.U. after   12 cycles
 SCF Done:  E(RB3LYP) =  -822.213283974     A.U. after   10 cycles
 SCF Done:  E(RB3LYP) =  -822.213338071     A.U. after   10 cycles
 SCF Done:  E(RB3LYP) =  -822.213411226     A.U. after    9 cycles
 SCF Done:  E(RB3LYP) =  -822.213415247     A.U. after    9 cycles
 SCF Done:  E(RB3LYP) =  -822.213421977     A.U. after   10 cycles
 SCF Done:  E(RB3LYP) =  -822.213426031     A.U. after    9 cycles
 SCF Done:  E(RB3LYP) =  -822.213426556     A.U. after    8 cycles
 SCF Done:  E(RB3LYP) =  -822.213427054     A.U. after    8 cycles
 Optimization completed.
    -- Stationary point found.
 Normal termination of Gaussian 16 at Tue Dec  8 20:31:59 2020.

 --------------------------------------------------------------------
 #N Geom=AllCheck Guess=TCheck SCRF=Check GenChk RB3LYP/6-31G(d) Freq
 --------------------------------------------------------------------

 Structure from the checkpoint file:  "JID_1574.chk"
 -------------------------------
 CID_130933954_JID_1574_neutraal
 -------------------------------
 Charge =  0 Multiplicity = 1

 SCF Done:  E(RB3LYP) =  -822.213427054     A.U. after    1 cycles

  Exact polarizability: 136.244 -14.116 118.494  -8.344  -2.630  88.629
 Approx polarizability: 172.608 -31.110 180.401 -16.801  -4.587 137.349

                      1                      2                      3
                      A                      A                      A
 Frequencies --     42.7076                51.7843                90.1270
 Red. masses --      4.9556                 2.9915                 3.6090
 Frc consts  --      0.0053                 0.0047                 0.0173
 IR Inten    --      2.9929                 0.1110                 0.6224

                      4                      5                      6
                      A                      A                      A
 Frequencies --    130.6086               150.6390               187.6089
 Red. masses --      3.8144                 2.8761                 1.0939
 Frc consts  --      0.0383                 0.0385                 0.0227
 IR Inten    --      4.7909                 6.1261                 0.0740

                      7                      8                      9
                      A                      A                      A
 Frequencies --    224.9421               242.5111               269.8757
 Red. masses --      1.1969                 1.6826                 1.3652
 Frc consts  --      0.0357                 0.0583                 0.0586
 IR Inten    --      0.0116                 0.1573                 0.4616

                     10                     11                     12
                      A                      A                      A
 Frequencies --    301.0793               305.5173               336.5695
 Red. masses --      3.1642                 1.9209                 2.7465
 Frc consts  --      0.1690                 0.1056                 0.1833
 IR Inten    --      0.3086                 0.1299                 1.1104

                     13                     14                     15
                      A                      A                      A
 Frequencies --    374.0439               388.8224               440.2783
 Red. masses --      3.3284                 2.4894                 2.3332
 Frc consts  --      0.2744                 0.2217                 0.2665
 IR Inten    --      3.5096                 0.6900                 2.3879

                     16                     17                     18
                      A                      A                      A
 Frequencies --    457.4653               492.8972               583.7752
 Red. masses --      2.4938                 2.6679                 2.2991
 Frc consts  --      0.3075                 0.3819                 0.4616
 IR Inten    --      2.9639                17.0511                 5.7949

                     19                     20                     21
                      A                      A                      A
 Frequencies --    616.3843               668.3597               679.5050
 Red. masses --      1.7121                 6.7919                 1.3937
 Frc consts  --      0.3833                 1.7876                 0.3791
 IR Inten    --     31.5843                26.6640                98.3556

                     22                     23                     24
                      A                      A                      A
 Frequencies --    769.2509               848.3288               883.5645
 Red. masses --      2.6354                 1.5090                 2.3336
 Frc consts  --      0.9188                 0.6398                 1.0734
 IR Inten    --     12.3454                 0.4415                 1.5763

                     25                     26                     27
                      A                      A                      A
 Frequencies --    888.4762               913.0233               949.2480
 Red. masses --      2.2184                 2.4767                 2.3481
 Frc consts  --      1.0318                 1.2164                 1.2466
 IR Inten    --      4.3522                 1.1562                 0.5119

                     28                     29                     30
                      A                      A                      A
 Frequencies --    973.9860               997.0046              1017.5406
 Red. masses --      1.3932                 1.4440                 1.6857
 Frc consts  --      0.7787                 0.8457                 1.0283
 IR Inten    --      0.0485                 3.0132                 0.8182

                     31                     32                     33
                      A                      A                      A
 Frequencies --   1039.2376              1088.4543              1100.9571
 Red. masses --      2.7587                 2.4706                 2.0109
 Frc consts  --      1.7554                 1.7245                 1.4361
 IR Inten    --     19.5560                 5.7987                 4.9970

                     34                     35                     36
                      A                      A                      A
 Frequencies --   1112.4194              1159.2165              1180.4410
 Red. masses --      1.5711                 1.2854                 1.6628
 Frc consts  --      1.1455                 1.0177                 1.3651
 IR Inten    --      0.8978                 7.5005                61.8997

                     37                     38                     39
                      A                      A                      A
 Frequencies --   1203.4659              1225.1157              1234.8322
 Red. masses --      1.9258                 2.2003                 1.9117
 Frc consts  --      1.6434                 1.9458                 1.7174
 IR Inten    --     17.8734                22.8907                78.9087

                     40                     41                     42
                      A                      A                      A
 Frequencies --   1252.9324              1260.2145              1313.1586
 Red. masses --      1.5118                 1.8541                 1.3665
 Frc consts  --      1.3983                 1.7349                 1.3883
 IR Inten    --     25.4099                94.4383                19.7673

                     43                     44                     45
                      A                      A                      A
 Frequencies --   1317.9355              1331.4743              1392.7947
 Red. masses --      2.2351                 2.0778                 1.3346
 Frc consts  --      2.2874                 2.1703                 1.5253
 IR Inten    --      1.8404                 9.8442                41.7391

                     46                     47                     48
                      A                      A                      A
 Frequencies --   1432.6230              1445.7376              1449.1923
 Red. masses --      1.2879                 1.8430                 1.2594
 Frc consts  --      1.5573                 2.2697                 1.5584
 IR Inten    --      5.6950                96.8473                 4.8282

                     49                     50                     51
                      A                      A                      A
 Frequencies --   1471.7762              1499.8367              1511.6054
 Red. masses --      1.2482                 1.0893                 1.3131
 Frc consts  --      1.5930                 1.4437                 1.7677
 IR Inten    --     67.3903                 1.8870                58.3183

                     52                     53                     54
                      A                      A                      A
 Frequencies --   1514.7779              1515.4376              1523.2068
 Red. masses --      1.0560                 1.0631                 1.2414
 Frc consts  --      1.4277                 1.4385                 1.6969
 IR Inten    --      1.0907                 1.6510                36.2230

                     55                     56                     57
                      A                      A                      A
 Frequencies --   1529.1279              1533.6667              1536.8075
 Red. masses --      1.1422                 1.0586                 1.0520
 Frc consts  --      1.5735                 1.4670                 1.4639
 IR Inten    --     13.3301                 2.9397                 5.0777

                     58                     59                     60
                      A                      A                      A
 Frequencies --   1548.9948              1589.5363              3035.5690
 Red. masses --      1.0744                 1.6718                 1.0349
 Frc consts  --      1.5189                 2.4887                 5.6184
 IR Inten    --     42.7719               300.7067                25.9588

                     61                     62                     63
                      A                      A                      A
 Frequencies --   3040.3905              3052.0772              3060.2758
 Red. masses --      1.0358                 1.0355                 1.0597
 Frc consts  --      5.6416                 5.6831                 5.8475
 IR Inten    --     29.4134                38.6092                29.0439

                     64                     65                     66
                      A                      A                      A
 Frequencies --   3074.2409              3085.7829              3100.2330
 Red. masses --      1.0590                 1.0857                 1.1023
 Frc consts  --      5.8969                 6.0913                 6.2423
 IR Inten    --     10.8778                23.5240                 8.3204

                     67                     68                     69
                      A                      A                      A
 Frequencies --   3106.2073              3107.6534              3111.1992
 Red. masses --      1.1022                 1.1022                 1.1022
 Frc consts  --      6.2659                 6.2713                 6.2856
 IR Inten    --     27.4775                41.7962                26.0504

                     70                     71                     72
                      A                      A                      A
 Frequencies --   3111.9867              3121.2214              3129.7691
 Red. masses --      1.1039                 1.1063                 1.1076
 Frc consts  --      6.2985                 6.3501                 6.3921
 IR Inten    --     32.1031                38.8594                42.0919

                     73                     74                     75
                      A                      A                      A
 Frequencies --   3147.3997              3591.9554              3624.4305
 Red. masses --      1.1032                 1.0760                 1.0771
 Frc consts  --      6.4388                 8.1794                 8.3369
 IR Inten    --     18.4468                30.2202                39.3088

 - Thermochemistry -
 -------------------
 Temperature   298.150 Kelvin.  Pressure   1.00000 Atm.
 Atom     1 has atomic number  6 and mass  12.00000

 Molecular mass:   172.10342 amu.
 Principal axes and moments of inertia in atomic units:
                           1         2         3
     Eigenvalues --  1094.658203517.856534070.28489
           X            0.99964   0.02673   0.00295
           Y           -0.02673   0.99964  -0.00067
           Z           -0.00297   0.00059   1.00000
 This molecule is an asymmetric top.
 Rotational symmetry number  1.
 Warning -- assumption of classical behavior for rotation
           may cause significant error
 Rotational temperatures (Kelvin)      0.07912     0.02462     0.02128
 Rotational constants (GHZ):           1.64868     0.51302     0.44339
 Zero-point vibrational energy     628585.5 (Joules/Mol)
                                  150.23555 (Kcal/Mol)
 Warning -- explicit consideration of  19 degrees of freedom as
           vibrations may cause significant error
 Vibrational temperatures:     61.45    74.51   129.67   187.92   216.74
          (Kelvin)            269.93   323.64   348.92   388.29   433.19
                              439.57   484.25   538.17   559.43   633.46
                              658.19   709.17   839.92   886.84   961.62
                              977.66  1106.78  1220.56  1271.25  1278.32
                             1313.64  1365.76  1401.35  1434.47  1464.01
                             1495.23  1566.04  1584.03  1600.52  1667.85
                             1698.39  1731.52  1762.67  1776.65  1802.69
                             1813.17  1889.34  1896.22  1915.69  2003.92
                             2061.22  2080.09  2085.06  2117.56  2157.93
                             2174.86  2179.43  2180.38  2191.55  2200.07
                             2206.60  2211.12  2228.66  2286.99  4367.51
                             4374.44  4391.26  4403.05  4423.15  4439.75
                             4460.54  4469.14  4471.22  4476.32  4477.45
                             4490.74  4503.04  4528.41  5168.02  5214.75

 Zero-point correction=                           0.239416 (Hartree/Particle)
 Thermal correction to Energy=                    0.252053
 Thermal correction to Enthalpy=                  0.252997
 Thermal correction to Gibbs Free Energy=         0.200196
 Sum of electronic and zero-point Energies=           -821.974011
 Sum of electronic and thermal Energies=              -821.961374
 Sum of electronic and thermal Enthalpies=            -821.960430
 Sum of electronic and thermal Free Energies=         -822.013231

                     E (Thermal)             CV                S
                      KCal/Mol        Cal/Mol-Kelvin    Cal/Mol-Kelvin
 Total                  158.165             47.116            111.128
 Electronic               0.000              0.000              0.000
 Translational            0.889              2.981             41.336
 Rotational               0.889              2.981             31.128
 Vibrational            156.388             41.155             38.664
 Vibration     1          0.595              1.980              5.129
 Vibration     2          0.596              1.977              4.748
 Vibration     3          0.602              1.956              3.657
 Vibration     4          0.612              1.923              2.937
 Vibration     5          0.618              1.902              2.664
 Vibration     6          0.632              1.857              2.251
 Vibration     7          0.650              1.803              1.919
 Vibration     8          0.659              1.775              1.784
 Vibration     9          0.674              1.729              1.597
 Vibration    10          0.693              1.672              1.411
 Vibration    11          0.696              1.663              1.386
 Vibration    12          0.717              1.602              1.228
 Vibration    13          0.745              1.525              1.063
 Vibration    14          0.757              1.494              1.005
 Vibration    15          0.800              1.382              0.826
 Vibration    16          0.816              1.344              0.774
 Vibration    17          0.849              1.266              0.676
 Vibration    18          0.941              1.066              0.478
 Vibration    19          0.976              0.997              0.422

                           ! Non-Optimized Parameters !
 Normal termination of Gaussian 16 at Tue Dec  8 20:38:55 2020.

 ----------------------------------------------------------------------
 # B3LYP/6-311++G(d,p) empiricaldispersion=gd3bj scf=xqc pop=npa geom=c
 heck
 ----------------------------------------------------------------------

 ---------------------------------------
 CID_130933954_JID_1574_Energie_neutraal
 ---------------------------------------
 Structure from the checkpoint file:  "JID_1574.chk"
 Charge =  0 Multiplicity = 1

 SCF Done:  E(RB3LYP) =  -822.362375467     A.U. after   14 cycles
 Normal termination of Gaussian 16 at Tue Dec  8 20:42:06 2020.

 ----------------------------------------------------------------------
 # B3LYP/6-311++G(d,p) empiricaldispersion=gd3bj scf=xqc pop=npa geom=c
 heck
 ----------------------------------------------------------------------

 -------------------------------------
 CID_130933954_JID_1574_Energie_kation
 -------------------------------------
 Structure from the checkpoint file:  "JID_1574.chk"
 Charge =  1 Multiplicity = 2

 SCF Done:  E(UB3LYP) =  -822.078950778     A.U. after   23 cycles
 Normal termination of Gaussian 16 at Tue Dec  8 20:48:33 2020.
 Gaussian 16:  ES64L-G16RevA.03 25-Dec-2016

 ----------------------------------------------------------------------
 # B3LYP/6-311++G(d,p) empiricaldispersion=gd3bj scf=xqc pop=npa geom=c
 heck
 ----------------------------------------------------------------------

 ------------------------------------
 CID_130933954_JID_1574_Energie_anion
 ------------------------------------
 Structure from the checkpoint file:  "JID_1574.chk"
 Charge = -1 Multiplicity = 2

                         Standard orientation:
 ---------------------------------------------------------------------
 Center     Atomic      Atomic             Coordinates (Angstroms)
 Number     Number       Type             X           Y           Z
 ---------------------------------------------------------------------
      1          6           0       -3.364834    0.976266    0.018888
      2          6           0       -2.412361   -0.211083   -0.141826
      3          6           0       -1.645908   -0.530280    1.180921
      4          6           0       -0.459488    0.312641    0.663311
      5          6           0       -1.047422    0.211493   -0.768571
      6          7           0        0.865609   -0.247942    0.922222
      7          6           0        1.932717   -0.124014    0.074599
      8         16           0        3.024483   -1.385801   -0.162769
      9          7           0        2.073307    1.065369   -0.574690
     10          6           0        1.628046    2.360688   -0.073332
     11          6           0       -3.116221   -1.389868   -0.804560
     12          1           0       -4.229655    0.701981    0.635051
     13          1           0       -2.873531    1.832255    0.496422
     14          1           0       -3.737890    1.308526   -0.957415
     15          1           0       -2.107176   -0.224025    2.124774
     16          1           0       -1.383071   -1.592852    1.240764
     17          1           0       -0.522165    1.334871    1.045258
     18          1           0       -0.579706   -0.605920   -1.325594
     19          1           0       -1.034444    1.116056   -1.384861
     20          1           0        0.852774   -1.166997    1.346686
     21          1           0        2.883492    1.069378   -1.178391
     22          1           0        1.636491    2.376264    1.021340
     23          1           0        2.319840    3.125029   -0.434859
     24          1           0        0.622787    2.619514   -0.424237
     25          1           0       -2.436535   -2.241165   -0.923331
     26          1           0       -3.974515   -1.722395   -0.207235
     27          1           0       -3.488012   -1.114736   -1.799369
 ---------------------------------------------------------------------

 SCF Done:  E(UB3LYP) =  -822.354484536     A.U. after   31 cycles

 The electronic state is 2-A.
 Alpha  occ. eigenvalues --  -88.68655 -14.24792 -14.24457 -10.18211 -10.11885
 Alpha  occ. eigenvalues --  -10.10639 -10.09332 -10.07922 -10.07105 -10.06802
 Alpha  occ. eigenvalues --  -10.06203  -7.77431  -5.73850  -5.73251  -5.72969
 Alpha  occ. eigenvalues --   -0.89023  -0.81864  -0.76073  -0.66682  -0.63458
 Alpha  occ. eigenvalues --   -0.59468  -0.58064  -0.57823  -0.52721  -0.51141
 Alpha  occ. eigenvalues --   -0.43748  -0.41450  -0.39646  -0.38973  -0.38714
 Alpha  occ. eigenvalues --   -0.35758  -0.34368  -0.33465  -0.32400  -0.31346
 Alpha  occ. eigenvalues --   -0.30136  -0.28148  -0.27820  -0.27270  -0.26212
 Alpha  occ. eigenvalues --   -0.24279  -0.23370  -0.21975  -0.21061  -0.16226
 Alpha  occ. eigenvalues --   -0.12278  -0.10973   0.03993
 Alpha virt. eigenvalues --    0.06248   0.07482   0.07942   0.08184   0.08902
 Alpha virt. eigenvalues --    0.09205   0.10213   0.10432   0.10783   0.11317
 Alpha virt. eigenvalues --    0.11915   0.12772   0.12967   0.13762   0.14220

  Beta  occ. eigenvalues --  -88.68653 -14.24778 -14.24448 -10.18175 -10.11870
  Beta  occ. eigenvalues --  -10.10571 -10.09332 -10.07902 -10.07086 -10.06778
  Beta  occ. eigenvalues --  -10.06160  -7.77429  -5.73849  -5.73245  -5.72967
  Beta  occ. eigenvalues --   -0.88976  -0.81828  -0.76052  -0.66630  -0.63402
  Beta  occ. eigenvalues --   -0.59402  -0.57993  -0.57777  -0.52681  -0.51101
  Beta  occ. eigenvalues --   -0.43683  -0.41408  -0.39594  -0.38905  -0.38644
  Beta  occ. eigenvalues --   -0.35689  -0.34332  -0.33425  -0.32359  -0.31317
  Beta  occ. eigenvalues --   -0.30070  -0.28086  -0.27780  -0.27227  -0.26162
  Beta  occ. eigenvalues --   -0.24237  -0.23332  -0.21925  -0.21031  -0.16183
  Beta  occ. eigenvalues --   -0.12242  -0.10955
  Beta virt. eigenvalues --    0.06354   0.07364   0.08043   0.08238   0.08742
  Beta virt. eigenvalues --    0.09498   0.09647   0.10665   0.10910   0.11075
  Beta virt. eigenvalues --    0.11848   0.12284   0.12844   0.13218   0.14075

 Mulliken charges and spin densities:
               1          2
     1  C    1.633776  -2.284091
     2  C   -1.416086   2.397671
     3  C    0.603923  -1.323415
     4  C    0.248111  -0.463653
     5  C   -0.077665  -0.557158
     6  N   -0.009885   0.141885
     7  C    0.027457   0.079445
     8  S   -0.681530  -0.094299
     9  N   -0.349135   0.275394
    10  C    1.240583  -1.646754
    11  C   -0.209093  -0.365808
    12  H   -0.164742   0.306952
    13  H   -0.469753   0.618018
    14  H   -0.200277   0.337430
    15  H   -0.442271   0.633440
    16  H    0.127885   0.013604
    17  H    0.472621  -0.235164
    18  H    0.154689   0.022955
    19  H   -0.175749   0.360528
    20  H    0.224134  -0.007194
    21  H    0.181117   0.118763
    22  H   -0.291719   0.468703
    23  H   -0.912958   1.091818
    24  H   -0.315424   0.506367
    25  H   -0.004504   0.135670
    26  H   -0.121656   0.258448
    27  H   -0.071850   0.210446
 Sum of Mulliken charges =  -1.00000   1.00000

 Dipole moment (field-independent basis, Debye):
    X=             -0.3361    Y=             -4.4518    Z=              0.1909  Tot=              4.4685
 Quadrupole moment (field-independent basis, Debye-Ang):
   XX=           -150.0842   YY=           -131.3933   ZZ=           -107.4603
   XY=              3.5442   XZ=              2.8354   YZ=             -0.4539

 Summary of Natural Population Analysis:

                                       Natural Population
                Natural  -----------------------------------------------
    Atom  No    Charge         Core      Valence    Rydberg      Total
 -----------------------------------------------------------------------
      C    1   -0.28291      0.99962     2.27620    0.00709     3.28291
      C    2   -0.04582      0.99959     2.03290    0.01332     3.04582
      C    3   -0.18082      0.99958     2.17199    0.00924     3.18082
      C    4   -0.01766      0.99956     2.00481    0.01329     3.01766
      C    5   -0.18797      0.99958     2.17905    0.00934     3.18797
      N    6   -0.31861      0.99963     2.80712    0.01185     3.81861
      C    7    0.16373      0.99964     1.81427    0.02235     2.83627
      S    8   -0.16268      4.99958     3.15000    0.01309     8.16268
      N    9   -0.31296      0.99964     2.80033    0.01299     3.81296
      C   10   -0.18225      0.99964     2.17408    0.00853     3.18225
      C   11   -0.28101      0.99961     2.27615    0.00524     3.28101
      H   12    0.09981      0.00000     0.39887    0.00132     0.40019
      H   13    0.10284      0.00000     0.39519    0.00196     0.39716
      H   14    0.10079      0.00000     0.39797    0.00124     0.39921
      H   15    0.10324      0.00000     0.39562    0.00114     0.39676
      H   16    0.09641      0.00000     0.40223    0.00135     0.40359
      H   17    0.10125      0.00000     0.39642    0.00233     0.39875
      H   18    0.10335      0.00000     0.39538    0.00127     0.39665
      H   19    0.10414      0.00000     0.39462    0.00125     0.39586
      H   20    0.19644      0.00000     0.30123    0.00233     0.30356
      H   21    0.19914      0.00000     0.29887    0.00199     0.30086
      H   22    0.09927      0.00000     0.39898    0.00175     0.40073
      H   23    0.10487      0.00000     0.39254    0.00260     0.39513
      H   24    0.09850      0.00000     0.39943    0.00207     0.40150
      H   25    0.09829      0.00000     0.40077    0.00094     0.40171
      H   26    0.09997      0.00000     0.39906    0.00096     0.40003
      H   27    0.10063      0.00000     0.39844    0.00092     0.39937
 =======================================================================
   * Total *   -0.00000     14.99568    31.85255    0.15177    47.00000

 Normal termination of Gaussian 16 at Tue Dec  8 20:58:45 2020.
