 Gaussian 16, Revision A.03,

 -----------------------------------------------------------
 # opt freq B3LYP/6-31G(d) empiricaldispersion=gd3bj scf=xqc
 -----------------------------------------------------------

 -----------------------------
 CID_143454049_JID_76_neutraal
 -----------------------------
 Symbolic Z-matrix:
 Charge =  0 Multiplicity = 1

 SCF Done:  E(RB3LYP) =  -442.659314189     A.U. after   14 cycles
 SCF Done:  E(RB3LYP) =  -442.662656807     A.U. after   12 cycles
 SCF Done:  E(RB3LYP) =  -442.663007763     A.U. after   11 cycles
 SCF Done:  E(RB3LYP) =  -442.663098668     A.U. after   11 cycles
 SCF Done:  E(RB3LYP) =  -442.663137384     A.U. after   11 cycles
 SCF Done:  E(RB3LYP) =  -442.663162436     A.U. after   11 cycles
 SCF Done:  E(RB3LYP) =  -442.663182659     A.U. after   11 cycles
 SCF Done:  E(RB3LYP) =  -442.663185976     A.U. after   10 cycles
 SCF Done:  E(RB3LYP) =  -442.663195809     A.U. after    9 cycles
 SCF Done:  E(RB3LYP) =  -442.663232867     A.U. after   11 cycles
 SCF Done:  E(RB3LYP) =  -442.664577428     A.U. after   11 cycles
 SCF Done:  E(RB3LYP) =  -442.664578867     A.U. after    8 cycles
 SCF Done:  E(RB3LYP) =  -442.664579064     A.U. after   11 cycles
 SCF Done:  E(RB3LYP) =  -442.664580549     A.U. after    8 cycles
 SCF Done:  E(RB3LYP) =  -442.664581048     A.U. after    8 cycles
 Optimization completed.
    -- Stationary point found.
 Normal termination of Gaussian 16 at Tue Dec  8 10:21:15 2020.

 --------------------------------------------------------------------
 #N Geom=AllCheck Guess=TCheck SCRF=Check GenChk RB3LYP/6-31G(d) Freq
 --------------------------------------------------------------------

 Structure from the checkpoint file:  "JID_76.chk"
 -----------------------------
 CID_143454049_JID_76_neutraal
 -----------------------------
 Charge =  0 Multiplicity = 1

 SCF Done:  E(RB3LYP) =  -442.664581048     A.U. after    1 cycles

  Exact polarizability: 131.033 -10.781  96.706  -1.032   1.871  61.567
 Approx polarizability: 198.297 -29.610 134.541  -5.693   4.371  93.864

                      1                      2                      3
                      A                      A                      A
 Frequencies --     51.4564                97.3789               100.9509
 Red. masses --      3.0842                 2.5245                 1.1490
 Frc consts  --      0.0048                 0.0141                 0.0069
 IR Inten    --      4.2651                 2.1738                 0.2385

                      4                      5                      6
                      A                      A                      A
 Frequencies --    129.4986               212.1936               242.6500
 Red. masses --      2.4547                 2.1040                 1.3697
 Frc consts  --      0.0243                 0.0558                 0.0475
 IR Inten    --      1.3145                 0.3296                 0.2667

                      7                      8                      9
                      A                      A                      A
 Frequencies --    261.3889               307.9362               328.3890
 Red. masses --      2.6359                 1.9625                 2.8635
 Frc consts  --      0.1061                 0.1096                 0.1819
 IR Inten    --      0.6676                 5.0587                 4.5079

                     10                     11                     12
                      A                      A                      A
 Frequencies --    395.3987               434.8637               463.1971
 Red. masses --      4.0490                 3.6077                 4.4695
 Frc consts  --      0.3730                 0.4020                 0.5650
 IR Inten    --      7.7954                 0.6854                10.1392

                     13                     14                     15
                      A                      A                      A
 Frequencies --    533.8070               558.6390               577.8747
 Red. masses --      3.6703                 2.4611                 3.1343
 Frc consts  --      0.6162                 0.4525                 0.6167
 IR Inten    --      2.8225                 9.3651                 1.7617

                     16                     17                     18
                      A                      A                      A
 Frequencies --    654.9138               698.3052               863.7428
 Red. masses --      4.5510                 2.8813                 1.4867
 Frc consts  --      1.1501                 0.8278                 0.6535
 IR Inten    --      8.7200                 6.8020                19.8665

                     19                     20                     21
                      A                      A                      A
 Frequencies --    878.1325               890.5131               909.9249
 Red. masses --      2.0942                 2.0554                 1.3404
 Frc consts  --      0.9515                 0.9603                 0.6539
 IR Inten    --      2.0592                10.5472                21.3677

                     22                     23                     24
                      A                      A                      A
 Frequencies --    941.4114              1053.7054              1065.2867
 Red. masses --      2.4425                 2.8501                 1.7110
 Frc consts  --      1.2754                 1.8644                 1.1440
 IR Inten    --      9.8063                 7.6507                31.7189

                     25                     26                     27
                      A                      A                      A
 Frequencies --   1077.1240              1092.4647              1104.4195
 Red. masses --      1.5086                 2.0564                 2.1270
 Frc consts  --      1.0312                 1.4460                 1.5286
 IR Inten    --      4.6534                20.2676                82.3053

                     28                     29                     30
                      A                      A                      A
 Frequencies --   1146.7038              1178.9846              1183.3642
 Red. masses --      3.4471                 1.2667                 1.1594
 Frc consts  --      2.6705                 1.0374                 0.9566
 IR Inten    --     64.9320                 1.0535                 2.7189

                     31                     32                     33
                      A                      A                      A
 Frequencies --   1200.2606              1236.1344              1257.2537
 Red. masses --      1.6221                 1.4245                 2.0766
 Frc consts  --      1.3768                 1.2825                 1.9340
 IR Inten    --     60.2859                 9.7409                 1.7791

                     34                     35                     36
                      A                      A                      A
 Frequencies --   1281.8778              1297.9871              1373.8085
 Red. masses --      2.2839                 1.2863                 1.4103
 Frc consts  --      2.2111                 1.2768                 1.5682
 IR Inten    --    269.5843                43.7963                 2.9495

                     37                     38                     39
                      A                      A                      A
 Frequencies --   1396.2283              1409.9182              1438.3410
 Red. masses --      1.4860                 1.6037                 1.3185
 Frc consts  --      1.7067                 1.8782                 1.6071
 IR Inten    --     28.3074                61.0927                28.4068

                     40                     41                     42
                      A                      A                      A
 Frequencies --   1449.8312              1498.0602              1503.2542
 Red. masses --      2.6844                 1.0955                 1.1401
 Frc consts  --      3.3245                 1.4486                 1.5179
 IR Inten    --     26.9607                 2.3808                 8.0855

                     43                     44                     45
                      A                      A                      A
 Frequencies --   1508.4923              1512.6563              1518.2419
 Red. masses --      1.1019                 1.0819                 1.0642
 Frc consts  --      1.4774                 1.4586                 1.4453
 IR Inten    --      1.5205                 3.2777                 2.2345

                     46                     47                     48
                      A                      A                      A
 Frequencies --   1524.2275              1529.8854              1534.8625
 Red. masses --      1.0932                 1.0560                 1.0551
 Frc consts  --      1.4964                 1.4562                 1.4645
 IR Inten    --      2.3012                 9.4044                19.2703

                     49                     50                     51
                      A                      A                      A
 Frequencies --   1680.8177              1704.2463              3007.4116
 Red. masses --      9.1760                 7.5606                 1.0715
 Frc consts  --     15.2737                12.9382                 5.7101
 IR Inten    --     81.7147               181.9146                22.9342

                     52                     53                     54
                      A                      A                      A
 Frequencies --   3021.7310              3030.6953              3051.3994
 Red. masses --      1.0670                 1.0361                 1.0618
 Frc consts  --      5.7403                 5.6069                 5.8248
 IR Inten    --     17.2153                70.1141                21.8888

                     55                     56                     57
                      A                      A                      A
 Frequencies --   3059.4564              3082.6292              3084.9711
 Red. masses --      1.0429                 1.0908                 1.0910
 Frc consts  --      5.7515                 6.1072                 6.1174
 IR Inten    --     25.0848                43.4119                34.7431

                     58                     59                     60
                      A                      A                      A
 Frequencies --   3093.7867              3096.1545              3115.3239
 Red. masses --      1.1057                 1.1054                 1.0935
 Frc consts  --      6.2354                 6.2435                 6.2528
 IR Inten    --     34.0193                47.5103                15.8986

                     61                     62                     63
                      A                      A                      A
 Frequencies --   3154.7076              3167.3056              3408.3325
 Red. masses --      1.1001                 1.1014                 1.0744
 Frc consts  --      6.4504                 6.5100                 7.3538
 IR Inten    --     24.8163                11.5350                 9.8196

 - Thermochemistry -
 -------------------
 Temperature   298.150 Kelvin.  Pressure   1.00000 Atm.
 Atom     1 has atomic number  6 and mass  12.00000

 Molecular mass:   139.09971 amu.
 Principal axes and moments of inertia in atomic units:
                           1         2         3
     Eigenvalues --   891.600131631.224002431.53208
           X            0.99998   0.00351   0.00469
           Y           -0.00352   0.99999   0.00248
           Z           -0.00468  -0.00250   0.99999
 This molecule is an asymmetric top.
 Rotational symmetry number  1.
 Warning -- assumption of classical behavior for rotation
           may cause significant error
 Rotational temperatures (Kelvin)      0.09714     0.05310     0.03562
 Rotational constants (GHZ):           2.02416     1.10637     0.74222
 Zero-point vibrational energy     530333.9 (Joules/Mol)
                                  126.75285 (Kcal/Mol)
 Warning -- explicit consideration of  15 degrees of freedom as
           vibrations may cause significant error
 Vibrational temperatures:     74.03   140.11   145.25   186.32   305.30
          (Kelvin)            349.12   376.08   443.05   472.48   568.89
                              625.67   666.44   768.03   803.76   831.43
                              942.27  1004.71  1242.73  1263.44  1281.25
                             1309.18  1354.48  1516.05  1532.71  1549.74
                             1571.81  1589.01  1649.85  1696.30  1702.60
                             1726.91  1778.52  1808.91  1844.34  1867.51
                             1976.60  2008.86  2028.56  2069.45  2085.98
                             2155.37  2162.85  2170.38  2176.38  2184.41
                             2193.02  2201.16  2208.32  2418.32  2452.03
                             4326.99  4347.60  4360.49  4390.28  4401.88
                             4435.22  4438.59  4451.27  4454.68  4482.26
                             4538.92  4557.05  4903.83

 Zero-point correction=                           0.201994 (Hartree/Particle)
 Thermal correction to Energy=                    0.212374
 Thermal correction to Enthalpy=                  0.213318
 Thermal correction to Gibbs Free Energy=         0.166043
 Sum of electronic and zero-point Energies=           -442.462588
 Sum of electronic and thermal Energies=              -442.452207
 Sum of electronic and thermal Enthalpies=            -442.451263
 Sum of electronic and thermal Free Energies=         -442.498538

                     E (Thermal)             CV                S
                      KCal/Mol        Cal/Mol-Kelvin    Cal/Mol-Kelvin
 Total                  133.266             38.427             99.498
 Electronic               0.000              0.000              0.000
 Translational            0.889              2.981             40.702
 Rotational               0.889              2.981             29.649
 Vibrational            131.489             32.465             29.148
 Vibration     1          0.596              1.977              4.761
 Vibration     2          0.603              1.951              3.506
 Vibration     3          0.604              1.948              3.436
 Vibration     4          0.612              1.924              2.953
 Vibration     5          0.643              1.822              2.025
 Vibration     6          0.659              1.775              1.783
 Vibration     7          0.669              1.743              1.652
 Vibration     8          0.698              1.659              1.373
 Vibration     9          0.712              1.619              1.268
 Vibration    10          0.762              1.480              0.980
 Vibration    11          0.795              1.394              0.843
 Vibration    12          0.821              1.332              0.757
 Vibration    13          0.889              1.175              0.579
 Vibration    14          0.914              1.121              0.527
 Vibration    15          0.934              1.079              0.489

                           ! Non-Optimized Parameters !
 Normal termination of Gaussian 16 at Tue Dec  8 10:25:12 2020.

 ----------------------------------------------------------------------
 # B3LYP/6-311++G(d,p) empiricaldispersion=gd3bj scf=xqc pop=npa geom=c
 heck
 ----------------------------------------------------------------------

 -------------------------------------
 CID_143454049_JID_76_Energie_neutraal
 -------------------------------------
 Structure from the checkpoint file:  "JID_76.chk"
 Charge =  0 Multiplicity = 1

 SCF Done:  E(RB3LYP) =  -442.790831521     A.U. after   14 cycles
 Normal termination of Gaussian 16 at Tue Dec  8 10:26:36 2020.

 ----------------------------------------------------------------------
 # B3LYP/6-311++G(d,p) empiricaldispersion=gd3bj scf=xqc pop=npa geom=c
 heck
 ----------------------------------------------------------------------

 -----------------------------------
 CID_143454049_JID_76_Energie_kation
 -----------------------------------
 Structure from the checkpoint file:  "JID_76.chk"
 Charge =  1 Multiplicity = 2

 SCF Done:  E(UB3LYP) =  -442.503064045     A.U. after   21 cycles
 Normal termination of Gaussian 16 at Tue Dec  8 10:29:17 2020.
 Gaussian 16:  ES64L-G16RevA.03 25-Dec-2016

 ----------------------------------------------------------------------
 # B3LYP/6-311++G(d,p) empiricaldispersion=gd3bj scf=xqc pop=npa geom=c
 heck
 ----------------------------------------------------------------------

 ----------------------------------
 CID_143454049_JID_76_Energie_anion
 ----------------------------------
 Structure from the checkpoint file:  "JID_76.chk"
 Charge = -1 Multiplicity = 2

                         Standard orientation:
 ---------------------------------------------------------------------
 Center     Atomic      Atomic             Coordinates (Angstroms)
 Number     Number       Type             X           Y           Z
 ---------------------------------------------------------------------
      1          6           0       -0.277967    2.316395    0.097160
      2          6           0       -0.346254    0.815579    0.008705
      3          6           0        0.766492    0.044189   -0.074133
      4          6           0        0.750295   -1.463147   -0.107848
      5          6           0       -0.587093   -2.023376    0.381230
      6          6           0       -1.748860   -1.293809   -0.290779
      7          6           0       -1.681756    0.202696   -0.036483
      8          7           0       -2.713381    0.961077    0.088585
      9          8           0        1.969503    0.686310   -0.195155
     10          6           0        3.177459   -0.004077    0.087172
     11          1           0        0.743850    2.657544    0.268404
     12          1           0       -0.927727    2.672342    0.902008
     13          1           0       -0.652493    2.777413   -0.824824
     14          1           0        1.559759   -1.867015    0.510075
     15          1           0        0.953785   -1.806152   -1.134820
     16          1           0       -0.656290   -1.887570    1.467753
     17          1           0       -0.635318   -3.100126    0.184598
     18          1           0       -1.706527   -1.466079   -1.376945
     19          1           0       -2.713485   -1.681020    0.056980
     20          1           0       -3.568387    0.397461    0.026237
     21          1           0        3.209513   -0.365840    1.123093
     22          1           0        3.344465   -0.845714   -0.595656
     23          1           0        3.972603    0.730039   -0.055892
 ---------------------------------------------------------------------

 SCF Done:  E(UB3LYP) =  -442.778606559     A.U. after   33 cycles
 SCF Done:  E(UB3LYP) =  -442.778606559     a.u. after    1 cycles

 The electronic state is 2-A.
 Alpha  occ. eigenvalues --  -19.04802 -14.17628 -10.13159 -10.11126 -10.10855
 Alpha  occ. eigenvalues --  -10.07208 -10.07149 -10.06815 -10.05893 -10.04835
 Alpha  occ. eigenvalues --   -0.96208  -0.79820  -0.72001  -0.67247  -0.61999
 Alpha  occ. eigenvalues --   -0.60030  -0.56233  -0.49963  -0.48207  -0.41969
 Alpha  occ. eigenvalues --   -0.39310  -0.37060  -0.36364  -0.35261  -0.34326
 Alpha  occ. eigenvalues --   -0.31560  -0.30969  -0.30510  -0.29020  -0.26749
 Alpha  occ. eigenvalues --   -0.26612  -0.25450  -0.23865  -0.22614  -0.20879
 Alpha  occ. eigenvalues --   -0.20280  -0.15217  -0.11134   0.04624
 Alpha virt. eigenvalues --    0.07044   0.07550   0.08322   0.08762   0.09542
 Alpha virt. eigenvalues --    0.09973   0.10810   0.11470   0.12386   0.12537
 Alpha virt. eigenvalues --    0.13016   0.13908   0.15346   0.15606   0.16493

  Beta  occ. eigenvalues --  -19.04792 -14.17618 -10.13145 -10.11055 -10.10848
  Beta  occ. eigenvalues --  -10.07168 -10.07131 -10.06786 -10.05881 -10.04833
  Beta  occ. eigenvalues --   -0.96180  -0.79796  -0.71959  -0.67207  -0.61941
  Beta  occ. eigenvalues --   -0.59948  -0.56188  -0.49884  -0.48136  -0.41922
  Beta  occ. eigenvalues --   -0.39253  -0.37010  -0.36314  -0.35207  -0.34290
  Beta  occ. eigenvalues --   -0.31507  -0.30924  -0.30472  -0.28971  -0.26712
  Beta  occ. eigenvalues --   -0.26583  -0.25399  -0.23815  -0.22567  -0.20820
  Beta  occ. eigenvalues --   -0.20228  -0.15198  -0.11061
  Beta virt. eigenvalues --    0.07283   0.07685   0.08160   0.08769   0.09546
  Beta virt. eigenvalues --    0.09994   0.10731   0.11588   0.12004   0.12486
  Beta virt. eigenvalues --    0.12963   0.13255   0.14555   0.15636   0.15960

 Mulliken charges and spin densities:
               1          2
     1  C   -0.486470  -0.148504
     2  C    0.545878  -0.027666
     3  C   -0.392042   0.326327
     4  C    0.965378  -1.184693
     5  C    0.576588  -0.840462
     6  C   -0.558049   0.387466
     7  C   -0.075845  -0.539065
     8  N   -0.340125   0.070351
     9  O   -0.245602   0.118599
    10  C    1.615027  -1.917092
    11  H    0.124787   0.027469
    12  H    0.130491   0.029551
    13  H    0.137809   0.007816
    14  H   -0.161577   0.332447
    15  H   -0.223615   0.433889
    16  H    0.024342   0.117932
    17  H   -0.824773   1.006357
    18  H    0.032290   0.133807
    19  H   -0.187838   0.318109
    20  H    0.146729   0.050732
    21  H   -0.590681   0.762829
    22  H   -0.794804   0.966181
    23  H   -0.417900   0.567621
 Sum of Mulliken charges =  -1.00000   1.00000

 Dipole moment (field-independent basis, Debye):
    X=             -5.0901    Y=              4.0536    Z=             -0.3219  Tot=              6.5150
 Quadrupole moment (field-independent basis, Debye-Ang):
   XX=           -123.4903   YY=           -109.6355   ZZ=            -87.9778
   XY=              9.4737   XZ=              0.8194   YZ=             -1.4301

 Summary of Natural Population Analysis:

                                       Natural Population
                Natural  -----------------------------------------------
    Atom  No    Charge         Core      Valence    Rydberg      Total
 -----------------------------------------------------------------------
      C    1   -0.29302      0.99964     2.28733    0.00605     3.29302
      C    2   -0.08359      0.99940     2.07316    0.01103     3.08359
      C    3    0.20389      0.99934     1.78327    0.01350     2.79611
      C    4   -0.22172      0.99959     2.21339    0.00874     3.22172
      C    5   -0.18339      0.99964     2.17402    0.00974     3.18339
      C    6   -0.21629      0.99959     2.20683    0.00988     3.21629
      C    7    0.14344      0.99959     1.84088    0.01609     2.85656
      N    8   -0.34165      0.99972     2.83400    0.00794     3.84165
      O    9   -0.27668      0.99985     3.26632    0.01051     4.27668
      C   10   -0.09972      0.99959     2.09108    0.00905     3.09972
      H   11    0.10599      0.00000     0.39299    0.00102     0.39401
      H   12    0.10729      0.00000     0.39151    0.00120     0.39271
      H   13    0.10133      0.00000     0.39747    0.00120     0.39867
      H   14    0.11355      0.00000     0.38370    0.00275     0.38645
      H   15    0.11012      0.00000     0.38708    0.00280     0.38988
      H   16    0.09613      0.00000     0.40222    0.00165     0.40387
      H   17    0.10410      0.00000     0.39340    0.00250     0.39590
      H   18    0.10472      0.00000     0.39395    0.00134     0.39528
      H   19    0.10071      0.00000     0.39797    0.00132     0.39929
      H   20    0.15480      0.00000     0.34303    0.00217     0.34520
      H   21    0.08779      0.00000     0.40924    0.00296     0.41221
      H   22    0.08878      0.00000     0.40819    0.00303     0.41122
      H   23    0.09343      0.00000     0.40502    0.00155     0.40657
 =======================================================================
   * Total *    0.00000      9.99594    27.87606    0.12800    38.00000

 Normal termination of Gaussian 16 at Tue Dec  8 10:35:19 2020.
