 Gaussian 16, Revision A.03,

 -----------------------------------------------------------
 # opt freq B3LYP/6-31G(d) empiricaldispersion=gd3bj scf=xqc
 -----------------------------------------------------------

 -------------------------------
 CID_113481148_JID_7311_neutraal
 -------------------------------
 Symbolic Z-matrix:
 Charge =  0 Multiplicity = 1

 SCF Done:  E(RB3LYP) =  -768.611047165     A.U. after   14 cycles
 SCF Done:  E(RB3LYP) =  -768.616651256     A.U. after   12 cycles
 SCF Done:  E(RB3LYP) =  -768.616328677     A.U. after   12 cycles
 SCF Done:  E(RB3LYP) =  -768.618005210     A.U. after   11 cycles
 SCF Done:  E(RB3LYP) =  -768.618662885     A.U. after   11 cycles
 SCF Done:  E(RB3LYP) =  -768.619360702     A.U. after   12 cycles
 SCF Done:  E(RB3LYP) =  -768.619825615     A.U. after   11 cycles
 SCF Done:  E(RB3LYP) =  -768.620014602     A.U. after   11 cycles
 SCF Done:  E(RB3LYP) =  -768.620070825     A.U. after   12 cycles
 SCF Done:  E(RB3LYP) =  -768.620105679     A.U. after   10 cycles
 SCF Done:  E(RB3LYP) =  -768.620174573     A.U. after   10 cycles
 SCF Done:  E(RB3LYP) =  -768.620175463     A.U. after    9 cycles
 SCF Done:  E(RB3LYP) =  -768.620175936     A.U. after    8 cycles
 SCF Done:  E(RB3LYP) =  -768.620175953     A.U. after    8 cycles
 SCF Done:  E(RB3LYP) =  -768.620176048     A.U. after    8 cycles
 Optimization completed.
    -- Stationary point found.
 Normal termination of Gaussian 16 at Sun Dec 13 20:14:48 2020.

 --------------------------------------------------------------------
 #N Geom=AllCheck Guess=TCheck SCRF=Check GenChk RB3LYP/6-31G(d) Freq
 --------------------------------------------------------------------

 Structure from the checkpoint file:  "JID_7311.chk"
 -------------------------------
 CID_113481148_JID_7311_neutraal
 -------------------------------
 Charge =  0 Multiplicity = 1

 SCF Done:  E(RB3LYP) =  -768.620176048     A.U. after    1 cycles

  Exact polarizability: 170.822  16.645 166.055  23.804  -2.458 125.569
 Approx polarizability: 217.715  29.217 248.652  46.703  -9.532 208.316

                      1                      2                      3
                      A                      A                      A
 Frequencies --     16.0434                20.6464                39.3107
 Red. masses --      4.0161                 4.3523                 3.9249
 Frc consts  --      0.0006                 0.0011                 0.0036
 IR Inten    --      0.2565                 0.3503                 0.1373

                      4                      5                      6
                      A                      A                      A
 Frequencies --     44.1814                65.0259                85.8235
 Red. masses --      3.2964                 3.0404                 3.1445
 Frc consts  --      0.0038                 0.0076                 0.0136
 IR Inten    --      0.1555                 0.4050                 0.0873

                      7                      8                      9
                      A                      A                      A
 Frequencies --    112.0515               131.0111               145.4153
 Red. masses --      2.9593                 3.9908                 1.6929
 Frc consts  --      0.0219                 0.0404                 0.0211
 IR Inten    --      4.8974                 1.0254                 0.7729

                     10                     11                     12
                      A                      A                      A
 Frequencies --    163.3523               180.4240               206.6388
 Red. masses --      3.7720                 1.1125                 3.3653
 Frc consts  --      0.0593                 0.0213                 0.0847
 IR Inten    --      3.2900                 0.1351                 4.5563

                     13                     14                     15
                      A                      A                      A
 Frequencies --    225.6121               257.3522               277.4276
 Red. masses --      1.7319                 2.7021                 1.6891
 Frc consts  --      0.0519                 0.1054                 0.0766
 IR Inten    --      0.0160                 4.2032                 0.3974

                     16                     17                     18
                      A                      A                      A
 Frequencies --    298.5904               324.1328               334.6395
 Red. masses --      2.3228                 3.2614                 2.3478
 Frc consts  --      0.1220                 0.2019                 0.1549
 IR Inten    --      4.5967                 4.8984                 0.0809

                     19                     20                     21
                      A                      A                      A
 Frequencies --    370.4534               412.8955               421.8783
 Red. masses --      3.8813                 1.9164                 4.1363
 Frc consts  --      0.3138                 0.1925                 0.4337
 IR Inten    --      6.1145                 1.8501                 1.2919

                     22                     23                     24
                      A                      A                      A
 Frequencies --    460.1351               499.1767               507.7038
 Red. masses --      4.3104                 2.1231                 3.4048
 Frc consts  --      0.5377                 0.3117                 0.5171
 IR Inten    --     13.6497                 6.1670                12.8273

                     25                     26                     27
                      A                      A                      A
 Frequencies --    547.8501               585.1131               609.3845
 Red. masses --      3.3873                 5.4007                 4.1212
 Frc consts  --      0.5990                 1.0894                 0.9017
 IR Inten    --      3.5804                 5.4720                 5.2552

                     28                     29                     30
                      A                      A                      A
 Frequencies --    615.7850               731.5514               739.2484
 Red. masses --      3.8754                 3.4845                 1.3807
 Frc consts  --      0.8658                 1.0987                 0.4446
 IR Inten    --     13.6054                24.3006                25.5318

                     31                     32                     33
                      A                      A                      A
 Frequencies --    746.2671               778.2377               785.2787
 Red. masses --      1.4549                 1.8980                 1.9607
 Frc consts  --      0.4774                 0.6773                 0.7124
 IR Inten    --     23.1964                34.6498                37.3204

                     34                     35                     36
                      A                      A                      A
 Frequencies --    815.4967               822.0340               850.1060
 Red. masses --      1.9476                 1.9276                 2.2655
 Frc consts  --      0.7631                 0.7674                 0.9646
 IR Inten    --      7.2352                 1.7090                 6.0294

                     37                     38                     39
                      A                      A                      A
 Frequencies --    881.5095               888.2090               912.7238
 Red. masses --      3.0406                 2.0884                 1.8566
 Frc consts  --      1.3921                 0.9707                 0.9113
 IR Inten    --      3.4508                 3.0263                10.0091

                     40                     41                     42
                      A                      A                      A
 Frequencies --    953.3220               964.5557               975.4018
 Red. masses --      1.3722                 1.3152                 1.7179
 Frc consts  --      0.7347                 0.7209                 0.9630
 IR Inten    --      0.0481                 0.7388                 2.0638

                     43                     44                     45
                      A                      A                      A
 Frequencies --    988.8834              1015.3895              1040.5973
 Red. masses --      1.5694                 2.1392                 7.6962
 Frc consts  --      0.9042                 1.2995                 4.9101
 IR Inten    --      5.6932                18.6363                62.6820

                     46                     47                     48
                      A                      A                      A
 Frequencies --   1075.6078              1085.5622              1089.1266
 Red. masses --      3.2706                 2.4826                 2.1854
 Frc consts  --      2.2294                 1.7237                 1.5274
 IR Inten    --      2.5911                20.7361                11.9119

                     49                     50                     51
                      A                      A                      A
 Frequencies --   1105.2286              1116.5304              1123.8444
 Red. masses --      2.0323                 2.4550                 1.6572
 Frc consts  --      1.4626                 1.8032                 1.2332
 IR Inten    --      6.2868                65.0420                33.7459

                     52                     53                     54
                      A                      A                      A
 Frequencies --   1140.0801              1174.5625              1181.4913
 Red. masses --      2.0910                 2.0229                 2.5271
 Frc consts  --      1.6013                 1.6443                 2.0784
 IR Inten    --     18.7921                20.1009                49.7223

                     55                     56                     57
                      A                      A                      A
 Frequencies --   1190.2203              1207.1552              1235.7202
 Red. masses --      1.2593                 1.6290                 1.5431
 Frc consts  --      1.0510                 1.3986                 1.3883
 IR Inten    --      6.4630                47.0992                45.2604

                     58                     59                     60
                      A                      A                      A
 Frequencies --   1262.8772              1268.5690              1294.1046
 Red. masses --      1.8681                 1.4470                 1.2442
 Frc consts  --      1.7554                 1.3719                 1.2276
 IR Inten    --     58.6444                15.2579                18.3892

                     61                     62                     63
                      A                      A                      A
 Frequencies --   1300.2164              1308.4629              1312.5213
 Red. masses --      1.6724                 2.0381                 1.4634
 Frc consts  --      1.6658                 2.0559                 1.4853
 IR Inten    --     18.9212                29.0584                14.0142

                     64                     65                     66
                      A                      A                      A
 Frequencies --   1338.7114              1358.4077              1362.0542
 Red. masses --      2.0168                 1.2736                 1.3404
 Frc consts  --      2.1296                 1.3846                 1.4651
 IR Inten    --     47.6596                 1.8976                 6.8203

                     67                     68                     69
                      A                      A                      A
 Frequencies --   1373.7045              1387.6893              1404.7190
 Red. masses --      1.2615                 1.3244                 1.4149
 Frc consts  --      1.4026                 1.5026                 1.6450
 IR Inten    --      0.5845                 3.9338                 2.6068

                     70                     71                     72
                      A                      A                      A
 Frequencies --   1421.2652              1431.6040              1443.1814
 Red. masses --      1.2666                 1.4067                 1.2800
 Frc consts  --      1.5074                 1.6986                 1.5708
 IR Inten    --     52.4164                16.2188                 3.9346

                     73                     74                     75
                      A                      A                      A
 Frequencies --   1446.3672              1473.0722              1491.6200
 Red. masses --      1.2810                 1.5712                 1.4439
 Frc consts  --      1.5789                 2.0088                 1.8928
 IR Inten    --      3.8416                 0.9819                78.4581

                     76                     77                     78
                      A                      A                      A
 Frequencies --   1503.5080              1507.1132              1510.6072
 Red. masses --      1.0852                 1.3536                 1.2371
 Frc consts  --      1.4453                 1.8115                 1.6633
 IR Inten    --      5.6215               113.5235                33.6328

                     79                     80                     81
                      A                      A                      A
 Frequencies --   1516.4997              1520.3799              1524.3457
 Red. masses --      1.1012                 1.0623                 1.3885
 Frc consts  --      1.4921                 1.4468                 1.9009
 IR Inten    --      8.9902                 1.4955                55.2471

                     82                     83                     84
                      A                      A                      A
 Frequencies --   1527.6709              1535.1841              1537.9602
 Red. masses --      1.0771                 1.0761                 1.1138
 Frc consts  --      1.4810                 1.4943                 1.5523
 IR Inten    --      8.2703                 0.9116                 9.0307

                     85                     86                     87
                      A                      A                      A
 Frequencies --   1539.3026              1544.3157              1545.8972
 Red. masses --      1.0681                 1.0831                 1.6725
 Frc consts  --      1.4912                 1.5220                 2.3549
 IR Inten    --      4.6859                 4.2252               105.6116

                     88                     89                     90
                      A                      A                      A
 Frequencies --   1634.9091              1651.2367              3015.2299
 Red. masses --      4.6704                 5.8971                 1.0686
 Frc consts  --      7.3551                 9.4735                 5.7242
 IR Inten    --      7.1251                79.8785                51.4584

                     91                     92                     93
                      A                      A                      A
 Frequencies --   3026.3204              3029.0235              3035.1243
 Red. masses --      1.0675                 1.0653                 1.0327
 Frc consts  --      5.7605                 5.7589                 5.6050
 IR Inten    --     24.3530                26.2081                54.9473

                     94                     95                     96
                      A                      A                      A
 Frequencies --   3045.4977              3046.3673              3056.4183
 Red. masses --      1.0439                 1.0606                 1.0619
 Frc consts  --      5.7048                 5.7991                 5.8446
 IR Inten    --     38.9812                15.0199                13.9959

                     97                     98                     99
                      A                      A                      A
 Frequencies --   3075.4862              3082.7859              3088.6384
 Red. masses --      1.0968                 1.0959                 1.0963
 Frc consts  --      6.1123                 6.1363                 6.1620
 IR Inten    --     23.5758                22.7243                22.4077

                    100                    101                    102
                      A                      A                      A
 Frequencies --   3096.0317              3098.8464              3099.3912
 Red. masses --      1.0972                 1.0830                 1.0743
 Frc consts  --      6.1965                 6.1277                 6.0803
 IR Inten    --     52.6874                74.2433                 4.0806

                    103                    104                    105
                      A                      A                      A
 Frequencies --   3100.7114              3113.5787              3116.4212
 Red. masses --      1.1054                 1.1018                 1.1012
 Frc consts  --      6.2615                 6.2931                 6.3012
 IR Inten    --     34.1832                83.4827                36.4150

                    106                    107                    108
                      A                      A                      A
 Frequencies --   3142.9245              3152.7958              3172.8848
 Red. masses --      1.1056                 1.1032                 1.0891
 Frc consts  --      6.4343                 6.4609                 6.4597
 IR Inten    --     24.4730                26.3202                27.1464

                    109                    110                    111
                      A                      A                      A
 Frequencies --   3203.7725              3220.8745              3551.2123
 Red. masses --      1.0892                 1.0968                 1.0744
 Frc consts  --      6.5872                 6.7037                 7.9833
 IR Inten    --     11.0238                16.5213                14.0749

 - Thermochemistry -
 -------------------
 Temperature   298.150 Kelvin.  Pressure   1.00000 Atm.
 Atom     1 has atomic number  6 and mass  12.00000

 Molecular mass:   238.16813 amu.
 Principal axes and moments of inertia in atomic units:
                           1         2         3
     Eigenvalues --  2421.888447911.274529282.08452
           X            0.99978  -0.02114   0.00018
           Y            0.02114   0.99972   0.01102
           Z           -0.00041  -0.01101   0.99994
 This molecule is an asymmetric top.
 Rotational symmetry number  1.
 Warning -- assumption of classical behavior for rotation
           may cause significant error
 Rotational temperatures (Kelvin)      0.03576     0.01095     0.00933
 Rotational constants (GHZ):           0.74518     0.22812     0.19443
 Zero-point vibrational energy     905695.2 (Joules/Mol)
                                  216.46634 (Kcal/Mol)
 Warning -- explicit consideration of  28 degrees of freedom as
           vibrations may cause significant error
 Vibrational temperatures:     23.08    29.71    56.56    63.57    93.56
          (Kelvin)            123.48   161.22   188.50   209.22   235.03
                              259.59   297.31   324.61   370.27   399.16
                              429.61   466.35   481.47   533.00   594.06
                              606.99   662.03   718.20   730.47   788.23
                              841.85   876.77   885.98  1052.54  1063.61
                             1073.71  1119.71  1129.84  1173.32  1182.72
                             1223.11  1268.30  1277.93  1313.21  1371.62
                             1387.78  1403.39  1422.78  1460.92  1497.19
                             1547.56  1561.88  1567.01  1590.18  1606.44
                             1616.96  1640.32  1689.93  1699.90  1712.46
                             1736.83  1777.93  1817.00  1825.19  1861.93
                             1870.72  1882.59  1888.43  1926.11  1954.45
                             1959.69  1976.45  1996.58  2021.08  2044.88
                             2059.76  2076.42  2081.00  2119.42  2146.11
                             2163.21  2168.40  2173.43  2181.90  2187.49
                             2193.19  2197.98  2208.79  2212.78  2214.71
                             2221.93  2224.20  2352.27  2375.76  4338.24
                             4354.20  4358.09  4366.87  4381.79  4383.04
                             4397.50  4424.94  4435.44  4443.86  4454.50
                             4458.55  4459.33  4461.23  4479.75  4483.84
                             4521.97  4536.17  4565.07  4609.51  4634.12
                             5109.40

 Zero-point correction=                           0.344961 (Hartree/Particle)
 Thermal correction to Energy=                    0.363142
 Thermal correction to Enthalpy=                  0.364087
 Thermal correction to Gibbs Free Energy=         0.295863
 Sum of electronic and zero-point Energies=           -768.275215
 Sum of electronic and thermal Energies=              -768.257034
 Sum of electronic and thermal Enthalpies=            -768.256089
 Sum of electronic and thermal Free Energies=         -768.324313

                     E (Thermal)             CV                S
                      KCal/Mol        Cal/Mol-Kelvin    Cal/Mol-Kelvin
 Total                  227.875             67.137            143.588
 Electronic               0.000              0.000              0.000
 Translational            0.889              2.981             42.305
 Rotational               0.889              2.981             33.541
 Vibrational            226.098             61.175             67.741
 Vibration     1          0.593              1.986              7.072
 Vibration     2          0.593              1.986              6.571
 Vibration     3          0.594              1.981              5.294
 Vibration     4          0.595              1.980              5.062
 Vibration     5          0.597              1.971              4.299
 Vibration     6          0.601              1.959              3.753
 Vibration     7          0.607              1.939              3.233
 Vibration     8          0.612              1.922              2.931
 Vibration     9          0.617              1.908              2.731
 Vibration    10          0.623              1.887              2.511
 Vibration    11          0.629              1.866              2.324
 Vibration    12          0.641              1.830              2.073
 Vibration    13          0.650              1.802              1.914
 Vibration    14          0.667              1.750              1.680
 Vibration    15          0.678              1.715              1.549
 Vibration    16          0.692              1.676              1.425
 Vibration    17          0.709              1.627              1.289
 Vibration    18          0.716              1.606              1.238
 Vibration    19          0.742              1.533              1.078
 Vibration    20          0.777              1.442              0.916
 Vibration    21          0.784              1.423              0.886
 Vibration    22          0.818              1.338              0.766
 Vibration    23          0.855              1.252              0.660
 Vibration    24          0.863              1.233              0.639
 Vibration    25          0.903              1.144              0.549
 Vibration    26          0.942              1.064              0.476
 Vibration    27          0.968              1.012              0.434
 Vibration    28          0.975              0.998              0.423

 Optimization completed.
    -- Stationary point found.
 Normal termination of Gaussian 16 at Sun Dec 13 20:29:02 2020.

 ----------------------------------------------------------------------
 # B3LYP/6-311++G(d,p) empiricaldispersion=gd3bj scf=xqc pop=npa geom=c
 heck
 ----------------------------------------------------------------------

 ---------------------------------------
 CID_113481148_JID_7311_Energie_neutraal
 ---------------------------------------
 Structure from the checkpoint file:  "JID_7311.chk"
 Charge =  0 Multiplicity = 1

 SCF Done:  E(RB3LYP) =  -768.837851868     A.U. after   16 cycles
 Normal termination of Gaussian 16 at Sun Dec 13 20:37:24 2020.

 ----------------------------------------------------------------------
 # B3LYP/6-311++G(d,p) empiricaldispersion=gd3bj scf=xqc pop=npa geom=c
 heck
 ----------------------------------------------------------------------

 -------------------------------------
 CID_113481148_JID_7311_Energie_kation
 -------------------------------------
 Structure from the checkpoint file:  "JID_7311.chk"
 Charge =  1 Multiplicity = 2

 SCF Done:  E(UB3LYP) =  -768.556582214     A.U. after   23 cycles
 Normal termination of Gaussian 16 at Sun Dec 13 20:54:44 2020.
 Gaussian 16:  ES64L-G16RevA.03 25-Dec-2016

 ----------------------------------------------------------------------
 # B3LYP/6-311++G(d,p) empiricaldispersion=gd3bj scf=xqc pop=npa geom=c
 heck
 ----------------------------------------------------------------------

 ------------------------------------
 CID_113481148_JID_7311_Energie_anion
 ------------------------------------
 Structure from the checkpoint file:  "JID_7311.chk"
 Charge = -1 Multiplicity = 2

                         Standard orientation:
 ---------------------------------------------------------------------
 Center     Atomic      Atomic             Coordinates (Angstroms)
 Number     Number       Type             X           Y           Z
 ---------------------------------------------------------------------
      1          6           0       -3.696795    2.441784   -0.141332
      2          6           0       -4.000225    1.332795    0.871099
      3          6           0       -4.544146    0.042781    0.230800
      4          6           0       -3.593210   -0.732699   -0.696462
      5          8           0       -2.825030   -1.752208   -0.065773
      6          6           0       -1.872453   -1.337796    0.905835
      7          6           0       -0.768007   -0.433090    0.360481
      8          6           0       -0.031623   -1.072067   -0.821680
      9          7           0        1.005400   -0.223575   -1.419732
     10          6           0        1.978877    0.407744   -0.654436
     11          6           0        2.684161   -0.244593    0.386197
     12          6           0        3.632429    0.470551    1.101734
     13          6           0        3.898937    1.798936    0.759695
     14          6           0        3.195519    2.339509   -0.311783
     15          7           0        2.253998    1.677007   -0.992770
     16          8           0        2.439094   -1.564481    0.707877
     17          6           0        3.027104   -2.484594   -0.217192
     18          1           0       -2.910288    2.149220   -0.846360
     19          1           0       -3.359249    3.353948    0.362610
     20          1           0       -4.588960    2.692822   -0.728277
     21          1           0       -3.100336    1.123679    1.460249
     22          1           0       -4.748503    1.700428    1.585426
     23          1           0       -4.887256   -0.652760    1.007351
     24          1           0       -5.435338    0.311417   -0.354005
     25          1           0       -4.181015   -1.279049   -1.440320
     26          1           0       -2.942350   -0.040485   -1.251423
     27          1           0       -2.368267   -0.859802    1.762527
     28          1           0       -1.430821   -2.272133    1.270056
     29          1           0       -1.170667    0.542541    0.060484
     30          1           0       -0.056861   -0.238732    1.172137
     31          1           0        0.406832   -2.018421   -0.497886
     32          1           0       -0.740513   -1.308888   -1.619241
     33          1           0        0.630260    0.455406   -2.074618
     34          1           0        4.156721   -0.031681    1.909411
     35          1           0        4.636136    2.385011    1.298206
     36          1           0        3.380246    3.361755   -0.636835
     37          1           0        4.120407   -2.389406   -0.213241
     38          1           0        2.744945   -3.484104    0.120792
     39          1           0        2.653175   -2.316849   -1.234092
 ---------------------------------------------------------------------

 SCF Done:  E(UB3LYP) =  -768.824260826     A.U. after   33 cycles
 SCF Done:  E(UB3LYP) =  -768.824260826     a.u. after    1 cycles

 The electronic state is 2-A.
 Alpha  occ. eigenvalues --  -19.04879 -19.03023 -14.22676 -14.20239 -10.14313
 Alpha  occ. eigenvalues --  -10.12697 -10.12537 -10.12436 -10.12254 -10.10650
 Alpha  occ. eigenvalues --  -10.10168 -10.08240 -10.07653 -10.07645 -10.07548
 Alpha  occ. eigenvalues --  -10.07476 -10.06746  -0.96442  -0.94058  -0.86816
 Alpha  occ. eigenvalues --   -0.80663  -0.70634  -0.70209  -0.68756  -0.65479
 Alpha  occ. eigenvalues --   -0.62978  -0.60278  -0.58439  -0.55215  -0.53764
 Alpha  occ. eigenvalues --   -0.51342  -0.49920  -0.46951  -0.43851  -0.42916
 Alpha  occ. eigenvalues --   -0.41111  -0.40779  -0.39466  -0.38088  -0.36918
 Alpha  occ. eigenvalues --   -0.36813  -0.35882  -0.35124  -0.34608  -0.32854
 Alpha  occ. eigenvalues --   -0.32424  -0.32216  -0.30700  -0.30472  -0.30198
 Alpha  occ. eigenvalues --   -0.28873  -0.28479  -0.28086  -0.26361  -0.25718
 Alpha  occ. eigenvalues --   -0.25244  -0.24578  -0.23951  -0.21211  -0.21045
 Alpha  occ. eigenvalues --   -0.20046  -0.17582  -0.16592  -0.16223  -0.11936
 Alpha  occ. eigenvalues --    0.04248
 Alpha virt. eigenvalues --    0.05524   0.06378   0.06644   0.07047   0.07604
 Alpha virt. eigenvalues --    0.08179   0.08382   0.08971   0.09273   0.09634
 Alpha virt. eigenvalues --    0.10094   0.10346   0.10663   0.11173   0.11219

  Beta  occ. eigenvalues --  -19.04886 -19.03022 -14.22674 -14.20136 -10.14324
  Beta  occ. eigenvalues --  -10.12641 -10.12495 -10.12429 -10.12242 -10.10646
  Beta  occ. eigenvalues --  -10.10092 -10.08127 -10.07676 -10.07630 -10.07529
  Beta  occ. eigenvalues --  -10.07472 -10.06717  -0.96415  -0.94052  -0.86734
  Beta  occ. eigenvalues --   -0.80579  -0.70598  -0.70054  -0.68719  -0.65399
  Beta  occ. eigenvalues --   -0.62939  -0.60210  -0.58390  -0.55175  -0.53596
  Beta  occ. eigenvalues --   -0.51291  -0.49869  -0.46902  -0.43780  -0.42878
  Beta  occ. eigenvalues --   -0.41082  -0.40744  -0.39419  -0.38024  -0.36872
  Beta  occ. eigenvalues --   -0.36761  -0.35860  -0.35086  -0.34567  -0.32830
  Beta  occ. eigenvalues --   -0.32393  -0.32152  -0.30626  -0.30362  -0.30123
  Beta  occ. eigenvalues --   -0.28773  -0.28440  -0.28019  -0.26302  -0.25683
  Beta  occ. eigenvalues --   -0.25226  -0.24541  -0.23910  -0.21129  -0.20976
  Beta  occ. eigenvalues --   -0.19895  -0.17181  -0.16522  -0.16114  -0.11768
  Beta virt. eigenvalues --    0.06185   0.06546   0.06970   0.07166   0.07422
  Beta virt. eigenvalues --    0.08001   0.08427   0.08632   0.09220   0.09515
  Beta virt. eigenvalues --    0.09832   0.10360   0.10586   0.10823   0.11407

 Mulliken charges and spin densities:
               1          2
     1  C    0.543047  -1.088747
     2  C   -0.419824   0.341105
     3  C    0.668722  -1.013669
     4  C   -0.312202   0.080856
     5  O   -0.065392   0.024926
     6  C   -0.593481  -0.350183
     7  C    0.339582  -0.043922
     8  C   -0.688599   0.087364
     9  N    0.052794  -0.008415
    10  C   -0.226536   0.066219
    11  C   -0.090369  -0.337278
    12  C   -0.720297   0.814570
    13  C    0.622421  -0.771192
    14  C   -0.326998   0.097374
    15  N   -0.033391   0.048840
    16  O   -0.086353   0.010429
    17  C    0.584764  -0.862314
    18  H   -0.157333   0.286356
    19  H   -0.065424   0.203193
    20  H   -0.270275   0.410882
    21  H   -0.003107   0.106372
    22  H   -0.323024   0.501226
    23  H    0.079726   0.085701
    24  H   -0.307634   0.449030
    25  H   -0.181210   0.369872
    26  H    0.157910  -0.047512
    27  H    0.022192   0.143487
    28  H    0.110872   0.047558
    29  H    0.639846  -0.375791
    30  H    0.097475   0.038727
    31  H    0.300558  -0.102312
    32  H    0.044326   0.151377
    33  H    0.276046   0.013271
    34  H   -0.188467   0.377392
    35  H   -0.121256   0.270395
    36  H    0.017929   0.139251
    37  H   -0.093361   0.227869
    38  H   -0.275246   0.431562
    39  H   -0.008432   0.176129
 Sum of Mulliken charges =  -1.00000   1.00000

 Dipole moment (field-independent basis, Debye):
    X=              2.7020    Y=             -1.1336    Z=             -0.1751  Tot=              2.9354
 Quadrupole moment (field-independent basis, Debye-Ang):
   XX=           -209.9352   YY=           -156.3146   ZZ=           -135.4050
   XY=             11.6276   XZ=             -2.8987   YZ=              1.0742

 Summary of Natural Population Analysis:

                                       Natural Population
                Natural  -----------------------------------------------
    Atom  No    Charge         Core      Valence    Rydberg      Total
 -----------------------------------------------------------------------
      C    1   -0.28758      0.99967     2.28194    0.00598     3.28758
      C    2   -0.19379      0.99964     2.18576    0.00839     3.19379
      C    3   -0.20807      0.99962     2.19993    0.00852     3.20807
      C    4   -0.01313      0.99957     1.99984    0.01373     3.01313
      O    5   -0.30425      0.99989     3.29514    0.00922     4.30425
      C    6   -0.00827      0.99957     1.99732    0.01138     3.00827
      C    7   -0.21763      0.99962     2.21178    0.00623     3.21763
      C    8   -0.08810      0.99960     2.07838    0.01012     3.08810
      N    9   -0.31883      0.99969     2.80804    0.01110     3.81883
      C   10    0.18171      0.99948     1.80384    0.01497     2.81829
      C   11    0.11936      0.99931     1.86746    0.01387     2.88064
      C   12   -0.07906      0.99952     2.06860    0.01095     3.07906
      C   13   -0.14523      0.99956     2.13674    0.00893     3.14523
      C   14    0.03775      0.99959     1.94859    0.01407     2.96225
      N   15   -0.24490      0.99968     2.73415    0.01107     3.74490
      O   16   -0.29529      0.99987     3.28420    0.01122     4.29529
      C   17   -0.10039      0.99959     2.09154    0.00927     3.10039
      H   18    0.09455      0.00000     0.40405    0.00140     0.40545
      H   19    0.10016      0.00000     0.39900    0.00084     0.39984
      H   20    0.09759      0.00000     0.40108    0.00132     0.40241
      H   21    0.09280      0.00000     0.40567    0.00153     0.40720
      H   22    0.09724      0.00000     0.40151    0.00125     0.40276
      H   23    0.10127      0.00000     0.39758    0.00114     0.39873
      H   24    0.10069      0.00000     0.39776    0.00155     0.39931
      H   25    0.09134      0.00000     0.40742    0.00124     0.40866
      H   26    0.07757      0.00000     0.42100    0.00143     0.42243
      H   27    0.08053      0.00000     0.41811    0.00136     0.41947
      H   28    0.09021      0.00000     0.40839    0.00140     0.40979
      H   29    0.09731      0.00000     0.40095    0.00173     0.40269
      H   30    0.10712      0.00000     0.39122    0.00167     0.39288
      H   31    0.09750      0.00000     0.40072    0.00178     0.40250
      H   32    0.09804      0.00000     0.40072    0.00123     0.40196
      H   33    0.18721      0.00000     0.30938    0.00341     0.31279
      H   34    0.10419      0.00000     0.39460    0.00121     0.39581
      H   35    0.10168      0.00000     0.39733    0.00098     0.39832
      H   36    0.08698      0.00000     0.41194    0.00108     0.41302
      H   37    0.08297      0.00000     0.41577    0.00126     0.41703
      H   38    0.09125      0.00000     0.40706    0.00168     0.40875
      H   39    0.08748      0.00000     0.41121    0.00131     0.41252
 =======================================================================
   * Total *    0.00000     16.99345    47.79571    0.21083    65.00000

 Normal termination of Gaussian 16 at Sun Dec 13 21:19:06 2020.
