 Gaussian 16, Revision A.03,

 -----------------------------------------------------------
 # opt freq B3LYP/6-31G(d) empiricaldispersion=gd3bj scf=xqc
 -----------------------------------------------------------

 -------------------------------
 CID_152321874_JID_4685_neutraal
 -------------------------------
 Symbolic Z-matrix:
 Charge =  0 Multiplicity = 1

 SCF Done:  E(RB3LYP) =  -617.158026480     A.U. after   14 cycles
 SCF Done:  E(RB3LYP) =  -617.163541155     A.U. after   12 cycles
 SCF Done:  E(RB3LYP) =  -617.163686648     A.U. after   13 cycles
 SCF Done:  E(RB3LYP) =  -617.164310736     A.U. after   13 cycles
 SCF Done:  E(RB3LYP) =  -617.164257859     A.U. after   13 cycles
 SCF Done:  E(RB3LYP) =  -617.165235323     A.U. after   12 cycles
 SCF Done:  E(RB3LYP) =  -617.165353130     A.U. after   12 cycles
 SCF Done:  E(RB3LYP) =  -617.165473139     A.U. after   11 cycles
 SCF Done:  E(RB3LYP) =  -617.165489840     A.U. after   10 cycles
 SCF Done:  E(RB3LYP) =  -617.165510206     A.U. after   10 cycles
 SCF Done:  E(RB3LYP) =  -617.167536782     A.U. after   13 cycles
 SCF Done:  E(RB3LYP) =  -617.167600421     A.U. after   12 cycles
 SCF Done:  E(RB3LYP) =  -617.167610507     A.U. after   10 cycles
 SCF Done:  E(RB3LYP) =  -617.167611995     A.U. after    8 cycles
 SCF Done:  E(RB3LYP) =  -617.167612496     A.U. after    8 cycles
 SCF Done:  E(RB3LYP) =  -617.167612593     A.U. after    7 cycles
 Optimization completed.
    -- Stationary point found.
 Normal termination of Gaussian 16 at Thu Dec 10 10:45:01 2020.

 --------------------------------------------------------------------
 #N Geom=AllCheck Guess=TCheck SCRF=Check GenChk RB3LYP/6-31G(d) Freq
 --------------------------------------------------------------------

 Structure from the checkpoint file:  "JID_4685.chk"
 -------------------------------
 CID_152321874_JID_4685_neutraal
 -------------------------------
 Charge =  0 Multiplicity = 1

 SCF Done:  E(RB3LYP) =  -617.167612593     A.U. after    1 cycles

  Exact polarizability: 168.372   6.088 124.663  -0.084   2.248 109.782
 Approx polarizability: 200.413  21.311 187.727  -6.025   4.449 168.055

                      1                      2                      3
                      A                      A                      A
 Frequencies --     21.1190                35.0600                38.9222
 Red. masses --      3.7218                 3.3859                 3.2744
 Frc consts  --      0.0010                 0.0025                 0.0029
 IR Inten    --      1.2021                 0.9623                 0.1755

                      4                      5                      6
                      A                      A                      A
 Frequencies --     57.2834                66.4145                98.8531
 Red. masses --      2.7888                 3.2977                 3.2931
 Frc consts  --      0.0054                 0.0086                 0.0190
 IR Inten    --      0.3646                 0.4539                 0.9121

                      7                      8                      9
                      A                      A                      A
 Frequencies --    125.5320               157.9100               175.8784
 Red. masses --      2.3517                 2.5805                 2.2637
 Frc consts  --      0.0218                 0.0379                 0.0413
 IR Inten    --      1.4763                 1.6163                 0.0964

                     10                     11                     12
                      A                      A                      A
 Frequencies --    206.1334               212.6752               243.0655
 Red. masses --      2.7113                 1.9606                 1.2450
 Frc consts  --      0.0679                 0.0522                 0.0433
 IR Inten    --      1.3658                 4.6376                 0.9746

                     13                     14                     15
                      A                      A                      A
 Frequencies --    269.1547               276.2797               278.1769
 Red. masses --      1.5629                 1.2080                 1.4633
 Frc consts  --      0.0667                 0.0543                 0.0667
 IR Inten    --      0.6048                 0.5015                 3.0256

                     16                     17                     18
                      A                      A                      A
 Frequencies --    295.7496               326.2114               328.6437
 Red. masses --      2.2699                 2.1076                 2.1154
 Frc consts  --      0.1170                 0.1321                 0.1346
 IR Inten    --      1.7204                 3.4514                 0.4427

                     19                     20                     21
                      A                      A                      A
 Frequencies --    368.5438               390.5837               424.3192
 Red. masses --      2.0505                 2.7350                 2.6222
 Frc consts  --      0.1641                 0.2458                 0.2782
 IR Inten    --      6.1627                 0.2321                 0.8290

                     22                     23                     24
                      A                      A                      A
 Frequencies --    434.5509               482.1584               531.8103
 Red. masses --      2.4992                 2.4477                 2.9920
 Frc consts  --      0.2781                 0.3353                 0.4986
 IR Inten    --      3.9699                 0.0947                 0.1908

                     25                     26                     27
                      A                      A                      A
 Frequencies --    552.9816               635.3494               679.5665
 Red. masses --      3.2532                 2.7177                 2.6295
 Frc consts  --      0.5861                 0.6464                 0.7155
 IR Inten    --     11.5393                 1.7835                18.2626

                     28                     29                     30
                      A                      A                      A
 Frequencies --    753.0799               799.2473               830.1539
 Red. masses --      1.8318                 2.5779                 1.7984
 Frc consts  --      0.6121                 0.9702                 0.7302
 IR Inten    --      5.7513                 4.1516                 1.4550

                     31                     32                     33
                      A                      A                      A
 Frequencies --    856.5475               881.7144               884.2198
 Red. masses --      3.2507                 1.7148                 2.2270
 Frc consts  --      1.4052                 0.7854                 1.0258
 IR Inten    --     18.3354                 4.3452                 5.8888

                     34                     35                     36
                      A                      A                      A
 Frequencies --    916.4969               933.9166               960.5758
 Red. masses --      1.8071                 1.8449                 1.6573
 Frc consts  --      0.8943                 0.9481                 0.9010
 IR Inten    --      2.5316                 3.2599                 8.9303

                     37                     38                     39
                      A                      A                      A
 Frequencies --    969.3806              1030.8407              1068.9621
 Red. masses --      1.8867                 2.3856                 1.8436
 Frc consts  --      1.0446                 1.4936                 1.2412
 IR Inten    --     36.7520                 5.5470                 1.2448

                     40                     41                     42
                      A                      A                      A
 Frequencies --   1072.2996              1080.3462              1092.5003
 Red. masses --      2.3204                 1.6706                 2.0684
 Frc consts  --      1.5720                 1.1488                 1.4545
 IR Inten    --     49.5607                17.7322                86.9991

                     43                     44                     45
                      A                      A                      A
 Frequencies --   1104.8791              1112.0496              1128.8167
 Red. masses --      1.9329                 2.2611                 1.6918
 Frc consts  --      1.3903                 1.6474                 1.2701
 IR Inten    --     14.9507                16.2341                20.3874

                     46                     47                     48
                      A                      A                      A
 Frequencies --   1136.6287              1146.5151              1160.7852
 Red. masses --      1.3457                 1.8220                 1.9699
 Frc consts  --      1.0243                 1.4111                 1.5639
 IR Inten    --      5.4908                24.5025                17.5015

                     49                     50                     51
                      A                      A                      A
 Frequencies --   1198.9620              1219.5499              1237.0922
 Red. masses --      1.5368                 1.4110                 2.0624
 Frc consts  --      1.3016                 1.2364                 1.8596
 IR Inten    --      1.7898                11.1689                12.6280

                     52                     53                     54
                      A                      A                      A
 Frequencies --   1261.5894              1292.6729              1315.4768
 Red. masses --      1.3330                 1.3847                 1.7061
 Frc consts  --      1.2500                 1.3632                 1.7395
 IR Inten    --      3.7506                24.0722                 7.5728

                     55                     56                     57
                      A                      A                      A
 Frequencies --   1320.2877              1334.5053              1371.4898
 Red. masses --      1.5260                 1.4058                 1.3034
 Frc consts  --      1.5673                 1.4751                 1.4445
 IR Inten    --     44.6526                11.3989                 4.7690

                     58                     59                     60
                      A                      A                      A
 Frequencies --   1393.9150              1405.8241              1412.6765
 Red. masses --      1.3978                 1.6903                 1.2294
 Frc consts  --      1.6002                 1.9682                 1.4455
 IR Inten    --      1.3286                27.6951                 7.4618

                     61                     62                     63
                      A                      A                      A
 Frequencies --   1426.9641              1433.1999              1439.7908
 Red. masses --      1.2906                 1.2373                 1.2652
 Frc consts  --      1.5484                 1.4974                 1.5453
 IR Inten    --      4.8637                23.7445                 6.9311

                     64                     65                     66
                      A                      A                      A
 Frequencies --   1447.2666              1471.1251              1476.1923
 Red. masses --      1.1894                 1.1598                 1.0902
 Frc consts  --      1.4679                 1.4789                 1.3998
 IR Inten    --      4.8053                 3.3612                12.7503

                     67                     68                     69
                      A                      A                      A
 Frequencies --   1492.6589              1499.6988              1512.2891
 Red. masses --      1.0930                 1.1534                 1.0476
 Frc consts  --      1.4348                 1.5284                 1.4116
 IR Inten    --      4.9016                 0.5573                 9.0208

                     70                     71                     72
                      A                      A                      A
 Frequencies --   1513.7820              1518.1433              1528.0905
 Red. masses --      1.0741                 1.0876                 1.0505
 Frc consts  --      1.4502                 1.4769                 1.4452
 IR Inten    --      4.3701                 9.8507                22.7327

                     73                     74                     75
                      A                      A                      A
 Frequencies --   1529.2499              1530.1800              1530.8810
 Red. masses --      1.0497                 1.0541                 1.0517
 Frc consts  --      1.4463                 1.4542                 1.4521
 IR Inten    --      6.7279                 5.4153                 7.1080

                     76                     77                     78
                      A                      A                      A
 Frequencies --   1534.9770              1543.4072              1543.5489
 Red. masses --      1.0784                 1.0551                 1.0520
 Frc consts  --      1.4971                 1.4808                 1.4767
 IR Inten    --      7.3740                 9.4779                 5.0945

                     79                     80                     81
                      A                      A                      A
 Frequencies --   1754.0864              1810.1804              2922.9313
 Red. masses --      9.0315                10.0922                 1.0620
 Frc consts  --     16.3724                19.4840                 5.3460
 IR Inten    --    179.0474               100.2756                38.7244

                     82                     83                     84
                      A                      A                      A
 Frequencies --   2930.0454              2945.6883              3019.9237
 Red. masses --      1.0649                 1.0688                 1.0610
 Frc consts  --      5.3865                 5.4644                 5.7010
 IR Inten    --     66.5924               124.8155                23.4426

                     85                     86                     87
                      A                      A                      A
 Frequencies --   3045.9325              3047.6873              3057.0141
 Red. masses --      1.0840                 1.0459                 1.0613
 Frc consts  --      5.9256                 5.7237                 5.8435
 IR Inten    --      3.3886                34.5155                 9.2526

                     88                     89                     90
                      A                      A                      A
 Frequencies --   3058.0976              3060.8403              3062.6337
 Red. masses --      1.0591                 1.0754                 1.0681
 Frc consts  --      5.8357                 5.9362                 5.9026
 IR Inten    --     28.7762                26.7386                 1.6309

                     91                     92                     93
                      A                      A                      A
 Frequencies --   3065.8524              3076.1018              3090.1523
 Red. masses --      1.0846                 1.0694                 1.0728
 Frc consts  --      6.0063                 5.9619                 6.0358
 IR Inten    --     36.2736                47.9950                42.5231

                     94                     95                     96
                      A                      A                      A
 Frequencies --   3094.4243              3098.8959              3113.4171
 Red. masses --      1.0982                 1.0871                 1.1003
 Frc consts  --      6.1955                 6.1511                 6.2838
 IR Inten    --      9.0212                17.7287                47.3009

                     97                     98                     99
                      A                      A                      A
 Frequencies --   3121.2109              3126.8725              3133.9970
 Red. masses --      1.1038                 1.1021                 1.1021
 Frc consts  --      6.3356                 6.3488                 6.3780
 IR Inten    --     37.0236                43.8218                27.9126

                    100                    101                    102
                      A                      A                      A
 Frequencies --   3141.5523              3152.6057              3176.6542
 Red. masses --      1.1011                 1.1005                 1.0929
 Frc consts  --      6.4027                 6.4445                 6.4981
 IR Inten    --     26.2366                14.2880                12.9528

 - Thermochemistry -
 -------------------
 Temperature   298.150 Kelvin.  Pressure   1.00000 Atm.
 Atom     1 has atomic number  6 and mass  12.00000

 Molecular mass:   198.17321 amu.
 Principal axes and moments of inertia in atomic units:
                           1         2         3
     Eigenvalues --  1252.729187026.253207287.14468
           X            0.99994  -0.01045   0.00149
           Y            0.01049   0.99956  -0.02768
           Z           -0.00120   0.02770   0.99962
 This molecule is an asymmetric top.
 Rotational symmetry number  1.
 Warning -- assumption of classical behavior for rotation
           may cause significant error
 Rotational temperatures (Kelvin)      0.06914     0.01233     0.01189
 Rotational constants (GHZ):           1.44065     0.25686     0.24766
 Zero-point vibrational energy     852190.7 (Joules/Mol)
                                  203.67848 (Kcal/Mol)
 Warning -- explicit consideration of  25 degrees of freedom as
           vibrations may cause significant error
 Vibrational temperatures:     30.39    50.44    56.00    82.42    95.56
          (Kelvin)            142.23   180.61   227.20   253.05   296.58
                              305.99   349.72   387.25   397.50   400.23
                              425.52   469.35   472.84   530.25   561.96
                              610.50   625.22   693.72   765.16   795.62
                              914.13   977.74  1083.51  1149.94  1194.41
                             1232.38  1268.59  1272.20  1318.63  1343.70
                             1382.05  1394.72  1483.15  1538.00  1542.80
                             1554.38  1571.86  1589.67  1599.99  1624.12
                             1635.36  1649.58  1670.11  1725.04  1754.66
                             1779.90  1815.15  1859.87  1892.68  1899.60
                             1920.06  1973.27  2005.53  2022.67  2032.53
                             2053.08  2062.05  2071.54  2082.29  2116.62
                             2123.91  2147.60  2157.73  2175.85  2177.99
                             2184.27  2198.58  2200.25  2201.59  2202.60
                             2208.49  2220.62  2220.82  2523.74  2604.45
                             4205.45  4215.68  4238.19  4345.00  4382.42
                             4384.94  4398.36  4399.92  4403.87  4406.45
                             4411.08  4425.82  4446.04  4452.19  4458.62
                             4479.51  4490.73  4498.87  4509.12  4519.99
                             4535.90  4570.50

 Zero-point correction=                           0.324582 (Hartree/Particle)
 Thermal correction to Energy=                    0.341673
 Thermal correction to Enthalpy=                  0.342617
 Thermal correction to Gibbs Free Energy=         0.278182
 Sum of electronic and zero-point Energies=           -616.843030
 Sum of electronic and thermal Energies=              -616.825940
 Sum of electronic and thermal Enthalpies=            -616.824996
 Sum of electronic and thermal Free Energies=         -616.889430

                     E (Thermal)             CV                S
                      KCal/Mol        Cal/Mol-Kelvin    Cal/Mol-Kelvin
 Total                  214.403             61.874            135.614
 Electronic               0.000              0.000              0.000
 Translational            0.889              2.981             41.757
 Rotational               0.889              2.981             32.528
 Vibrational            212.625             55.912             61.329
 Vibration     1          0.593              1.985              6.526
 Vibration     2          0.594              1.982              5.520
 Vibration     3          0.594              1.981              5.313
 Vibration     4          0.596              1.975              4.549
 Vibration     5          0.598              1.970              4.257
 Vibration     6          0.604              1.950              3.477
 Vibration     7          0.610              1.928              3.013
 Vibration     8          0.621              1.894              2.575
 Vibration     9          0.628              1.872              2.372
 Vibration    10          0.641              1.831              2.078
 Vibration    11          0.644              1.822              2.021
 Vibration    12          0.659              1.774              1.780
 Vibration    13          0.674              1.730              1.602
 Vibration    14          0.678              1.717              1.557
 Vibration    15          0.679              1.714              1.545
 Vibration    16          0.690              1.682              1.441
 Vibration    17          0.710              1.623              1.279
 Vibration    18          0.712              1.618              1.267
 Vibration    19          0.741              1.537              1.086
 Vibration    20          0.758              1.490              0.998
 Vibration    21          0.786              1.417              0.877
 Vibration    22          0.795              1.395              0.844
 Vibration    23          0.838              1.290              0.704
 Vibration    24          0.887              1.180              0.583
 Vibration    25          0.908              1.133              0.538

 Optimization completed.
    -- Stationary point found.
 Normal termination of Gaussian 16 at Thu Dec 10 10:54:50 2020.

 ----------------------------------------------------------------------
 # B3LYP/6-311++G(d,p) empiricaldispersion=gd3bj scf=xqc pop=npa geom=c
 heck
 ----------------------------------------------------------------------

 ---------------------------------------
 CID_152321874_JID_4685_Energie_neutraal
 ---------------------------------------
 Structure from the checkpoint file:  "JID_4685.chk"
 Charge =  0 Multiplicity = 1

 SCF Done:  E(RB3LYP) =  -617.343543640     A.U. after   15 cycles
 Normal termination of Gaussian 16 at Thu Dec 10 11:00:08 2020.

 ----------------------------------------------------------------------
 # B3LYP/6-311++G(d,p) empiricaldispersion=gd3bj scf=xqc pop=npa geom=c
 heck
 ----------------------------------------------------------------------

 -------------------------------------
 CID_152321874_JID_4685_Energie_kation
 -------------------------------------
 Structure from the checkpoint file:  "JID_4685.chk"
 Charge =  1 Multiplicity = 2

 SCF Done:  E(UB3LYP) =  -617.050584593     A.U. after   24 cycles
 Normal termination of Gaussian 16 at Thu Dec 10 11:14:25 2020.
 Gaussian 16:  ES64L-G16RevA.03 25-Dec-2016

 ----------------------------------------------------------------------
 # B3LYP/6-311++G(d,p) empiricaldispersion=gd3bj scf=xqc pop=npa geom=c
 heck
 ----------------------------------------------------------------------

 ------------------------------------
 CID_152321874_JID_4685_Energie_anion
 ------------------------------------
 Structure from the checkpoint file:  "JID_4685.chk"
 Charge = -1 Multiplicity = 2

                         Standard orientation:
 ---------------------------------------------------------------------
 Center     Atomic      Atomic             Coordinates (Angstroms)
 Number     Number       Type             X           Y           Z
 ---------------------------------------------------------------------
      1          6           0       -5.170475   -0.073257    1.024772
      2          6           0       -4.364544    0.683548   -0.034660
      3          6           0       -2.860731    0.685684    0.244270
      4          6           0       -2.181353   -0.655919    0.032424
      5          8           0       -2.757815   -1.629316   -0.414638
      6          6           0       -0.681930   -0.721496    0.336319
      7          6           0        0.074459   -0.848192   -0.982321
      8          7           0        1.034640   -0.183670   -1.478287
      9          6           0        1.684963    0.958503   -0.819020
     10          6           0        0.731183    2.152944   -0.649909
     11          6           0        2.423045    0.614026    0.494538
     12          7           0        3.733165    0.013110    0.278671
     13          6           0        4.491690   -0.034656    1.519612
     14          6           0        3.661143   -1.305912   -0.337683
     15          1           0       -4.871372   -1.124492    1.061652
     16          1           0       -6.242557   -0.034899    0.803459
     17          1           0       -5.020180    0.362608    2.020652
     18          1           0       -4.538271    0.233962   -1.018598
     19          1           0       -4.711047    1.722756   -0.091246
     20          1           0       -2.336179    1.403430   -0.405245
     21          1           0       -2.647996    1.021332    1.270481
     22          1           0       -0.352605    0.124034    0.937523
     23          1           0       -0.509471   -1.645238    0.903158
     24          1           0       -0.314208   -1.668138   -1.595536
     25          1           0        2.471535    1.277157   -1.512165
     26          1           0        0.018864    2.013664    0.168842
     27          1           0        1.304642    3.062221   -0.440108
     28          1           0        0.163026    2.312766   -1.571811
     29          1           0        2.585935    1.552277    1.038748
     30          1           0        1.784512   -0.019252    1.140545
     31          1           0        4.023561   -0.675230    2.294014
     32          1           0        5.494238   -0.427492    1.320466
     33          1           0        4.595987    0.974851    1.932115
     34          1           0        3.111502   -2.040359    0.285495
     35          1           0        3.156794   -1.244215   -1.304133
     36          1           0        4.676475   -1.684938   -0.493939
 ---------------------------------------------------------------------

 SCF Done:  E(UB3LYP) =  -617.336775153     A.U. after   32 cycles

 The electronic state is 2-A.
 Alpha  occ. eigenvalues --  -18.98354 -14.20549 -14.18448 -10.12771 -10.09750
 Alpha  occ. eigenvalues --  -10.09709 -10.08951 -10.08582 -10.07990 -10.06855
 Alpha  occ. eigenvalues --  -10.06816 -10.06615 -10.06539 -10.05785  -0.92098
 Alpha  occ. eigenvalues --   -0.82805  -0.80188  -0.69253  -0.67564  -0.64367
 Alpha  occ. eigenvalues --   -0.60421  -0.59798  -0.59357  -0.53174  -0.50423
 Alpha  occ. eigenvalues --   -0.48668  -0.43781  -0.41523  -0.38619  -0.37653
 Alpha  occ. eigenvalues --   -0.37013  -0.36465  -0.36063  -0.34407  -0.33323
 Alpha  occ. eigenvalues --   -0.32291  -0.31438  -0.30792  -0.30513  -0.29798
 Alpha  occ. eigenvalues --   -0.29170  -0.29061  -0.27854  -0.27284  -0.26287
 Alpha  occ. eigenvalues --   -0.25888  -0.25271  -0.24176  -0.23807  -0.23353
 Alpha  occ. eigenvalues --   -0.22628  -0.18651  -0.13900  -0.12315  -0.11773
 Alpha  occ. eigenvalues --    0.04410
 Alpha virt. eigenvalues --    0.06497   0.06839   0.07823   0.08587   0.08717
 Alpha virt. eigenvalues --    0.09118   0.09326   0.10276   0.10482   0.10897
 Alpha virt. eigenvalues --    0.11072   0.11584   0.11888   0.12620   0.12705

  Beta  occ. eigenvalues --  -18.98152 -14.20545 -14.18331 -10.12533 -10.09712
  Beta  occ. eigenvalues --  -10.09661 -10.08926 -10.08548 -10.07977 -10.06853
  Beta  occ. eigenvalues --  -10.06823 -10.06601 -10.06560 -10.05766  -0.91693
  Beta  occ. eigenvalues --   -0.82764  -0.80013  -0.69169  -0.67490  -0.64181
  Beta  occ. eigenvalues --   -0.60379  -0.59748  -0.59279  -0.53068  -0.50314
  Beta  occ. eigenvalues --   -0.48592  -0.43654  -0.41149  -0.38549  -0.37522
  Beta  occ. eigenvalues --   -0.36913  -0.36322  -0.35939  -0.34336  -0.33223
  Beta  occ. eigenvalues --   -0.32114  -0.31380  -0.30683  -0.30364  -0.29720
  Beta  occ. eigenvalues --   -0.29132  -0.29020  -0.27730  -0.27217  -0.26204
  Beta  occ. eigenvalues --   -0.25578  -0.25182  -0.24128  -0.23762  -0.23059
  Beta  occ. eigenvalues --   -0.22146  -0.18173  -0.13760  -0.12158  -0.11712
  Beta virt. eigenvalues --    0.06685   0.07024   0.07812   0.08461   0.08963
  Beta virt. eigenvalues --    0.09132   0.09474   0.09758   0.10511   0.10944
  Beta virt. eigenvalues --    0.11121   0.11484   0.11893   0.12040   0.12676

 Mulliken charges and spin densities:
               1          2
     1  C    0.063043  -0.670492
     2  C   -0.444383   0.109530
     3  C    0.372019  -0.404721
     4  C   -0.629369   0.470739
     5  O   -0.287860   0.071194
     6  C    0.637937  -0.543247
     7  C   -0.239978  -0.015778
     8  N   -0.046417   0.066051
     9  C   -0.065984   0.217301
    10  C   -0.480737  -0.305355
    11  C   -0.337891  -0.312233
    12  N    0.009165   0.133246
    13  C    0.688931  -0.971677
    14  C   -0.231896  -0.144544
    15  H    0.068646   0.113319
    16  H    0.036650   0.080496
    17  H   -0.097739   0.223743
    18  H    0.151092   0.002038
    19  H    0.002103   0.126727
    20  H    0.187557  -0.033424
    21  H   -0.286606   0.435698
    22  H    0.038325   0.085009
    23  H   -0.216627   0.461391
    24  H    0.197575  -0.007031
    25  H    0.231148  -0.024721
    26  H   -0.098982   0.245055
    27  H    0.003033   0.120658
    28  H    0.174687  -0.005506
    29  H   -0.105307   0.268816
    30  H    0.115641   0.032688
    31  H   -0.245712   0.361879
    32  H   -0.171399   0.285039
    33  H   -0.257351   0.377400
    34  H    0.094532   0.012110
    35  H    0.123551   0.047842
    36  H    0.048602   0.090757
 Sum of Mulliken charges =  -1.00000   1.00000

 Dipole moment (field-independent basis, Debye):
    X=             -0.5394    Y=              1.7546    Z=             -3.4730  Tot=              3.9283
 Quadrupole moment (field-independent basis, Debye-Ang):
   XX=           -171.3327   YY=           -118.0781   ZZ=           -124.9413
   XY=             -5.9956   XZ=             -2.8178   YZ=             -4.5117

 Summary of Natural Population Analysis:

                                       Natural Population
                Natural  -----------------------------------------------
    Atom  No    Charge         Core      Valence    Rydberg      Total
 -----------------------------------------------------------------------
      C    1   -0.28845      0.99967     2.28383    0.00495     3.28845
      C    2   -0.19237      0.99965     2.18304    0.00968     3.19237
      C    3   -0.23812      0.99958     2.23079    0.00776     3.23812
      C    4    0.32274      0.99967     1.65595    0.02164     2.67726
      O    5   -0.28192      0.99987     3.27597    0.00607     4.28192
      C    6   -0.27619      0.99957     2.26767    0.00895     3.27619
      C    7    0.09428      0.99961     1.89105    0.01506     2.90572
      N    8   -0.22770      0.99968     2.71767    0.01035     3.72770
      C    9   -0.03363      0.99958     2.02017    0.01389     3.03363
      C   10   -0.28599      0.99964     2.28116    0.00518     3.28599
      C   11   -0.08775      0.99958     2.07493    0.01324     3.08775
      N   12   -0.27727      0.99973     2.76521    0.01234     3.77727
      C   13   -0.17566      0.99965     2.16742    0.00859     3.17566
      C   14   -0.18181      0.99964     2.17391    0.00825     3.18181
      H   15    0.10710      0.00000     0.39201    0.00089     0.39290
      H   16    0.09317      0.00000     0.40617    0.00066     0.40683
      H   17    0.09445      0.00000     0.40457    0.00098     0.40555
      H   18    0.10067      0.00000     0.39821    0.00113     0.39933
      H   19    0.09165      0.00000     0.40746    0.00088     0.40835
      H   20    0.10902      0.00000     0.38988    0.00111     0.39098
      H   21    0.10826      0.00000     0.38938    0.00235     0.39174
      H   22    0.10325      0.00000     0.39500    0.00175     0.39675
      H   23    0.12350      0.00000     0.37468    0.00182     0.37650
      H   24    0.08163      0.00000     0.41651    0.00186     0.41837
      H   25    0.09358      0.00000     0.40428    0.00214     0.40642
      H   26    0.09763      0.00000     0.40140    0.00097     0.40237
      H   27    0.09761      0.00000     0.40164    0.00075     0.40239
      H   28    0.10054      0.00000     0.39862    0.00084     0.39946
      H   29    0.09670      0.00000     0.40156    0.00174     0.40330
      H   30    0.08429      0.00000     0.41372    0.00200     0.41571
      H   31    0.08118      0.00000     0.41714    0.00167     0.41882
      H   32    0.09284      0.00000     0.40595    0.00121     0.40716
      H   33    0.09495      0.00000     0.40377    0.00129     0.40505
      H   34    0.08022      0.00000     0.41869    0.00108     0.41978
      H   35    0.10737      0.00000     0.39138    0.00126     0.39263
      H   36    0.09023      0.00000     0.40892    0.00085     0.40977
 =======================================================================
   * Total *    0.00000     13.99512    40.82972    0.17515    55.00000

 Normal termination of Gaussian 16 at Thu Dec 10 11:30:19 2020.
