 Gaussian 16, Revision A.03,

 -----------------------------------------------------------
 # opt freq B3LYP/6-31G(d) empiricaldispersion=gd3bj scf=xqc
 -----------------------------------------------------------

 -------------------------------
 CID_130366445_JID_8963_neutraal
 -------------------------------
 Symbolic Z-matrix:
 Charge =  0 Multiplicity = 1

 SCF Done:  E(RB3LYP) =  -789.488872176     A.U. after   14 cycles
 SCF Done:  E(RB3LYP) =  -789.495380080     A.U. after   12 cycles
 SCF Done:  E(RB3LYP) =  -789.497131279     A.U. after   12 cycles
 SCF Done:  E(RB3LYP) =  -789.498057312     A.U. after   12 cycles
 SCF Done:  E(RB3LYP) =  -789.498403168     A.U. after   14 cycles
 SCF Done:  E(RB3LYP) =  -789.498387976     A.U. after   12 cycles
 SCF Done:  E(RB3LYP) =  -789.498913791     A.U. after   12 cycles
 SCF Done:  E(RB3LYP) =  -789.498962001     A.U. after   12 cycles
 SCF Done:  E(RB3LYP) =  -789.498981695     A.U. after   11 cycles
 SCF Done:  E(RB3LYP) =  -789.499013036     A.U. after   11 cycles
 SCF Done:  E(RB3LYP) =  -789.499021630     A.U. after   10 cycles
 SCF Done:  E(RB3LYP) =  -789.499021662     A.U. after    7 cycles
 SCF Done:  E(RB3LYP) =  -789.499021740     A.U. after    8 cycles
 Optimization completed.
    -- Stationary point found.
 Normal termination of Gaussian 16 at Fri Dec 11 23:09:37 2020.

 --------------------------------------------------------------------
 #N Geom=AllCheck Guess=TCheck SCRF=Check GenChk RB3LYP/6-31G(d) Freq
 --------------------------------------------------------------------

 Structure from the checkpoint file:  "JID_8963.chk"
 -------------------------------
 CID_130366445_JID_8963_neutraal
 -------------------------------
 Charge =  0 Multiplicity = 1

 SCF Done:  E(RB3LYP) =  -789.499021740     A.U. after    1 cycles

  Exact polarizability: 219.665 -10.413 152.332 -14.507 -10.281 125.482
 Approx polarizability: 279.202 -13.918 245.995 -24.854 -31.089 198.606

                      1                      2                      3
                      A                      A                      A
 Frequencies --     21.5012                49.3689                58.4904
 Red. masses --      4.7738                 4.2358                 3.5986
 Frc consts  --      0.0013                 0.0061                 0.0073
 IR Inten    --      0.1753                 0.3759                 0.1964

                      4                      5                      6
                      A                      A                      A
 Frequencies --     96.3616               110.6665               138.4378
 Red. masses --      3.2055                 2.3255                 3.4847
 Frc consts  --      0.0175                 0.0168                 0.0393
 IR Inten    --      3.6935                 1.1400                 1.5697

                      7                      8                      9
                      A                      A                      A
 Frequencies --    185.3052               198.7059               230.3367
 Red. masses --      3.2668                 4.1224                 3.3066
 Frc consts  --      0.0661                 0.0959                 0.1034
 IR Inten    --      2.9479                 3.7711                 2.3339

                     10                     11                     12
                      A                      A                      A
 Frequencies --    253.3680               258.8823               280.2820
 Red. masses --      3.0950                 1.1369                 1.8345
 Frc consts  --      0.1171                 0.0449                 0.0849
 IR Inten    --     13.2417                72.3053                 0.6070

                     13                     14                     15
                      A                      A                      A
 Frequencies --    296.1778               298.7542               315.3462
 Red. masses --      1.9235                 2.3246                 2.8345
 Frc consts  --      0.0994                 0.1222                 0.1661
 IR Inten    --      0.7806                 1.6385                 0.3392

                     16                     17                     18
                      A                      A                      A
 Frequencies --    357.4410               410.8157               418.3495
 Red. masses --      3.1735                 1.9499                 2.4184
 Frc consts  --      0.2389                 0.1939                 0.2494
 IR Inten    --      0.7241                 0.2136                 4.8324

                     19                     20                     21
                      A                      A                      A
 Frequencies --    428.7920               441.9023               497.6927
 Red. masses --      2.7340                 2.9985                 3.2592
 Frc consts  --      0.2962                 0.3450                 0.4756
 IR Inten    --      3.5136                 1.6337                 0.7808

                     22                     23                     24
                      A                      A                      A
 Frequencies --    509.2064               552.0756               558.6164
 Red. masses --      3.6427                 4.7394                 3.5328
 Frc consts  --      0.5565                 0.8511                 0.6495
 IR Inten    --      8.1332                 4.3557                 3.6153

                     25                     26                     27
                      A                      A                      A
 Frequencies --    591.3028               667.4898               693.3305
 Red. masses --      4.3642                 4.3790                 3.0677
 Frc consts  --      0.8990                 1.1495                 0.8689
 IR Inten    --      2.5833                11.6711                 0.8199

                     28                     29                     30
                      A                      A                      A
 Frequencies --    699.4782               724.4000               756.4980
 Red. masses --      2.3786                 4.0747                 2.7659
 Frc consts  --      0.6857                 1.2598                 0.9326
 IR Inten    --      0.3047                 1.4976                 4.1440

                     31                     32                     33
                      A                      A                      A
 Frequencies --    784.6972               807.9745               818.6746
 Red. masses --      3.0071                 2.8389                 1.5982
 Frc consts  --      1.0909                 1.0919                 0.6311
 IR Inten    --      6.3176                 1.5008                 1.0426

                     34                     35                     36
                      A                      A                      A
 Frequencies --    823.2075               839.2895               867.7486
 Red. masses --      3.0224                 1.4418                 1.9699
 Frc consts  --      1.2067                 0.5984                 0.8739
 IR Inten    --     12.3399                24.8162                 6.2757

                     37                     38                     39
                      A                      A                      A
 Frequencies --    881.5757               919.6797               925.6004
 Red. masses --      1.4379                 2.1781                 3.1875
 Frc consts  --      0.6584                 1.0854                 1.6090
 IR Inten    --     12.1446                 9.1866                22.2896

                     40                     41                     42
                      A                      A                      A
 Frequencies --    952.1789               960.0353               969.6959
 Red. masses --      1.2924                 2.3874                 2.3653
 Frc consts  --      0.6904                 1.2964                 1.3104
 IR Inten    --      1.0521                17.9416                17.6739

                     43                     44                     45
                      A                      A                      A
 Frequencies --    986.4576              1016.1263              1022.3720
 Red. masses --      2.8130                 2.2067                 3.2424
 Frc consts  --      1.6128                 1.3424                 1.9968
 IR Inten    --      7.5723                17.7858                67.5604

                     46                     47                     48
                      A                      A                      A
 Frequencies --   1026.1787              1059.2298              1079.7526
 Red. masses --      1.7939                 2.1855                 1.6615
 Frc consts  --      1.1130                 1.4447                 1.1413
 IR Inten    --      7.4592                15.7266                 4.4352

                     49                     50                     51
                      A                      A                      A
 Frequencies --   1088.0726              1095.2592              1120.9769
 Red. masses --      1.6314                 2.0905                 1.6111
 Frc consts  --      1.1380                 1.4776                 1.1928
 IR Inten    --      5.8437                20.1526                 2.8431

                     52                     53                     54
                      A                      A                      A
 Frequencies --   1127.8188              1129.8508              1153.0281
 Red. masses --      2.0673                 2.4312                 2.4687
 Frc consts  --      1.5493                 1.8286                 1.9337
 IR Inten    --     92.4672                22.5391                25.6059

                     55                     56                     57
                      A                      A                      A
 Frequencies --   1168.4632              1180.9864              1213.9717
 Red. masses --      1.8466                 1.7143                 1.5971
 Frc consts  --      1.4855                 1.4088                 1.3867
 IR Inten    --     65.0869                13.1022                 5.6780

                     58                     59                     60
                      A                      A                      A
 Frequencies --   1219.3081              1221.3907              1243.7308
 Red. masses --      1.3946                 1.1378                 1.2470
 Frc consts  --      1.2216                 1.0000                 1.1365
 IR Inten    --      2.8222                 7.5728                 4.0633

                     61                     62                     63
                      A                      A                      A
 Frequencies --   1254.4624              1263.4076              1288.2846
 Red. masses --      1.4332                 1.6934                 2.2658
 Frc consts  --      1.3288                 1.5926                 2.2156
 IR Inten    --     19.8447                15.8954                68.1437

                     64                     65                     66
                      A                      A                      A
 Frequencies --   1295.6119              1314.4279              1318.0549
 Red. masses --      1.3411                 1.9571                 1.4648
 Frc consts  --      1.3264                 1.9922                 1.4993
 IR Inten    --     27.1657                33.7094                 6.1320

                     67                     68                     69
                      A                      A                      A
 Frequencies --   1346.3376              1356.6111              1365.2293
 Red. masses --      1.3922                 1.6172                 1.4440
 Frc consts  --      1.4868                 1.7535                 1.5858
 IR Inten    --     10.1235                72.0719                 1.8715

                     70                     71                     72
                      A                      A                      A
 Frequencies --   1376.2519              1381.4935              1393.1052
 Red. masses --      1.6752                 2.2780                 1.3974
 Frc consts  --      1.8694                 2.5616                 1.5979
 IR Inten    --     13.8126                 2.1858                22.1034

                     73                     74                     75
                      A                      A                      A
 Frequencies --   1406.9769              1407.5206              1418.9366
 Red. masses --      1.5073                 1.5038                 1.3850
 Frc consts  --      1.7580                 1.7553                 1.6430
 IR Inten    --      0.3419                 0.6835                 9.6006

                     76                     77                     78
                      A                      A                      A
 Frequencies --   1430.2979              1439.4735              1452.8633
 Red. masses --      1.2949                 1.2988                 1.3493
 Frc consts  --      1.5608                 1.5856                 1.6780
 IR Inten    --     11.2557                45.3999                23.1776

                     79                     80                     81
                      A                      A                      A
 Frequencies --   1480.0285              1493.4230              1506.2290
 Red. masses --      3.4209                 1.1032                 1.0996
 Frc consts  --      4.4150                 1.4497                 1.4698
 IR Inten    --     68.4253                 2.7565                11.4479

                     82                     83                     84
                      A                      A                      A
 Frequencies --   1517.1534              1528.3380              1531.6411
 Red. masses --      1.1281                 1.0543                 1.0761
 Frc consts  --      1.5298                 1.4510                 1.4873
 IR Inten    --      0.8983                 3.9342                 1.8300

                     85                     86                     87
                      A                      A                      A
 Frequencies --   1538.4750              1544.7545              1545.0835
 Red. masses --      1.0736                 1.2429                 1.2794
 Frc consts  --      1.4972                 1.7475                 1.7995
 IR Inten    --      3.8297                19.6126                13.5814

                     88                     89                     90
                      A                      A                      A
 Frequencies --   1552.7944              1645.7050              1677.2635
 Red. masses --      1.6819                 7.5899                 6.9895
 Frc consts  --      2.3894                12.1114                11.5851
 IR Inten    --     31.5985                33.8400                39.0932

                     91                     92                     93
                      A                      A                      A
 Frequencies --   2890.7443              2900.8082              3013.9040
 Red. masses --      1.0736                 1.0725                 1.0833
 Frc consts  --      5.2857                 5.3170                 5.7977
 IR Inten    --     35.3212               140.9133                20.7935

                     94                     95                     96
                      A                      A                      A
 Frequencies --   3043.6765              3053.3658              3053.8123
 Red. masses --      1.0683                 1.0615                 1.0688
 Frc consts  --      5.8307                 5.8309                 5.8727
 IR Inten    --     38.3294                13.8234                61.6295

                     97                     98                     99
                      A                      A                      A
 Frequencies --   3056.2259              3060.8739              3078.5619
 Red. masses --      1.0624                 1.0354                 1.0854
 Frc consts  --      5.8466                 5.7152                 6.0608
 IR Inten    --     13.0378                15.4664                46.5565

                    100                    101                    102
                      A                      A                      A
 Frequencies --   3085.9947              3097.6449              3103.3213
 Red. masses --      1.0851                 1.0952                 1.1037
 Frc consts  --      6.0885                 6.1916                 6.2628
 IR Inten    --     64.8409                28.6471                23.4120

                    103                    104                    105
                      A                      A                      A
 Frequencies --   3105.7622              3109.7469              3128.5681
 Red. masses --      1.1047                 1.0867                 1.1021
 Frc consts  --      6.2779                 6.1918                 6.3555
 IR Inten    --     43.2820                17.5733                34.5119

                    106                    107                    108
                      A                      A                      A
 Frequencies --   3130.9405              3135.1869              3185.4838
 Red. masses --      1.1024                 1.1012                 1.0894
 Frc consts  --      6.3671                 6.3773                 6.5133
 IR Inten    --     27.7284                41.3365                15.7882

                    109                    110                    111
                      A                      A                      A
 Frequencies --   3220.6052              3236.6981              3743.0293
 Red. masses --      1.0916                 1.0900                 1.0654
 Frc consts  --      6.6708                 6.7277                 8.7941
 IR Inten    --      7.3714                 3.9138                 6.2656

 - Thermochemistry -
 -------------------
 Temperature   298.150 Kelvin.  Pressure   1.00000 Atm.
 Atom     1 has atomic number  6 and mass  12.00000

 Molecular mass:   247.15723 amu.
 Principal axes and moments of inertia in atomic units:
                           1         2         3
     Eigenvalues --  1705.517359434.070639885.25356
           X            0.99997  -0.00676  -0.00396
           Y            0.00675   0.99997  -0.00348
           Z            0.00398   0.00345   0.99999
 This molecule is an asymmetric top.
 Rotational symmetry number  1.
 Warning -- assumption of classical behavior for rotation
           may cause significant error
 Rotational temperatures (Kelvin)      0.05078     0.00918     0.00876
 Rotational constants (GHZ):           1.05818     0.19130     0.18257
 Zero-point vibrational energy     899040.9 (Joules/Mol)
                                  214.87593 (Kcal/Mol)
 Warning -- explicit consideration of  25 degrees of freedom as
           vibrations may cause significant error
 Vibrational temperatures:     30.94    71.03    84.15   138.64   159.22
          (Kelvin)            199.18   266.61   285.89   331.40   364.54
                              372.47   403.26   426.13   429.84   453.71
                              514.28   591.07   601.91   616.94   635.80
                              716.07   732.63   794.31   803.72   850.75
                              960.37   997.55  1006.39  1042.25  1088.43
                             1129.00  1162.50  1177.89  1184.41  1207.55
                             1248.50  1268.39  1323.21  1331.73  1369.97
                             1381.28  1395.18  1419.29  1461.98  1470.97
                             1476.44  1524.00  1553.52  1565.49  1575.83
                             1612.84  1622.68  1625.60  1658.95  1681.16
                             1699.18  1746.63  1754.31  1757.31  1789.45
                             1804.89  1817.76  1853.55  1864.10  1891.17
                             1896.39  1937.08  1951.86  1964.26  1980.12
                             1987.66  2004.37  2024.33  2025.11  2041.53
                             2057.88  2071.08  2090.35  2129.43  2148.70
                             2167.13  2182.85  2198.94  2203.69  2213.52
                             2222.56  2223.03  2234.12  2367.80  2413.21
                             4159.14  4173.62  4336.34  4379.17  4393.11
                             4393.75  4397.23  4403.91  4429.36  4440.06
                             4456.82  4464.99  4468.50  4474.23  4501.31
                             4504.73  4510.83  4583.20  4633.73  4656.89
                             5385.38

 Zero-point correction=                           0.342427 (Hartree/Particle)
 Thermal correction to Energy=                    0.358630
 Thermal correction to Enthalpy=                  0.359574
 Thermal correction to Gibbs Free Energy=         0.298222
 Sum of electronic and zero-point Energies=           -789.156595
 Sum of electronic and thermal Energies=              -789.140392
 Sum of electronic and thermal Enthalpies=            -789.139447
 Sum of electronic and thermal Free Energies=         -789.200799

                     E (Thermal)             CV                S
                      KCal/Mol        Cal/Mol-Kelvin    Cal/Mol-Kelvin
 Total                  225.044             64.767            129.126
 Electronic               0.000              0.000              0.000
 Translational            0.889              2.981             42.415
 Rotational               0.889              2.981             33.430
 Vibrational            223.266             58.805             53.281
 Vibration     1          0.593              1.985              6.490
 Vibration     2          0.595              1.978              4.843
 Vibration     3          0.596              1.974              4.507
 Vibration     4          0.603              1.952              3.527
 Vibration     5          0.606              1.941              3.257
 Vibration     6          0.614              1.915              2.825
 Vibration     7          0.631              1.860              2.274
 Vibration     8          0.637              1.842              2.145
 Vibration     9          0.652              1.795              1.876
 Vibration    10          0.665              1.757              1.707
 Vibration    11          0.668              1.748              1.669
 Vibration    12          0.680              1.710              1.532
 Vibration    13          0.690              1.681              1.438
 Vibration    14          0.692              1.676              1.424
 Vibration    15          0.703              1.644              1.334
 Vibration    16          0.733              1.560              1.133
 Vibration    17          0.775              1.447              0.924
 Vibration    18          0.781              1.430              0.898
 Vibration    19          0.790              1.408              0.863
 Vibration    20          0.802              1.379              0.821
 Vibration    21          0.853              1.255              0.664
 Vibration    22          0.864              1.230              0.636
 Vibration    23          0.907              1.135              0.540
 Vibration    24          0.914              1.121              0.527
 Vibration    25          0.949              1.050              0.465

                           ! Non-Optimized Parameters !
 Normal termination of Gaussian 16 at Fri Dec 11 23:26:42 2020.

 ----------------------------------------------------------------------
 # B3LYP/6-311++G(d,p) empiricaldispersion=gd3bj scf=xqc pop=npa geom=c
 heck
 ----------------------------------------------------------------------

 ---------------------------------------
 CID_130366445_JID_8963_Energie_neutraal
 ---------------------------------------
 Structure from the checkpoint file:  "JID_8963.chk"
 Charge =  0 Multiplicity = 1

 SCF Done:  E(RB3LYP) =  -789.718320551     A.U. after   15 cycles
 Normal termination of Gaussian 16 at Fri Dec 11 23:33:38 2020.

 ----------------------------------------------------------------------
 # B3LYP/6-311++G(d,p) empiricaldispersion=gd3bj scf=xqc pop=npa geom=c
 heck
 ----------------------------------------------------------------------

 -------------------------------------
 CID_130366445_JID_8963_Energie_kation
 -------------------------------------
 Structure from the checkpoint file:  "JID_8963.chk"
 Charge =  1 Multiplicity = 2

 SCF Done:  E(UB3LYP) =  -789.447266738     A.U. after   23 cycles
 Normal termination of Gaussian 16 at Fri Dec 11 23:48:00 2020.
 Gaussian 16:  ES64L-G16RevA.03 25-Dec-2016

 ----------------------------------------------------------------------
 # B3LYP/6-311++G(d,p) empiricaldispersion=gd3bj scf=xqc pop=npa geom=c
 heck
 ----------------------------------------------------------------------

 ------------------------------------
 CID_130366445_JID_8963_Energie_anion
 ------------------------------------
 Structure from the checkpoint file:  "JID_8963.chk"
 Charge = -1 Multiplicity = 2

                         Standard orientation:
 ---------------------------------------------------------------------
 Center     Atomic      Atomic             Coordinates (Angstroms)
 Number     Number       Type             X           Y           Z
 ---------------------------------------------------------------------
      1          6           0        0.730960   -2.543097    0.021138
      2          6           0        0.608050   -1.214583   -0.743550
      3          6           0       -0.740605   -0.516523   -0.567315
      4          6           0       -1.807152   -1.118294    0.114389
      5          6           0       -3.006396   -0.420425    0.204877
      6          6           0       -3.182635    0.844607   -0.353273
      7          6           0       -4.612423    1.268225   -0.108469
      8          6           0       -5.069854    0.200334    0.914853
      9          8           0       -4.123083   -0.895700    0.835915
     10          6           0       -2.124742    1.440902   -1.028683
     11          6           0       -0.908997    0.759629   -1.128387
     12          7           0        1.692946   -0.257219   -0.473788
     13          6           0        2.990415   -0.646402   -1.011199
     14          6           0        3.956962    0.541290   -0.975200
     15          6           0        4.095698    1.103423    0.446771
     16          6           0        2.705930    1.396415    1.028792
     17          6           0        1.789276    0.175456    0.917493
     18          8           0        4.847107    0.224877    1.289390
     19          1           0        0.579092   -2.410497    1.097193
     20          1           0        1.723939   -2.977440   -0.130955
     21          1           0       -0.004061   -3.270724   -0.336704
     22          1           0        0.702947   -1.451406   -1.813214
     23          1           0       -1.721240   -2.096608    0.570758
     24          1           0       -4.708347    2.282023    0.293578
     25          1           0       -5.204338    1.223811   -1.032132
     26          1           0       -6.062949   -0.207953    0.716475
     27          1           0       -5.044137    0.592766    1.938772
     28          1           0       -2.236372    2.426267   -1.474152
     29          1           0       -0.062192    1.218193   -1.626999
     30          1           0        2.852628   -0.987817   -2.043280
     31          1           0        3.437417   -1.499601   -0.458302
     32          1           0        3.569881    1.326135   -1.636463
     33          1           0        4.943083    0.237612   -1.343591
     34          1           0        4.688384    2.023632    0.422193
     35          1           0        2.807351    1.699337    2.076868
     36          1           0        2.248849    2.225497    0.475166
     37          1           0        0.786130    0.423584    1.274964
     38          1           0        2.167478   -0.634020    1.576289
     39          1           0        4.346707   -0.601413    1.374197
 ---------------------------------------------------------------------

 SCF Done:  E(UB3LYP) =  -789.705825816     A.U. after   33 cycles
 SCF Done:  E(UB3LYP) =  -789.705825816     a.u. after    1 cycles

 The electronic state is 2-A.
 Alpha  occ. eigenvalues --  -19.05629 -19.03218 -14.21117 -10.13628 -10.13209
 Alpha  occ. eigenvalues --  -10.13049 -10.11215 -10.10218 -10.10169 -10.09080
 Alpha  occ. eigenvalues --  -10.08500 -10.08107 -10.08039 -10.07767 -10.07627
 Alpha  occ. eigenvalues --  -10.07468 -10.06783 -10.06690  -0.97692  -0.93515
 Alpha  occ. eigenvalues --   -0.84108  -0.76131  -0.71301  -0.69490  -0.66861
 Alpha  occ. eigenvalues --   -0.66026  -0.64745  -0.62162  -0.57424  -0.54528
 Alpha  occ. eigenvalues --   -0.54090  -0.51741  -0.50441  -0.48131  -0.46131
 Alpha  occ. eigenvalues --   -0.42202  -0.41566  -0.40331  -0.39312  -0.38894
 Alpha  occ. eigenvalues --   -0.38132  -0.37135  -0.36700  -0.34924  -0.34496
 Alpha  occ. eigenvalues --   -0.33990  -0.32430  -0.31776  -0.30857  -0.30599
 Alpha  occ. eigenvalues --   -0.29803  -0.28914  -0.28599  -0.27392  -0.27321
 Alpha  occ. eigenvalues --   -0.26781  -0.26223  -0.26077  -0.25562  -0.24495
 Alpha  occ. eigenvalues --   -0.23573  -0.22425  -0.21727  -0.18478  -0.15586
 Alpha  occ. eigenvalues --   -0.12893  -0.11807   0.04065
 Alpha virt. eigenvalues --    0.05505   0.06485   0.06786   0.07478   0.07582
 Alpha virt. eigenvalues --    0.08112   0.08801   0.08915   0.09257   0.09621
 Alpha virt. eigenvalues --    0.09657   0.10319   0.10548   0.10913   0.11459

  Beta  occ. eigenvalues --  -19.05627 -19.03199 -14.21113 -10.13603 -10.13205
  Beta  occ. eigenvalues --  -10.13049 -10.11206 -10.10191 -10.10153 -10.09052
  Beta  occ. eigenvalues --  -10.08479 -10.08093 -10.08025 -10.07761 -10.07616
  Beta  occ. eigenvalues --  -10.07450 -10.06784 -10.06665  -0.97685  -0.93475
  Beta  occ. eigenvalues --   -0.84089  -0.76100  -0.71264  -0.69453  -0.66829
  Beta  occ. eigenvalues --   -0.65990  -0.64717  -0.62117  -0.57379  -0.54487
  Beta  occ. eigenvalues --   -0.54045  -0.51693  -0.50406  -0.48092  -0.46079
  Beta  occ. eigenvalues --   -0.42166  -0.41527  -0.40299  -0.39271  -0.38846
  Beta  occ. eigenvalues --   -0.38107  -0.37103  -0.36675  -0.34890  -0.34465
  Beta  occ. eigenvalues --   -0.33965  -0.32397  -0.31746  -0.30824  -0.30557
  Beta  occ. eigenvalues --   -0.29771  -0.28871  -0.28557  -0.27367  -0.27291
  Beta  occ. eigenvalues --   -0.26746  -0.26194  -0.26048  -0.25536  -0.24464
  Beta  occ. eigenvalues --   -0.23544  -0.22399  -0.21689  -0.18456  -0.15480
  Beta  occ. eigenvalues --   -0.12859  -0.11754
  Beta virt. eigenvalues --    0.06003   0.06515   0.06816   0.07140   0.07819
  Beta virt. eigenvalues --    0.07982   0.08441   0.09071   0.09283   0.09474
  Beta virt. eigenvalues --    0.09849   0.09924   0.10522   0.10661   0.11308

 Mulliken charges and spin densities:
               1          2
     1  C    0.103492  -0.731025
     2  C    0.075245  -0.175250
     3  C    0.455096   0.203622
     4  C   -0.698451  -0.024728
     5  C    0.055319  -1.237231
     6  C   -0.123627   1.542500
     7  C    1.968489  -2.582411
     8  C    0.281632  -0.381724
     9  O   -0.150213   0.054161
    10  C   -0.887416   0.575668
    11  C   -0.993391   0.754592
    12  N    0.252260   0.053737
    13  C   -0.008297  -0.102102
    14  C    0.630713  -1.191279
    15  C   -0.375785   0.366660
    16  C    0.238651  -0.892614
    17  C   -0.313692  -0.041545
    18  O   -0.170658  -0.005104
    19  H    0.041588   0.110325
    20  H   -0.482355   0.648792
    21  H   -0.181318   0.334078
    22  H   -0.154901   0.347462
    23  H    0.061653   0.125667
    24  H   -0.175287   0.331294
    25  H   -0.172787   0.333254
    26  H   -0.212840   0.383049
    27  H   -0.119258   0.280677
    28  H   -0.282750   0.450958
    29  H   -0.002341   0.191689
    30  H   -0.322740   0.482541
    31  H    0.168234  -0.055285
    32  H    0.063474   0.059657
    33  H   -0.120046   0.319953
    34  H    0.081695   0.132487
    35  H    0.058068   0.134522
    36  H    0.111831   0.014396
    37  H    0.185615  -0.033992
    38  H   -0.021249   0.128606
    39  H    0.136349   0.093943
 Sum of Mulliken charges =  -1.00000   1.00000

 Dipole moment (field-independent basis, Debye):
    X=              1.6198    Y=              1.6772    Z=              1.4759  Tot=              2.7595
 Quadrupole moment (field-independent basis, Debye-Ang):
   XX=           -223.4277   YY=           -149.5649   ZZ=           -145.9818
   XY=              9.4836   XZ=             -2.3384   YZ=             -2.8018

 Summary of Natural Population Analysis:

                                       Natural Population
                Natural  -----------------------------------------------
    Atom  No    Charge         Core      Valence    Rydberg      Total
 -----------------------------------------------------------------------
      C    1   -0.29989      0.99965     2.29403    0.00621     3.29989
      C    2   -0.00773      0.99955     1.99461    0.01357     3.00773
      C    3   -0.00793      0.99951     1.99703    0.01140     3.00793
      C    4   -0.12670      0.99946     2.11931    0.00793     3.12670
      C    5    0.16396      0.99933     1.82316    0.01355     2.83604
      C    6   -0.04703      0.99946     2.03726    0.01031     3.04703
      C    7   -0.20822      0.99962     2.20083    0.00777     3.20822
      C    8   -0.00537      0.99960     1.99388    0.01190     3.00537
      O    9   -0.27680      0.99987     3.26877    0.00815     4.27680
      C   10   -0.08857      0.99952     2.08022    0.00882     3.08857
      C   11   -0.11044      0.99951     2.10071    0.01022     3.11044
      N   12   -0.28569      0.99970     2.77230    0.01370     3.78569
      C   13   -0.08646      0.99960     2.07395    0.01290     3.08646
      C   14   -0.20481      0.99960     2.19577    0.00944     3.20481
      C   15    0.06468      0.99955     1.92166    0.01410     2.93532
      C   16   -0.20383      0.99960     2.19641    0.00782     3.20383
      C   17   -0.08975      0.99960     2.07994    0.01021     3.08975
      O   18   -0.37524      0.99990     3.36852    0.00682     4.37524
      H   19    0.09872      0.00000     0.40027    0.00102     0.40128
      H   20    0.10425      0.00000     0.39474    0.00102     0.39575
      H   21    0.10384      0.00000     0.39508    0.00109     0.39616
      H   22    0.10251      0.00000     0.39543    0.00206     0.39749
      H   23    0.10741      0.00000     0.39091    0.00168     0.39259
      H   24    0.10691      0.00000     0.39184    0.00125     0.39309
      H   25    0.10589      0.00000     0.39196    0.00215     0.39411
      H   26    0.09173      0.00000     0.40655    0.00172     0.40827
      H   27    0.08303      0.00000     0.41556    0.00141     0.41697
      H   28    0.10011      0.00000     0.39894    0.00096     0.39989
      H   29    0.10697      0.00000     0.39106    0.00197     0.39303
      H   30    0.10239      0.00000     0.39587    0.00174     0.39761
      H   31    0.07616      0.00000     0.42172    0.00212     0.42384
      H   32    0.10095      0.00000     0.39771    0.00134     0.39905
      H   33    0.10322      0.00000     0.39578    0.00100     0.39678
      H   34    0.08761      0.00000     0.41127    0.00112     0.41239
      H   35    0.10155      0.00000     0.39739    0.00106     0.39845
      H   36    0.10208      0.00000     0.39651    0.00142     0.39792
      H   37    0.10750      0.00000     0.39118    0.00132     0.39250
      H   38    0.07579      0.00000     0.42233    0.00189     0.42421
      H   39    0.22722      0.00000     0.26944    0.00333     0.27278
 =======================================================================
   * Total *   -0.00000     17.99264    48.78987    0.21749    67.00000

 Normal termination of Gaussian 16 at Sat Dec 12 00:08:51 2020.
