 Gaussian 16, Revision A.03,

 -----------------------------------------------------------
 # opt freq B3LYP/6-31G(d) empiricaldispersion=gd3bj scf=xqc
 -----------------------------------------------------------

 ------------------------------
 CID_149038663_JID_491_neutraal
 ------------------------------
 Symbolic Z-matrix:
 Charge =  0 Multiplicity = 1

 SCF Done:  E(RB3LYP) =  -442.643417578     A.U. after   14 cycles
 SCF Done:  E(RB3LYP) =  -442.649766432     A.U. after   12 cycles
 SCF Done:  E(RB3LYP) =  -442.649842215     A.U. after   12 cycles
 SCF Done:  E(RB3LYP) =  -442.650061792     A.U. after   12 cycles
 SCF Done:  E(RB3LYP) =  -442.650169040     A.U. after   10 cycles
 SCF Done:  E(RB3LYP) =  -442.650231466     A.U. after   10 cycles
 SCF Done:  E(RB3LYP) =  -442.650301938     A.U. after   11 cycles
 SCF Done:  E(RB3LYP) =  -442.650319199     A.U. after   11 cycles
 SCF Done:  E(RB3LYP) =  -442.650361786     A.U. after    9 cycles
 SCF Done:  E(RB3LYP) =  -442.650507253     A.U. after   12 cycles
 SCF Done:  E(RB3LYP) =  -442.651231617     A.U. after   10 cycles
 SCF Done:  E(RB3LYP) =  -442.651230694     A.U. after   10 cycles
 SCF Done:  E(RB3LYP) =  -442.651235229     A.U. after   10 cycles
 SCF Done:  E(RB3LYP) =  -442.651235329     A.U. after    7 cycles
 SCF Done:  E(RB3LYP) =  -442.651235342     A.U. after    6 cycles
 Optimization completed.
    -- Stationary point found.
 Normal termination of Gaussian 16 at Tue Dec  8 10:56:40 2020.

 --------------------------------------------------------------------
 #N Geom=AllCheck Guess=TCheck SCRF=Check GenChk RB3LYP/6-31G(d) Freq
 --------------------------------------------------------------------

 Structure from the checkpoint file:  "JID_491.chk"
 ------------------------------
 CID_149038663_JID_491_neutraal
 ------------------------------
 Charge =  0 Multiplicity = 1

 SCF Done:  E(RB3LYP) =  -442.651235342     A.U. after    1 cycles

  Exact polarizability:  99.117  -8.314  96.908  -4.125   2.461  71.944
 Approx polarizability: 131.084 -21.614 144.056  -9.886  10.693 107.001

                      1                      2                      3
                      A                      A                      A
 Frequencies --     53.4633                62.2025                69.8798
 Red. masses --      2.9537                 3.1688                 4.3314
 Frc consts  --      0.0050                 0.0072                 0.0125
 IR Inten    --      0.6821                 0.4104                 0.7186

                      4                      5                      6
                      A                      A                      A
 Frequencies --     94.0580               130.0598               207.8100
 Red. masses --      2.7637                 2.5634                 2.4952
 Frc consts  --      0.0144                 0.0255                 0.0635
 IR Inten    --      0.1303                 1.0168                 0.6668

                      7                      8                      9
                      A                      A                      A
 Frequencies --    249.2957               339.5449               382.3329
 Red. masses --      2.4051                 3.3997                 2.9741
 Frc consts  --      0.0881                 0.2309                 0.2561
 IR Inten    --      0.4454                 2.1592                 0.9093

                     10                     11                     12
                      A                      A                      A
 Frequencies --    411.5095               470.4788               538.0911
 Red. masses --      2.5754                 3.2367                 2.2871
 Frc consts  --      0.2570                 0.4221                 0.3902
 IR Inten    --      0.6576                 7.8734                13.7765

                     13                     14                     15
                      A                      A                      A
 Frequencies --    591.2031               629.1911               680.9738
 Red. masses --      1.4162                 1.6337                 1.7014
 Frc consts  --      0.2916                 0.3810                 0.4649
 IR Inten    --     54.2167                17.3882                32.7576

                     16                     17                     18
                      A                      A                      A
 Frequencies --    730.4368               796.7084               811.4400
 Red. masses --      2.5738                 1.1928                 1.9948
 Frc consts  --      0.8091                 0.4461                 0.7739
 IR Inten    --     25.2631                 1.6907                11.1421

                     19                     20                     21
                      A                      A                      A
 Frequencies --    887.8332               916.9038               933.0524
 Red. masses --      3.1227                 2.0281                 2.4821
 Frc consts  --      1.4502                 1.0046                 1.2731
 IR Inten    --      0.7227                 0.9841                 0.5239

                     22                     23                     24
                      A                      A                      A
 Frequencies --    937.1700               938.4277               954.9737
 Red. masses --      1.3353                 1.5203                 1.3912
 Frc consts  --      0.6910                 0.7888                 0.7475
 IR Inten    --     45.9099                 2.7524                 3.0755

                     25                     26                     27
                      A                      A                      A
 Frequencies --    962.7421              1002.1621              1041.1005
 Red. masses --      2.2120                 2.7250                 1.1111
 Frc consts  --      1.2079                 1.6125                 0.7096
 IR Inten    --      4.2210                 2.7791                19.3098

                     28                     29                     30
                      A                      A                      A
 Frequencies --   1052.7658              1104.9277              1140.7954
 Red. masses --      2.0273                 1.9184                 1.9758
 Frc consts  --      1.3238                 1.3799                 1.5150
 IR Inten    --      4.5080                 5.1338                14.7799

                     31                     32                     33
                      A                      A                      A
 Frequencies --   1206.2530              1213.2162              1226.4247
 Red. masses --      1.5421                 1.9509                 1.4746
 Frc consts  --      1.3220                 1.6918                 1.3068
 IR Inten    --      6.7749                 9.1291                44.0136

                     34                     35                     36
                      A                      A                      A
 Frequencies --   1257.5758              1262.9542              1263.4987
 Red. masses --      1.4780                 1.1422                 1.3402
 Frc consts  --      1.3772                 1.0734                 1.2606
 IR Inten    --      1.1100                 0.3942                 0.4764

                     37                     38                     39
                      A                      A                      A
 Frequencies --   1292.3359              1298.5603              1310.4973
 Red. masses --      1.5094                 1.4383                 1.3456
 Frc consts  --      1.4853                 1.4290                 1.3615
 IR Inten    --      9.6641                 0.5358                 1.2278

                     40                     41                     42
                      A                      A                      A
 Frequencies --   1336.6190              1380.7680              1394.7023
 Red. masses --      1.2673                 1.2807                 3.2368
 Frc consts  --      1.3339                 1.4386                 3.7097
 IR Inten    --      1.7607                25.0941               172.7665

                     43                     44                     45
                      A                      A                      A
 Frequencies --   1472.0187              1501.0048              1506.9374
 Red. masses --      1.1872                 1.3134                 1.0922
 Frc consts  --      1.5156                 1.7434                 1.4613
 IR Inten    --      1.0875                18.2785                 0.9079

                     46                     47                     48
                      A                      A                      A
 Frequencies --   1513.6830              1518.4960              1544.2022
 Red. masses --      1.2411                 1.1290                 1.1900
 Frc consts  --      1.6754                 1.5338                 1.6718
 IR Inten    --     47.9029                 6.8103                17.8419

                     49                     50                     51
                      A                      A                      A
 Frequencies --   1728.0328              1790.4440              3062.0307
 Red. masses --      4.5407                 7.9185                 1.0615
 Frc consts  --      7.9887                14.9559                 5.8637
 IR Inten    --     38.7885               410.3398                34.2800

                     52                     53                     54
                      A                      A                      A
 Frequencies --   3065.7307              3072.7188              3080.0562
 Red. masses --      1.0591                 1.0633                 1.0616
 Frc consts  --      5.8647                 5.9151                 5.9338
 IR Inten    --     10.5178                16.0830                33.3768

                     55                     56                     57
                      A                      A                      A
 Frequencies --   3112.8449              3116.7806              3130.8676
 Red. masses --      1.1031                 1.1013                 1.1052
 Frc consts  --      6.2975                 6.3036                 6.3828
 IR Inten    --     17.1389                 8.9441                23.8789

                     58                     59                     60
                      A                      A                      A
 Frequencies --   3134.3189              3147.3106              3153.9719
 Red. masses --      1.0965                 1.0980                 1.0597
 Frc consts  --      6.3469                 6.4083                 6.2110
 IR Inten    --      8.2394                55.9098                15.6729

                     61                     62                     63
                      A                      A                      A
 Frequencies --   3164.4104              3237.0080              3568.0140
 Red. masses --      1.0921                 1.1151                 1.0751
 Frc consts  --      6.4432                 6.8843                 8.0642
 IR Inten    --      6.6057                18.1807                11.0280

 - Thermochemistry -
 -------------------
 Temperature   298.150 Kelvin.  Pressure   1.00000 Atm.
 Atom     1 has atomic number  6 and mass  12.00000

 Molecular mass:   139.09971 amu.
 Principal axes and moments of inertia in atomic units:
                           1         2         3
     Eigenvalues --  1004.645661922.964162623.13971
           X            0.99945   0.03295   0.00452
           Y           -0.03291   0.99943  -0.00744
           Z           -0.00476   0.00729   0.99996
 This molecule is an asymmetric top.
 Rotational symmetry number  1.
 Warning -- assumption of classical behavior for rotation
           may cause significant error
 Rotational temperatures (Kelvin)      0.08621     0.04504     0.03302
 Rotational constants (GHZ):           1.79640     0.93852     0.68801
 Zero-point vibrational energy     527468.3 (Joules/Mol)
                                  126.06796 (Kcal/Mol)
 Warning -- explicit consideration of  13 degrees of freedom as
           vibrations may cause significant error
 Vibrational temperatures:     76.92    89.50   100.54   135.33   187.13
          (Kelvin)            298.99   358.68   488.53   550.09   592.07
                              676.91   774.19   850.61   905.27   979.77
                             1050.94  1146.29  1167.48  1277.39  1319.22
                             1342.45  1348.38  1350.19  1373.99  1385.17
                             1441.89  1497.91  1514.70  1589.74  1641.35
                             1735.53  1745.55  1764.55  1809.37  1817.11
                             1817.89  1859.38  1868.34  1885.51  1923.10
                             1986.62  2006.67  2117.91  2159.61  2168.15
                             2177.85  2184.78  2221.76  2486.25  2576.05
                             4405.58  4410.90  4420.96  4431.51  4478.69
                             4484.35  4504.62  4509.59  4528.28  4537.86
                             4552.88  4657.33  5133.58

 Zero-point correction=                           0.200902 (Hartree/Particle)
 Thermal correction to Energy=                    0.211410
 Thermal correction to Enthalpy=                  0.212354
 Thermal correction to Gibbs Free Energy=         0.163770
 Sum of electronic and zero-point Energies=           -442.450333
 Sum of electronic and thermal Energies=              -442.439825
 Sum of electronic and thermal Enthalpies=            -442.438881
 Sum of electronic and thermal Free Energies=         -442.487465

                     E (Thermal)             CV                S
                      KCal/Mol        Cal/Mol-Kelvin    Cal/Mol-Kelvin
 Total                  132.662             38.464            102.255
 Electronic               0.000              0.000              0.000
 Translational            0.889              2.981             40.702
 Rotational               0.889              2.981             30.006
 Vibrational            130.884             32.502             31.547
 Vibration     1          0.596              1.976              4.685
 Vibration     2          0.597              1.972              4.386
 Vibration     3          0.598              1.968              4.157
 Vibration     4          0.603              1.953              3.574
 Vibration     5          0.612              1.923              2.945
 Vibration     6          0.641              1.829              2.063
 Vibration     7          0.662              1.764              1.736
 Vibration     8          0.719              1.596              1.214
 Vibration     9          0.752              1.508              1.030
 Vibration    10          0.775              1.445              0.921
 Vibration    11          0.828              1.316              0.736
 Vibration    12          0.893              1.166              0.569
 Vibration    13          0.949              1.051              0.465

 Optimization completed.
    -- Stationary point found.
 Normal termination of Gaussian 16 at Tue Dec  8 11:00:31 2020.

 ----------------------------------------------------------------------
 # B3LYP/6-311++G(d,p) empiricaldispersion=gd3bj scf=xqc pop=npa geom=c
 heck
 ----------------------------------------------------------------------

 --------------------------------------
 CID_149038663_JID_491_Energie_neutraal
 --------------------------------------
 Structure from the checkpoint file:  "JID_491.chk"
 Charge =  0 Multiplicity = 1

 SCF Done:  E(RB3LYP) =  -442.782776283     A.U. after   14 cycles
 Normal termination of Gaussian 16 at Tue Dec  8 11:03:28 2020.

 ----------------------------------------------------------------------
 # B3LYP/6-311++G(d,p) empiricaldispersion=gd3bj scf=xqc pop=npa geom=c
 heck
 ----------------------------------------------------------------------

 ------------------------------------
 CID_149038663_JID_491_Energie_kation
 ------------------------------------
 Structure from the checkpoint file:  "JID_491.chk"
 Charge =  1 Multiplicity = 2

 SCF Done:  E(UB3LYP) =  -442.455629387     A.U. after   29 cycles
 Normal termination of Gaussian 16 at Tue Dec  8 11:09:17 2020.
 Gaussian 16:  ES64L-G16RevA.03 25-Dec-2016

 ----------------------------------------------------------------------
 # B3LYP/6-311++G(d,p) empiricaldispersion=gd3bj scf=xqc pop=npa geom=c
 heck
 ----------------------------------------------------------------------

 -----------------------------------
 CID_149038663_JID_491_Energie_anion
 -----------------------------------
 Structure from the checkpoint file:  "JID_491.chk"
 Charge = -1 Multiplicity = 2

                         Standard orientation:
 ---------------------------------------------------------------------
 Center     Atomic      Atomic             Coordinates (Angstroms)
 Number     Number       Type             X           Y           Z
 ---------------------------------------------------------------------
      1          6           0        1.432521    2.473077    0.077773
      2          6           0        1.965104    1.284502   -0.205251
      3          6           0        1.938511    0.084057    0.705327
      4          6           0        1.331195   -1.135813    0.004822
      5          8           0        2.039277   -2.005796   -0.485935
      6          7           0       -0.036028   -1.209480   -0.063578
      7          6           0       -1.018895   -0.200004    0.247558
      8          6           0       -1.693187    0.615301   -0.892132
      9          6           0       -3.019363    0.529604   -0.091108
     10          6           0       -2.426249   -0.676990    0.684673
     11          1           0        0.927221    2.663171    1.022787
     12          1           0        1.491096    3.305247   -0.618022
     13          1           0        2.466191    1.130165   -1.160528
     14          1           0        2.960389   -0.215993    0.958938
     15          1           0        1.412274    0.321986    1.636182
     16          1           0       -0.354127   -2.000296   -0.613671
     17          1           0       -0.601992    0.478626    0.992439
     18          1           0       -1.273179    1.597866   -1.121222
     19          1           0       -1.739635    0.023182   -1.812858
     20          1           0       -3.940779    0.361327   -0.654220
     21          1           0       -3.160009    1.399598    0.558186
     22          1           0       -2.682354   -1.625619    0.198018
     23          1           0       -2.624942   -0.768938    1.756530
 ---------------------------------------------------------------------

 SCF Done:  E(UB3LYP) =  -442.767584587     A.U. after   33 cycles
 SCF Done:  E(UB3LYP) =  -442.767584587     a.u. after    1 cycles

 The electronic state is 2-A.
 Alpha  occ. eigenvalues --  -18.99066 -14.23672 -10.17663 -10.10858 -10.08663
 Alpha  occ. eigenvalues --  -10.08637 -10.06914 -10.06450 -10.06139 -10.06052
 Alpha  occ. eigenvalues --   -0.94170  -0.82792  -0.73310  -0.70510  -0.61716
 Alpha  occ. eigenvalues --   -0.56567  -0.55810  -0.49501  -0.46377  -0.46193
 Alpha  occ. eigenvalues --   -0.41197  -0.39667  -0.37378  -0.35601  -0.34294
 Alpha  occ. eigenvalues --   -0.32328  -0.30788  -0.30510  -0.28630  -0.28441
 Alpha  occ. eigenvalues --   -0.26664  -0.25018  -0.23588  -0.21804  -0.21502
 Alpha  occ. eigenvalues --   -0.17921  -0.15468  -0.15061   0.04810
 Alpha virt. eigenvalues --    0.07184   0.07510   0.07848   0.08822   0.09712
 Alpha virt. eigenvalues --    0.09873   0.10744   0.11101   0.11527   0.11854
 Alpha virt. eigenvalues --    0.12639   0.13382   0.13808   0.14458   0.15253

  Beta  occ. eigenvalues --  -18.99065 -14.23662 -10.17659 -10.10845 -10.08653
  Beta  occ. eigenvalues --  -10.08626 -10.06869 -10.06414 -10.06117 -10.06013
  Beta  occ. eigenvalues --   -0.94165  -0.82771  -0.73277  -0.70485  -0.61672
  Beta  occ. eigenvalues --   -0.56509  -0.55732  -0.49455  -0.46281  -0.46119
  Beta  occ. eigenvalues --   -0.41157  -0.39609  -0.37317  -0.35566  -0.34260
  Beta  occ. eigenvalues --   -0.32303  -0.30755  -0.30476  -0.28589  -0.28405
  Beta  occ. eigenvalues --   -0.26630  -0.24988  -0.23525  -0.21750  -0.21449
  Beta  occ. eigenvalues --   -0.17889  -0.15447  -0.15046
  Beta virt. eigenvalues --    0.07378   0.07715   0.08288   0.08691   0.09205
  Beta virt. eigenvalues --    0.10087   0.10452   0.11192   0.11753   0.11986
  Beta virt. eigenvalues --    0.12203   0.12974   0.13928   0.14361   0.14739

 Mulliken charges and spin densities:
               1          2
     1  C    1.361979  -1.863853
     2  C   -1.464824   1.755853
     3  C    0.847155  -1.231114
     4  C    0.141033  -0.260334
     5  O   -0.361815   0.008320
     6  N   -0.001230  -0.024592
     7  C   -1.403805   1.359882
     8  C    0.513741  -0.915454
     9  C    0.707179  -0.960396
    10  C    0.859975  -1.170580
    11  H   -0.651939   0.797632
    12  H   -0.294229   0.418932
    13  H   -0.094394   0.273111
    14  H    0.197254   0.007643
    15  H   -0.545223   0.720264
    16  H    0.254066   0.018200
    17  H    0.678548  -0.533436
    18  H    0.089062   0.058274
    19  H   -0.250410   0.389969
    20  H   -0.290886   0.440037
    21  H   -0.487889   0.640311
    22  H   -0.224220   0.334189
    23  H   -0.579127   0.737143
 Sum of Mulliken charges =  -1.00000   1.00000

 Dipole moment (field-independent basis, Debye):
    X=              3.7891    Y=             -2.5780    Z=             -2.0224  Tot=              5.0093
 Quadrupole moment (field-independent basis, Debye-Ang):
   XX=           -119.4777   YY=           -109.5945   ZZ=            -96.7720
   XY=              4.6545   XZ=              4.8361   YZ=             -4.4845

 Summary of Natural Population Analysis:

                                       Natural Population
                Natural  -----------------------------------------------
    Atom  No    Charge         Core      Valence    Rydberg      Total
 -----------------------------------------------------------------------
      C    1   -0.18148      0.99955     2.17360    0.00833     3.18148
      C    2   -0.08968      0.99956     2.07970    0.01041     3.08968
      C    3   -0.25131      0.99957     2.24210    0.00964     3.25131
      C    4    0.34965      0.99968     1.62828    0.02239     2.65035
      O    5   -0.32906      0.99988     3.32339    0.00579     4.32906
      N    6   -0.31233      0.99964     2.80329    0.00940     3.81233
      C    7   -0.01915      0.99957     2.00510    0.01448     3.01915
      C    8   -0.18788      0.99963     2.17988    0.00838     3.18788
      C    9   -0.19119      0.99965     2.18334    0.00820     3.19119
      C   10   -0.18498      0.99964     2.17619    0.00915     3.18498
      H   11    0.09499      0.00000     0.40265    0.00236     0.40501
      H   12    0.09654      0.00000     0.40218    0.00128     0.40346
      H   13    0.09452      0.00000     0.40442    0.00107     0.40548
      H   14    0.11437      0.00000     0.38452    0.00110     0.38563
      H   15    0.10936      0.00000     0.38911    0.00153     0.39064
      H   16    0.19163      0.00000     0.30570    0.00268     0.30837
      H   17    0.10291      0.00000     0.39358    0.00350     0.39709
      H   18    0.10342      0.00000     0.39519    0.00139     0.39658
      H   19    0.09446      0.00000     0.40400    0.00154     0.40554
      H   20    0.09793      0.00000     0.40027    0.00180     0.40207
      H   21    0.10076      0.00000     0.39645    0.00279     0.39924
      H   22    0.09439      0.00000     0.40384    0.00176     0.40561
      H   23    0.10212      0.00000     0.39573    0.00215     0.39788
 =======================================================================
   * Total *    0.00000      9.99636    27.87252    0.13113    38.00000

 Normal termination of Gaussian 16 at Tue Dec  8 11:16:16 2020.
