 Gaussian 16, Revision A.03,

 -----------------------------------------------------------
 # opt freq B3LYP/6-31G(d) empiricaldispersion=gd3bj scf=xqc
 -----------------------------------------------------------

 -------------------------------
 CID_65262808_JID_10457_neutraal
 -------------------------------
 Symbolic Z-matrix:
 Charge =  0 Multiplicity = 1

 SCF Done:  E(RB3LYP) =  -897.749057849     A.U. after   14 cycles
 SCF Done:  E(RB3LYP) =  -897.755363287     A.U. after   12 cycles
 SCF Done:  E(RB3LYP) =  -897.755252315     A.U. after   12 cycles
 SCF Done:  E(RB3LYP) =  -897.756593569     A.U. after   12 cycles
 SCF Done:  E(RB3LYP) =  -897.757018305     A.U. after   11 cycles
 SCF Done:  E(RB3LYP) =  -897.757279249     A.U. after   12 cycles
 SCF Done:  E(RB3LYP) =  -897.757643461     A.U. after   11 cycles
 SCF Done:  E(RB3LYP) =  -897.758226336     A.U. after   12 cycles
 SCF Done:  E(RB3LYP) =  -897.758474514     A.U. after   12 cycles
 SCF Done:  E(RB3LYP) =  -897.758801374     A.U. after   11 cycles
 SCF Done:  E(RB3LYP) =  -897.768232337     A.U. after    9 cycles
 SCF Done:  E(RB3LYP) =  -897.768232761     A.U. after    8 cycles
 SCF Done:  E(RB3LYP) =  -897.768233011     A.U. after    8 cycles
 SCF Done:  E(RB3LYP) =  -897.768233036     A.U. after    6 cycles
 Optimization completed.
    -- Stationary point found.
 Normal termination of Gaussian 16 at Mon Dec 14 14:21:10 2020.

 --------------------------------------------------------------------
 #N Geom=AllCheck Guess=TCheck SCRF=Check GenChk RB3LYP/6-31G(d) Freq
 --------------------------------------------------------------------

 Structure from the checkpoint file:  "JID_10457.chk"
 -------------------------------
 CID_65262808_JID_10457_neutraal
 -------------------------------
 Charge =  0 Multiplicity = 1

 SCF Done:  E(RB3LYP) =  -897.768233036     A.U. after    1 cycles

  Exact polarizability: 201.638  -2.690 178.842 -16.956  -6.209 136.638
 Approx polarizability: 270.691   4.794 272.827 -33.582 -24.432 234.316

                      1                      2                      3
                      A                      A                      A
 Frequencies --     14.2190                32.0483                40.7767
 Red. masses --      4.0269                 5.0425                 3.7743
 Frc consts  --      0.0005                 0.0031                 0.0037
 IR Inten    --      0.3069                 0.3321                 0.0114

                      4                      5                      6
                      A                      A                      A
 Frequencies --     45.9075                78.2679                98.5684
 Red. masses --      4.6512                 3.9838                 2.4862
 Frc consts  --      0.0058                 0.0144                 0.0142
 IR Inten    --      0.3986                 0.4105                 0.1856

                      7                      8                      9
                      A                      A                      A
 Frequencies --    111.5662               120.1676               141.2428
 Red. masses --      4.6759                 3.1473                 3.1018
 Frc consts  --      0.0343                 0.0268                 0.0365
 IR Inten    --      2.2475                 0.5940                 0.1285

                     10                     11                     12
                      A                      A                      A
 Frequencies --    199.0158               219.1536               234.6391
 Red. masses --      2.9037                 1.2839                 1.1538
 Frc consts  --      0.0678                 0.0363                 0.0374
 IR Inten    --      0.6036                 0.2312                 0.0292

                     13                     14                     15
                      A                      A                      A
 Frequencies --    259.1601               283.0933               293.3441
 Red. masses --      4.1349                 3.2126                 4.9048
 Frc consts  --      0.1636                 0.1517                 0.2487
 IR Inten    --      0.3500                 0.9892                 2.3920

                     16                     17                     18
                      A                      A                      A
 Frequencies --    313.8522               329.1893               359.0275
 Red. masses --      3.1512                 1.9947                 4.5543
 Frc consts  --      0.1829                 0.1274                 0.3459
 IR Inten    --      1.8312                13.8084                 1.7283

                     19                     20                     21
                      A                      A                      A
 Frequencies --    385.8173               417.9369               447.9881
 Red. masses --      4.1402                 3.3529                 2.9212
 Frc consts  --      0.3631                 0.3451                 0.3454
 IR Inten    --      1.3626                 3.3549                 5.0549

                     22                     23                     24
                      A                      A                      A
 Frequencies --    460.2477               470.8383               483.7859
 Red. masses --      6.0114                 4.8679                 4.1805
 Frc consts  --      0.7503                 0.6358                 0.5765
 IR Inten    --      6.3394                 0.6995                 2.6677

                     25                     26                     27
                      A                      A                      A
 Frequencies --    512.5459               553.9029               614.0480
 Red. masses --      4.1450                 3.4962                 3.5971
 Frc consts  --      0.6416                 0.6320                 0.7991
 IR Inten    --      0.4166                 7.7204                 2.4142

                     28                     29                     30
                      A                      A                      A
 Frequencies --    636.0852               690.9338               718.6847
 Red. masses --      3.3968                 3.3772                 3.9374
 Frc consts  --      0.8097                 0.9499                 1.1982
 IR Inten    --      4.5829                 7.8524                 2.4296

                     31                     32                     33
                      A                      A                      A
 Frequencies --    736.9452               763.7152               790.2426
 Red. masses --      5.3000                 1.3665                 3.4976
 Frc consts  --      1.6959                 0.4696                 1.2869
 IR Inten    --      2.1589                39.9828                16.5497

                     34                     35                     36
                      A                      A                      A
 Frequencies --    797.7187               804.1010               818.5643
 Red. masses --      2.2873                 1.7777                 2.9482
 Frc consts  --      0.8576                 0.6772                 1.1639
 IR Inten    --     26.3149                47.9444                30.3959

                     37                     38                     39
                      A                      A                      A
 Frequencies --    827.6488               844.6025               879.3544
 Red. masses --      2.1916                 2.2698                 2.3697
 Frc consts  --      0.8845                 0.9540                 1.0796
 IR Inten    --     52.4246                15.9338                34.7126

                     40                     41                     42
                      A                      A                      A
 Frequencies --    891.7291               897.7752               940.5500
 Red. masses --      2.0116                 5.9253                 2.2972
 Frc consts  --      0.9424                 2.8138                 1.1973
 IR Inten    --      3.7396                33.6954                11.2537

                     43                     44                     45
                      A                      A                      A
 Frequencies --    942.5546               967.0448               989.3714
 Red. masses --      1.4760                 1.5729                 1.2767
 Frc consts  --      0.7726                 0.8667                 0.7363
 IR Inten    --      2.9311                 2.9787                 0.0554

                     46                     47                     48
                      A                      A                      A
 Frequencies --    994.0286              1010.2115              1020.0504
 Red. masses --      2.6168                 3.9913                 2.8727
 Frc consts  --      1.5234                 2.3999                 1.7611
 IR Inten    --      1.8690                 3.2916                 6.5028

                     49                     50                     51
                      A                      A                      A
 Frequencies --   1028.0049              1060.4191              1076.7020
 Red. masses --      3.9133                 3.4273                 2.2476
 Frc consts  --      2.4366                 2.2707                 1.5352
 IR Inten    --      5.6399                16.8472                16.8205

                     52                     53                     54
                      A                      A                      A
 Frequencies --   1079.0685              1109.1405              1115.1259
 Red. masses --      2.4806                 2.3882                 2.8215
 Frc consts  --      1.7018                 1.7310                 2.0672
 IR Inten    --     19.8277                40.4513                40.8954

                     55                     56                     57
                      A                      A                      A
 Frequencies --   1125.6798              1146.7019              1161.1511
 Red. masses --      1.9220                 2.4464                 2.9822
 Frc consts  --      1.4349                 1.8953                 2.3690
 IR Inten    --      6.0918                 3.8460                31.6350

                     58                     59                     60
                      A                      A                      A
 Frequencies --   1172.5869              1199.0375              1205.2901
 Red. masses --      2.9987                 1.1163                 1.5753
 Frc consts  --      2.4293                 0.9455                 1.3483
 IR Inten    --    120.5192                 0.2231                 4.8061

                     61                     62                     63
                      A                      A                      A
 Frequencies --   1213.3479              1216.1753              1228.9390
 Red. masses --      2.1175                 1.8659                 2.0283
 Frc consts  --      1.8368                 1.6261                 1.8048
 IR Inten    --     13.0194                23.5792                11.5161

                     64                     65                     66
                      A                      A                      A
 Frequencies --   1237.0096              1304.3109              1329.0471
 Red. masses --      2.1201                 1.4295                 1.6418
 Frc consts  --      1.9114                 1.4328                 1.7087
 IR Inten    --     10.4274                 2.4193                 8.3071

                     67                     68                     69
                      A                      A                      A
 Frequencies --   1344.7735              1346.7290              1355.3080
 Red. masses --      1.1421                 2.2562                 1.5428
 Frc consts  --      1.2169                 2.4109                 1.6696
 IR Inten    --      2.4326                 0.2563                 6.3292

                     70                     71                     72
                      A                      A                      A
 Frequencies --   1362.7555              1371.7408              1386.5078
 Red. masses --      1.9569                 1.3721                 1.9202
 Frc consts  --      2.1412                 1.5212                 2.1749
 IR Inten    --     17.6784                 2.0072                17.3656

                     73                     74                     75
                      A                      A                      A
 Frequencies --   1399.1053              1403.4854              1419.4771
 Red. masses --      1.2320                 1.9014                 1.3187
 Frc consts  --      1.4209                 2.2067                 1.5655
 IR Inten    --      4.5307                31.2723                 2.5882

                     76                     77                     78
                      A                      A                      A
 Frequencies --   1422.1517              1432.1668              1445.4972
 Red. masses --      1.5992                 1.2908                 1.3028
 Frc consts  --      1.9056                 1.5599                 1.6039
 IR Inten    --     38.2087                 7.2809                30.9279

                     79                     80                     81
                      A                      A                      A
 Frequencies --   1496.8123              1503.5946              1510.4921
 Red. masses --      2.0369                 1.1470                 1.2161
 Frc consts  --      2.6887                 1.5279                 1.6348
 IR Inten    --      7.3026                 1.0289                11.6229

                     82                     83                     84
                      A                      A                      A
 Frequencies --   1516.0641              1516.6377              1519.9759
 Red. masses --      1.0487                 1.0573                 1.0879
 Frc consts  --      1.4202                 1.4329                 1.4809
 IR Inten    --      5.5488                 6.3142                 5.6063

                     85                     86                     87
                      A                      A                      A
 Frequencies --   1521.9806              1525.4365              1540.0278
 Red. masses --      1.0829                 1.1078                 1.0942
 Frc consts  --      1.4779                 1.5188                 1.5290
 IR Inten    --      2.3689                10.9753                 4.7913

                     88                     89                     90
                      A                      A                      A
 Frequencies --   1544.4979              1556.5619              1623.3902
 Red. masses --      2.3192                 5.1252                 8.7611
 Frc consts  --      3.2596                 7.3163                13.6036
 IR Inten    --     19.8412                18.7582                98.0677

                     91                     92                     93
                      A                      A                      A
 Frequencies --   1641.5697              1666.4733              3025.4019
 Red. masses --      6.4330                 5.7006                 1.0681
 Frc consts  --     10.2137                 9.3275                 5.7601
 IR Inten    --      1.0706                 0.3583                31.0128

                     94                     95                     96
                      A                      A                      A
 Frequencies --   3037.0565              3050.3974              3055.1971
 Red. masses --      1.0832                 1.0615                 1.0391
 Frc consts  --      5.8864                 5.8193                 5.7144
 IR Inten    --      8.6398                44.5324                21.5387

                     97                     98                     99
                      A                      A                      A
 Frequencies --   3064.4864              3070.2454              3086.6911
 Red. masses --      1.0365                 1.0598                 1.0957
 Frc consts  --      5.7351                 5.8857                 6.1509
 IR Inten    --     13.2635                32.4427                26.9049

                    100                    101                    102
                      A                      A                      A
 Frequencies --   3098.4962              3108.6824              3118.2982
 Red. masses --      1.0870                 1.1004                 1.1072
 Frc consts  --      6.1485                 6.2652                 6.3432
 IR Inten    --      9.9088                 8.3903                17.5011

                    103                    104                    105
                      A                      A                      A
 Frequencies --   3123.6503              3134.1562              3141.3196
 Red. masses --      1.0988                 1.1012                 1.1043
 Frc consts  --      6.3170                 6.3731                 6.4207
 IR Inten    --     28.3670                24.4467                47.3073

                    106                    107                    108
                      A                      A                      A
 Frequencies --   3151.7063              3171.7255              3187.0518
 Red. masses --      1.1030                 1.0876                 1.0872
 Frc consts  --      6.4556                 6.4461                 6.5061
 IR Inten    --     27.7883                11.9884                 1.0986

                    109                    110                    111
                      A                      A                      A
 Frequencies --   3197.4006              3211.4069              3475.8389
 Red. masses --      1.0920                 1.0973                 1.0738
 Frc consts  --      6.5776                 6.6678                 7.6438
 IR Inten    --     21.7914                24.8659                 0.6801

 - Thermochemistry -
 -------------------
 Temperature   298.150 Kelvin.  Pressure   1.00000 Atm.
 Atom     1 has atomic number  6 and mass  12.00000

 Molecular mass:   273.14773 amu.
 Principal axes and moments of inertia in atomic units:
                           1         2         3
     Eigenvalues --  3042.546978734.010599937.07550
           X            0.99996  -0.00624   0.00611
           Y            0.00609   0.99970   0.02389
           Z           -0.00626  -0.02385   0.99970
 This molecule is an asymmetric top.
 Rotational symmetry number  1.
 Warning -- assumption of classical behavior for rotation
           may cause significant error
 Rotational temperatures (Kelvin)      0.02847     0.00992     0.00872
 Rotational constants (GHZ):           0.59317     0.20663     0.18162
 Zero-point vibrational energy     863538.9 (Joules/Mol)
                                  206.39074 (Kcal/Mol)
 Warning -- explicit consideration of  27 degrees of freedom as
           vibrations may cause significant error
 Vibrational temperatures:     20.46    46.11    58.67    66.05   112.61
          (Kelvin)            141.82   160.52   172.89   203.22   286.34
                              315.31   337.59   372.87   407.31   422.06
                              451.56   473.63   516.56   555.11   601.32
                              644.56   662.19   677.43   696.06   737.44
                              796.94   883.48   915.18   994.10  1034.03
                             1060.30  1098.82  1136.98  1147.74  1156.92
                             1177.73  1190.80  1215.19  1265.19  1283.00
                             1291.70  1353.24  1356.13  1391.36  1423.48
                             1430.19  1453.47  1467.63  1479.07  1525.71
                             1549.13  1552.54  1595.81  1604.42  1619.60
                             1649.85  1670.64  1687.09  1725.15  1734.14
                             1745.74  1749.81  1768.17  1779.78  1876.61
                             1912.20  1934.83  1937.64  1949.99  1960.70
                             1973.63  1994.88  2013.00  2019.30  2042.31
                             2046.16  2060.57  2079.75  2153.58  2163.34
                             2173.26  2181.28  2182.10  2186.91  2189.79
                             2194.76  2215.76  2222.19  2239.55  2335.70
                             2361.85  2397.68  4352.88  4369.65  4388.84
                             4395.75  4409.11  4417.40  4441.06  4458.04
                             4472.70  4486.54  4494.24  4509.35  4519.66
                             4534.60  4563.41  4585.46  4600.35  4620.50
                             5000.96

 Zero-point correction=                           0.328905 (Hartree/Particle)
 Thermal correction to Energy=                    0.347021
 Thermal correction to Enthalpy=                  0.347965
 Thermal correction to Gibbs Free Energy=         0.280343
 Sum of electronic and zero-point Energies=           -897.439328
 Sum of electronic and thermal Energies=              -897.421212
 Sum of electronic and thermal Enthalpies=            -897.420268
 Sum of electronic and thermal Free Energies=         -897.487891

                     E (Thermal)             CV                S
                      KCal/Mol        Cal/Mol-Kelvin    Cal/Mol-Kelvin
 Total                  217.759             69.189            142.324
 Electronic               0.000              0.000              0.000
 Translational            0.889              2.981             42.713
 Rotational               0.889              2.981             33.934
 Vibrational            215.982             63.227             65.677
 Vibration     1          0.593              1.986              7.312
 Vibration     2          0.594              1.983              5.698
 Vibration     3          0.594              1.981              5.221
 Vibration     4          0.595              1.979              4.986
 Vibration     5          0.600              1.964              3.934
 Vibration     6          0.604              1.950              3.482
 Vibration     7          0.607              1.940              3.241
 Vibration     8          0.609              1.932              3.098
 Vibration     9          0.615              1.912              2.787
 Vibration    10          0.637              1.841              2.142
 Vibration    11          0.647              1.812              1.966
 Vibration    12          0.654              1.788              1.843
 Vibration    13          0.668              1.747              1.667
 Vibration    14          0.682              1.705              1.515
 Vibration    15          0.688              1.686              1.455
 Vibration    16          0.702              1.647              1.342
 Vibration    17          0.712              1.617              1.264
 Vibration    18          0.734              1.557              1.126
 Vibration    19          0.754              1.500              1.016
 Vibration    20          0.781              1.431              0.899
 Vibration    21          0.807              1.365              0.802
 Vibration    22          0.818              1.338              0.765
 Vibration    23          0.828              1.315              0.735
 Vibration    24          0.840              1.286              0.700
 Vibration    25          0.868              1.222              0.627
 Vibration    26          0.909              1.131              0.536
 Vibration    27          0.973              1.002              0.426

 Optimization completed.
    -- Stationary point found.
 Normal termination of Gaussian 16 at Mon Dec 14 14:40:36 2020.

 ----------------------------------------------------------------------
 # B3LYP/6-311++G(d,p) empiricaldispersion=gd3bj scf=xqc pop=npa geom=c
 heck
 ----------------------------------------------------------------------

 ---------------------------------------
 CID_65262808_JID_10457_Energie_neutraal
 ---------------------------------------
 Structure from the checkpoint file:  "JID_10457.chk"
 Charge =  0 Multiplicity = 1

 SCF Done:  E(RB3LYP) =  -898.008869505     A.U. after   15 cycles
 Normal termination of Gaussian 16 at Mon Dec 14 14:48:03 2020.

 ----------------------------------------------------------------------
 # B3LYP/6-311++G(d,p) empiricaldispersion=gd3bj scf=xqc pop=npa geom=c
 heck
 ----------------------------------------------------------------------

 -------------------------------------
 CID_65262808_JID_10457_Energie_kation
 -------------------------------------
 Structure from the checkpoint file:  "JID_10457.chk"
 Charge =  1 Multiplicity = 2

 SCF Done:  E(UB3LYP) =  -897.702458588     A.U. after   33 cycles
 SCF Done:  E(UB3LYP) =  -897.702458588     a.u. after    1 cycles
 Normal termination of Gaussian 16 at Mon Dec 14 15:10:32 2020.
 Gaussian 16:  ES64L-G16RevA.03 25-Dec-2016

 ----------------------------------------------------------------------
 # B3LYP/6-311++G(d,p) empiricaldispersion=gd3bj scf=xqc pop=npa geom=c
 heck
 ----------------------------------------------------------------------

 ------------------------------------
 CID_65262808_JID_10457_Energie_anion
 ------------------------------------
 Structure from the checkpoint file:  "JID_10457.chk"
 Charge = -1 Multiplicity = 2

                         Standard orientation:
 ---------------------------------------------------------------------
 Center     Atomic      Atomic             Coordinates (Angstroms)
 Number     Number       Type             X           Y           Z
 ---------------------------------------------------------------------
      1          6           0       -3.649249    2.157612    0.023098
      2          6           0       -3.802759    1.067011   -1.028732
      3          8           0       -4.252346   -0.153123   -0.424944
      4          6           0       -3.334871   -1.238625   -0.351094
      5          6           0       -2.984919   -1.819982   -1.723115
      6          6           0       -2.091330   -0.889760    0.428357
      7          7           0       -1.906330   -1.309814    1.654520
      8          8           0       -0.657477   -0.744071    2.003269
      9          6           0       -0.236712   -0.046099    0.932169
     10          7           0       -1.070289   -0.100837   -0.067737
     11          6           0        1.074383    0.664656    1.007644
     12          6           0        0.942368    2.078111    0.384368
     13          7           0        2.224355    2.725826    0.154780
     14          6           0        3.025652    1.960798   -0.797670
     15          6           0        3.115707    0.472345   -0.504355
     16          6           0        4.129526   -0.297297   -1.086083
     17          6           0        4.226688   -1.664020   -0.840901
     18          6           0        3.302104   -2.280803    0.004415
     19          6           0        2.290562   -1.524429    0.589158
     20          6           0        2.183505   -0.151249    0.336775
     21          1           0       -4.581150    2.279513    0.584276
     22          1           0       -3.400211    3.114632   -0.451050
     23          1           0       -2.852202    1.908016    0.729987
     24          1           0       -4.566582    1.351093   -1.762981
     25          1           0       -2.859611    0.921433   -1.563484
     26          1           0       -3.868785   -1.991523    0.235710
     27          1           0       -2.393520   -1.117533   -2.316596
     28          1           0       -2.398445   -2.738220   -1.609207
     29          1           0       -3.908087   -2.054172   -2.261092
     30          1           0        1.318796    0.769347    2.073421
     31          1           0        0.322482    2.706758    1.031959
     32          1           0        0.425527    1.990998   -0.577162
     33          1           0        2.730276    2.801358    1.036791
     34          1           0        2.584566    2.107972   -1.794290
     35          1           0        4.030272    2.396178   -0.839224
     36          1           0        4.852303    0.188873   -1.738134
     37          1           0        5.022727   -2.244184   -1.298971
     38          1           0        3.369417   -3.345395    0.208589
     39          1           0        1.572738   -2.003419    1.249724
 ---------------------------------------------------------------------

 SCF Done:  E(UB3LYP) =  -898.002721250     A.U. after   33 cycles
 SCF Done:  E(UB3LYP) =  -898.002721249     a.u. after    1 cycles

 The electronic state is 2-A.
 Alpha  occ. eigenvalues --  -19.09225 -19.03028 -14.24141 -14.20018 -14.19531
 Alpha  occ. eigenvalues --  -10.14749 -10.14087 -10.12324 -10.11890 -10.09390
 Alpha  occ. eigenvalues --  -10.09120 -10.08670 -10.07661 -10.07272 -10.07092
 Alpha  occ. eigenvalues --  -10.06856 -10.06744 -10.06686 -10.06478 -10.06400
 Alpha  occ. eigenvalues --   -1.04121  -0.94160  -0.82124  -0.81560  -0.76417
 Alpha  occ. eigenvalues --   -0.74782  -0.68973  -0.67732  -0.65581  -0.64523
 Alpha  occ. eigenvalues --   -0.62616  -0.57093  -0.56060  -0.53511  -0.52538
 Alpha  occ. eigenvalues --   -0.50820  -0.48660  -0.47216  -0.46282  -0.41699
 Alpha  occ. eigenvalues --   -0.41257  -0.40030  -0.38825  -0.37855  -0.36178
 Alpha  occ. eigenvalues --   -0.35769  -0.35252  -0.34816  -0.33606  -0.32680
 Alpha  occ. eigenvalues --   -0.32202  -0.31832  -0.31351  -0.30715  -0.29307
 Alpha  occ. eigenvalues --   -0.28972  -0.28756  -0.28130  -0.27320  -0.26466
 Alpha  occ. eigenvalues --   -0.26077  -0.24816  -0.24413  -0.23394  -0.22514
 Alpha  occ. eigenvalues --   -0.21951  -0.21113  -0.18447  -0.17949  -0.16814
 Alpha  occ. eigenvalues --   -0.14592  -0.14181  -0.12469   0.04551
 Alpha virt. eigenvalues --    0.06730   0.06809   0.07288   0.07971   0.08195
 Alpha virt. eigenvalues --    0.08529   0.08970   0.09357   0.09556   0.09906
 Alpha virt. eigenvalues --    0.10638   0.10873   0.11320   0.11499   0.12327

  Beta  occ. eigenvalues --  -19.09043 -19.03014 -14.23897 -14.20044 -14.19496
  Beta  occ. eigenvalues --  -10.14507 -10.14089 -10.12320 -10.11834 -10.09376
  Beta  occ. eigenvalues --  -10.09110 -10.08688 -10.07661 -10.07164 -10.07054
  Beta  occ. eigenvalues --  -10.06852 -10.06756 -10.06674 -10.06467 -10.06293
  Beta  occ. eigenvalues --   -1.03801  -0.94130  -0.81982  -0.81463  -0.76086
  Beta  occ. eigenvalues --   -0.74645  -0.68932  -0.67575  -0.65463  -0.64500
  Beta  occ. eigenvalues --   -0.62508  -0.57026  -0.55939  -0.53418  -0.52408
  Beta  occ. eigenvalues --   -0.50632  -0.48547  -0.47114  -0.46162  -0.41598
  Beta  occ. eigenvalues --   -0.41123  -0.39953  -0.38751  -0.37383  -0.36020
  Beta  occ. eigenvalues --   -0.35692  -0.35065  -0.34714  -0.33564  -0.32580
  Beta  occ. eigenvalues --   -0.32133  -0.31795  -0.31208  -0.30607  -0.29286
  Beta  occ. eigenvalues --   -0.28864  -0.28724  -0.28039  -0.27253  -0.26416
  Beta  occ. eigenvalues --   -0.26003  -0.24649  -0.24302  -0.23204  -0.22320
  Beta  occ. eigenvalues --   -0.21734  -0.20706  -0.18336  -0.17309  -0.16323
  Beta  occ. eigenvalues --   -0.14344  -0.13806  -0.12328
  Beta virt. eigenvalues --    0.06559   0.07002   0.07610   0.08186   0.08277
  Beta virt. eigenvalues --    0.08542   0.08926   0.09065   0.09735   0.09826
  Beta virt. eigenvalues --    0.10411   0.10767   0.10946   0.11395   0.11540

 Mulliken charges and spin densities:
               1          2
     1  C   -0.282650  -0.157467
     2  C   -0.199690   0.062943
     3  O   -0.051383  -0.002884
     4  C   -0.078193   0.020707
     5  C   -0.451611  -0.002894
     6  C    0.241112  -0.005289
     7  N   -0.281288   0.119307
     8  O    0.240188   0.055002
     9  C   -0.528159  -0.303055
    10  N    0.148069   0.000107
    11  C   -0.061197   0.156202
    12  C    0.017238  -0.970392
    13  N   -0.098204   0.210081
    14  C    0.973679  -1.873637
    15  C   -1.119142   1.813174
    16  C    0.207300  -0.885509
    17  C    0.135633  -0.373416
    18  C   -0.452129   0.102293
    19  C   -0.199497  -0.266372
    20  C    0.090665   0.829964
    21  H    0.119499   0.016891
    22  H    0.056106   0.053699
    23  H    0.209405  -0.017340
    24  H    0.068359   0.076513
    25  H    0.123118  -0.006969
    26  H    0.185209   0.024608
    27  H    0.168788   0.006735
    28  H    0.121213   0.008592
    29  H    0.145791   0.002043
    30  H   -0.308777   0.585445
    31  H    0.031856   0.157005
    32  H    0.216595   0.011271
    33  H   -0.205166   0.451494
    34  H    0.150016   0.018525
    35  H   -0.216244   0.399322
    36  H   -0.142964   0.283788
    37  H   -0.156660   0.281244
    38  H    0.025981   0.116387
    39  H    0.157139   0.001883
 Sum of Mulliken charges =  -1.00000   1.00000

 Dipole moment (field-independent basis, Debye):
    X=             -4.5891    Y=             -1.9101    Z=             -3.5397  Tot=              6.1023
 Quadrupole moment (field-independent basis, Debye-Ang):
   XX=           -190.9503   YY=           -155.1971   ZZ=           -148.9459
   XY=             -8.4294   XZ=              3.8132   YZ=             -1.7935

 Summary of Natural Population Analysis:

                                       Natural Population
                Natural  -----------------------------------------------
    Atom  No    Charge         Core      Valence    Rydberg      Total
 -----------------------------------------------------------------------
      C    1   -0.29496      0.99966     2.29049    0.00481     3.29496
      C    2   -0.01804      0.99959     2.00658    0.01187     3.01804
      O    3   -0.30348      0.99988     3.29387    0.00972     4.30348
      C    4    0.05160      0.99950     1.93450    0.01440     2.94840
      C    5   -0.29638      0.99965     2.29253    0.00419     3.29638
      C    6    0.16007      0.99961     1.82128    0.01903     2.83993
      N    7   -0.06445      0.99966     2.55246    0.01234     3.56445
      O    8   -0.15889      0.99985     3.15116    0.00788     4.15889
      C    9    0.33028      0.99960     1.64839    0.02173     2.66972
      N   10   -0.29182      0.99966     2.78381    0.00835     3.79182
      C   11   -0.15396      0.99952     2.14170    0.01274     3.15396
      C   12   -0.07967      0.99962     2.06749    0.01257     3.07967
      N   13   -0.33162      0.99976     2.81909    0.01277     3.83162
      C   14   -0.09207      0.99959     2.08007    0.01242     3.09207
      C   15   -0.01675      0.99945     2.00785    0.00944     3.01675
      C   16   -0.10415      0.99952     2.09495    0.00968     3.10415
      C   17   -0.08591      0.99956     2.07693    0.00942     3.08591
      C   18   -0.10363      0.99957     2.09465    0.00942     3.10363
      C   19   -0.09528      0.99951     2.08663    0.00913     3.09528
      C   20    0.00462      0.99945     1.98567    0.01026     2.99538
      H   21    0.09626      0.00000     0.40255    0.00118     0.40374
      H   22    0.09570      0.00000     0.40314    0.00116     0.40430
      H   23    0.10462      0.00000     0.39396    0.00142     0.39538
      H   24    0.07894      0.00000     0.41965    0.00141     0.42106
      H   25    0.09294      0.00000     0.40553    0.00153     0.40706
      H   26    0.10043      0.00000     0.39817    0.00140     0.39957
      H   27    0.10443      0.00000     0.39451    0.00106     0.39557
      H   28    0.10357      0.00000     0.39547    0.00096     0.39643
      H   29    0.09744      0.00000     0.40151    0.00106     0.40256
      H   30    0.11711      0.00000     0.37953    0.00336     0.38289
      H   31    0.09700      0.00000     0.40196    0.00105     0.40300
      H   32    0.09852      0.00000     0.39992    0.00156     0.40148
      H   33    0.17363      0.00000     0.32139    0.00499     0.32637
      H   34    0.09407      0.00000     0.40473    0.00120     0.40593
      H   35    0.09902      0.00000     0.39994    0.00104     0.40098
      H   36    0.09570      0.00000     0.40283    0.00147     0.40430
      H   37    0.09549      0.00000     0.40367    0.00084     0.40451
      H   38    0.09659      0.00000     0.40266    0.00076     0.40341
      H   39    0.10303      0.00000     0.39538    0.00159     0.39697
 =======================================================================
   * Total *   -0.00000     19.99222    52.75660    0.25118    73.00000

 Normal termination of Gaussian 16 at Mon Dec 14 15:33:29 2020.
