 Gaussian 16, Revision A.03,

 -----------------------------------------------------------
 # opt freq B3LYP/6-31G(d) empiricaldispersion=gd3bj scf=xqc
 -----------------------------------------------------------

 ------------------------------
 CID_116104030_JID_908_neutraal
 ------------------------------
 Symbolic Z-matrix:
 Charge =  0 Multiplicity = 1

 SCF Done:  E(RB3LYP) =  -765.645566746     A.U. after   14 cycles
 SCF Done:  E(RB3LYP) =  -765.642493924     A.U. after   13 cycles
 SCF Done:  E(RB3LYP) =  -765.647925270     A.U. after   12 cycles
 SCF Done:  E(RB3LYP) =  -765.648875951     A.U. after   12 cycles
 SCF Done:  E(RB3LYP) =  -765.649162972     A.U. after   12 cycles
 SCF Done:  E(RB3LYP) =  -765.649480265     A.U. after   11 cycles
 SCF Done:  E(RB3LYP) =  -765.649562405     A.U. after   11 cycles
 SCF Done:  E(RB3LYP) =  -765.649605523     A.U. after   11 cycles
 SCF Done:  E(RB3LYP) =  -765.649630054     A.U. after   10 cycles
 SCF Done:  E(RB3LYP) =  -765.649632388     A.U. after    8 cycles
 SCF Done:  E(RB3LYP) =  -765.649632975     A.U. after    7 cycles
 SCF Done:  E(RB3LYP) =  -765.649633140     A.U. after    7 cycles
 SCF Done:  E(RB3LYP) =  -765.649633166     A.U. after    6 cycles
 Optimization completed.
    -- Stationary point found.
 Normal termination of Gaussian 16 at Tue Dec  8 13:40:18 2020.

 --------------------------------------------------------------------
 #N Geom=AllCheck Guess=TCheck SCRF=Check GenChk RB3LYP/6-31G(d) Freq
 --------------------------------------------------------------------

 Structure from the checkpoint file:  "JID_908.chk"
 ------------------------------
 CID_116104030_JID_908_neutraal
 ------------------------------
 Charge =  0 Multiplicity = 1

 SCF Done:  E(RB3LYP) =  -765.649633166     A.U. after    1 cycles

  Exact polarizability:  97.308  14.736 104.846  -1.033  -1.283  95.637
 Approx polarizability: 133.124  29.607 160.616  -1.468  -2.864 159.857

                      1                      2                      3
                      A                      A                      A
 Frequencies --     57.3048                71.3141                91.4114
 Red. masses --      3.1578                 4.0770                 3.2021
 Frc consts  --      0.0061                 0.0122                 0.0158
 IR Inten    --      1.5524                 0.5743                 0.3383

                      4                      5                      6
                      A                      A                      A
 Frequencies --    104.2606               164.5651               224.2525
 Red. masses --      3.4394                 1.7987                 3.4545
 Frc consts  --      0.0220                 0.0287                 0.1024
 IR Inten    --      1.0729                 1.4472                 0.3256

                      7                      8                      9
                      A                      A                      A
 Frequencies --    252.5765               277.3753               355.0728
 Red. masses --      2.1414                 1.7253                 2.8023
 Frc consts  --      0.0805                 0.0782                 0.2082
 IR Inten    --      1.0878                 0.5191                 1.0724

                     10                     11                     12
                      A                      A                      A
 Frequencies --    375.9780               456.7898               620.5722
 Red. masses --      2.1292                 2.8331                 4.0435
 Frc consts  --      0.1773                 0.3483                 0.9175
 IR Inten    --      0.7454                 3.9770                 2.1932

                     13                     14                     15
                      A                      A                      A
 Frequencies --    624.2778               636.4375               656.4018
 Red. masses --      3.5237                 4.3137                 3.4647
 Frc consts  --      0.8091                 1.0295                 0.8795
 IR Inten    --      0.4458                10.1713                 3.3353

                     16                     17                     18
                      A                      A                      A
 Frequencies --    677.9727               690.6216               735.4832
 Red. masses --      1.3301                 3.4179                 1.1725
 Frc consts  --      0.3602                 0.9605                 0.3737
 IR Inten    --      0.7131                 0.9414                92.0413

                     19                     20                     21
                      A                      A                      A
 Frequencies --    781.1313               809.0858               861.9728
 Red. masses --      1.1819                 1.2534                 1.2371
 Frc consts  --      0.4249                 0.4834                 0.5415
 IR Inten    --      6.5155                 0.3870                 0.2815

                     22                     23                     24
                      A                      A                      A
 Frequencies --    887.9097               897.6275               960.5416
 Red. masses --      2.0079                 5.5425                 2.1166
 Frc consts  --      0.9327                 2.6312                 1.1506
 IR Inten    --      9.7219                 0.1490                 0.9982

                     25                     26                     27
                      A                      A                      A
 Frequencies --    994.7564              1001.6083              1029.7354
 Red. masses --      1.8567                 1.7843                 2.0297
 Frc consts  --      1.0825                 1.0547                 1.2681
 IR Inten    --      5.2318                 3.9761                 6.1281

                     28                     29                     30
                      A                      A                      A
 Frequencies --   1077.4611              1088.2256              1097.4179
 Red. masses --      1.5473                 1.6670                 2.2403
 Frc consts  --      1.0583                 1.1631                 1.5897
 IR Inten    --      1.0787                 9.5704                 2.6192

                     31                     32                     33
                      A                      A                      A
 Frequencies --   1102.9827              1121.4332              1191.2509
 Red. masses --      1.3091                 1.3574                 1.2044
 Frc consts  --      0.9384                 1.0058                 1.0070
 IR Inten    --      7.5335                21.8965                 3.2739

                     34                     35                     36
                      A                      A                      A
 Frequencies --   1254.3952              1297.3617              1307.4563
 Red. masses --      1.2915                 1.1810                 1.3076
 Frc consts  --      1.1974                 1.1712                 1.3170
 IR Inten    --      4.4642                 6.0045                 5.9822

                     37                     38                     39
                      A                      A                      A
 Frequencies --   1325.6945              1333.5833              1344.3380
 Red. masses --      1.4074                 2.8114                 1.3615
 Frc consts  --      1.4574                 2.9459                 1.4498
 IR Inten    --     10.3318                47.3324                15.3019

                     40                     41                     42
                      A                      A                      A
 Frequencies --   1404.2117              1436.7244              1440.4142
 Red. masses --      1.4514                 1.2301                 4.3930
 Frc consts  --      1.6862                 1.4961                 5.3701
 IR Inten    --     31.5265                 4.1106                 2.2744

                     43                     44                     45
                      A                      A                      A
 Frequencies --   1448.2362              1483.1486              1507.7095
 Red. masses --      2.5333                 1.0875                 1.2045
 Frc consts  --      3.1305                 1.4095                 1.6133
 IR Inten    --      3.0579                 7.4909                 8.4703

                     46                     47                     48
                      A                      A                      A
 Frequencies --   1510.7572              1521.5981              1532.0150
 Red. masses --      1.0937                 1.0526                 1.0446
 Frc consts  --      1.4707                 1.4358                 1.4445
 IR Inten    --      1.4359                 6.6704                 2.6581

                     49                     50                     51
                      A                      A                      A
 Frequencies --   1549.9513              1575.3462              3046.2649
 Red. masses --      2.4671                 3.9716                 1.0677
 Frc consts  --      3.4919                 5.8073                 5.8378
 IR Inten    --     34.7797                 1.3086                39.8332

                     52                     53                     54
                      A                      A                      A
 Frequencies --   3052.6049              3076.2932              3077.3231
 Red. masses --      1.0367                 1.0605                 1.0667
 Frc consts  --      5.6918                 5.9130                 5.9517
 IR Inten    --     23.0331                31.5240                 5.6189

                     55                     56                     57
                      A                      A                      A
 Frequencies --   3115.6166              3118.3849              3129.1717
 Red. masses --      1.0997                 1.1016                 1.1009
 Frc consts  --      6.2893                 6.3116                 6.3510
 IR Inten    --     29.0385                 0.1592                26.2617

                     58                     59                     60
                      A                      A                      A
 Frequencies --   3134.5618              3156.8754              3249.9305
 Red. masses --      1.0999                 1.1003                 1.0877
 Frc consts  --      6.3674                 6.4606                 6.7688
 IR Inten    --     20.7275                 2.1086                 3.2830

                     61                     62                     63
                      A                      A                      A
 Frequencies --   3261.0617              3273.7685              3284.7658
 Red. masses --      1.0926                 1.1013                 1.1041
 Frc consts  --      6.8459                 6.9540                 7.0191
 IR Inten    --      6.2647                 4.2595                 1.1214

 - Thermochemistry -
 -------------------
 Temperature   298.150 Kelvin.  Pressure   1.00000 Atm.
 Atom     1 has atomic number  6 and mass  12.00000

 Molecular mass:   155.07687 amu.
 Principal axes and moments of inertia in atomic units:
                           1         2         3
     Eigenvalues --  1097.804492002.608592394.69541
           X            0.99967  -0.01416  -0.02133
           Y            0.01414   0.99990  -0.00104
           Z            0.02134   0.00073   0.99977
 This molecule is an asymmetric top.
 Rotational symmetry number  1.
 Warning -- assumption of classical behavior for rotation
           may cause significant error
 Rotational temperatures (Kelvin)      0.07890     0.04325     0.03617
 Rotational constants (GHZ):           1.64396     0.90120     0.75364
 Zero-point vibrational energy     521723.6 (Joules/Mol)
                                  124.69493 (Kcal/Mol)
 Warning -- explicit consideration of  12 degrees of freedom as
           vibrations may cause significant error
 Vibrational temperatures:     82.45   102.61   131.52   150.01   236.77
          (Kelvin)            322.65   363.40   399.08   510.87   540.95
                              657.22   892.86   898.20   915.69   944.42
                              975.45   993.65  1058.20  1123.87  1164.09
                             1240.19  1277.50  1291.49  1382.01  1431.23
                             1441.09  1481.56  1550.23  1565.71  1578.94
                             1586.95  1613.49  1713.94  1804.79  1866.61
                             1881.14  1907.38  1918.73  1934.20  2020.35
                             2067.13  2072.43  2083.69  2133.92  2169.26
                             2173.64  2189.24  2204.23  2230.03  2266.57
                             4382.90  4392.02  4426.10  4427.58  4482.68
                             4486.66  4502.18  4509.94  4542.04  4675.93
                             4691.94  4710.22  4726.05

 Zero-point correction=                           0.198714 (Hartree/Particle)
 Thermal correction to Energy=                    0.209311
 Thermal correction to Enthalpy=                  0.210255
 Thermal correction to Gibbs Free Energy=         0.161887
 Sum of electronic and zero-point Energies=           -765.450919
 Sum of electronic and thermal Energies=              -765.440322
 Sum of electronic and thermal Enthalpies=            -765.439378
 Sum of electronic and thermal Free Energies=         -765.487746

                     E (Thermal)             CV                S
                      KCal/Mol        Cal/Mol-Kelvin    Cal/Mol-Kelvin
 Total                  131.345             39.488            101.799
 Electronic               0.000              0.000              0.000
 Translational            0.889              2.981             41.026
 Rotational               0.889              2.981             30.044
 Vibrational            129.567             33.526             30.729
 Vibration     1          0.596              1.975              4.548
 Vibration     2          0.598              1.968              4.117
 Vibration     3          0.602              1.955              3.630
 Vibration     4          0.605              1.946              3.373
 Vibration     5          0.623              1.886              2.497
 Vibration     6          0.649              1.804              1.924
 Vibration     7          0.664              1.758              1.713
 Vibration     8          0.678              1.715              1.550
 Vibration     9          0.731              1.565              1.144
 Vibration    10          0.747              1.521              1.055
 Vibration    11          0.815              1.346              0.776
 Vibration    12          0.981              0.988              0.416

 Optimization completed.
    -- Stationary point found.
 Normal termination of Gaussian 16 at Tue Dec  8 13:46:40 2020.

 ----------------------------------------------------------------------
 # B3LYP/6-311++G(d,p) empiricaldispersion=gd3bj scf=xqc pop=npa geom=c
 heck
 ----------------------------------------------------------------------

 --------------------------------------
 CID_116104030_JID_908_Energie_neutraal
 --------------------------------------
 Structure from the checkpoint file:  "JID_908.chk"
 Charge =  0 Multiplicity = 1

 SCF Done:  E(RB3LYP) =  -765.778833790     A.U. after   14 cycles
 Normal termination of Gaussian 16 at Tue Dec  8 13:50:00 2020.

 ----------------------------------------------------------------------
 # B3LYP/6-311++G(d,p) empiricaldispersion=gd3bj scf=xqc pop=npa geom=c
 heck
 ----------------------------------------------------------------------

 ------------------------------------
 CID_116104030_JID_908_Energie_kation
 ------------------------------------
 Structure from the checkpoint file:  "JID_908.chk"
 Charge =  1 Multiplicity = 2

 SCF Done:  E(UB3LYP) =  -765.491221015     A.U. after   23 cycles
 Normal termination of Gaussian 16 at Tue Dec  8 13:56:39 2020.
 Gaussian 16:  ES64L-G16RevA.03 25-Dec-2016

 ----------------------------------------------------------------------
 # B3LYP/6-311++G(d,p) empiricaldispersion=gd3bj scf=xqc pop=npa geom=c
 heck
 ----------------------------------------------------------------------

 -----------------------------------
 CID_116104030_JID_908_Energie_anion
 -----------------------------------
 Structure from the checkpoint file:  "JID_908.chk"
 Charge = -1 Multiplicity = 2

                         Standard orientation:
 ---------------------------------------------------------------------
 Center     Atomic      Atomic             Coordinates (Angstroms)
 Number     Number       Type             X           Y           Z
 ---------------------------------------------------------------------
      1          6           0       -1.567427    2.034608    0.763080
      2          6           0       -1.278799    1.299567   -0.541167
      3         16           0       -2.021300   -0.382649   -0.661390
      4          6           0       -1.243523   -1.290401    0.724133
      5          6           0        0.152177   -1.855604    0.436379
      6          7           0        1.146457   -0.833452    0.168908
      7          6           0        1.621281   -0.488437   -1.076229
      8          6           0        2.424731    0.624693   -0.939560
      9          6           0        2.432982    0.971974    0.442896
     10          6           0        1.635020    0.058457    1.099062
     11          1           0       -2.642537    2.096737    0.959033
     12          1           0       -1.162187    3.052299    0.710409
     13          1           0       -1.086343    1.543339    1.614439
     14          1           0       -1.739166    1.826032   -1.384450
     15          1           0       -0.206287    1.244572   -0.736286
     16          1           0       -1.222546   -0.654028    1.613654
     17          1           0       -1.921761   -2.122674    0.941019
     18          1           0        0.481656   -2.451592    1.297560
     19          1           0        0.114923   -2.518112   -0.431851
     20          1           0        1.327633   -1.055794   -1.946959
     21          1           0        2.956066    1.124305   -1.737946
     22          1           0        2.975647    1.785468    0.904885
     23          1           0        1.381854   -0.043145    2.144815
 ---------------------------------------------------------------------

 SCF Done:  E(UB3LYP) =  -765.762540068     A.U. after   30 cycles

 The electronic state is 2-A.
 Alpha  occ. eigenvalues --  -88.73016 -14.25673 -10.10848 -10.09298 -10.08988
 Alpha  occ. eigenvalues --  -10.08707 -10.08326 -10.05892 -10.05572 -10.05443
 Alpha  occ. eigenvalues --   -7.81621  -5.78017  -5.77643  -5.76998  -0.88351
 Alpha  occ. eigenvalues --   -0.72093  -0.69029  -0.64168  -0.62090  -0.58443
 Alpha  occ. eigenvalues --   -0.53328  -0.47840  -0.46988  -0.44552  -0.42242
 Alpha  occ. eigenvalues --   -0.37018  -0.35924  -0.34266  -0.32930  -0.31820
 Alpha  occ. eigenvalues --   -0.30842  -0.29302  -0.28574  -0.27775  -0.27478
 Alpha  occ. eigenvalues --   -0.26624  -0.26032  -0.23356  -0.19623  -0.14063
 Alpha  occ. eigenvalues --   -0.12128  -0.11513   0.04901
 Alpha virt. eigenvalues --    0.07140   0.07814   0.08152   0.09606   0.09670
 Alpha virt. eigenvalues --    0.09864   0.10591   0.11262   0.12071   0.12644
 Alpha virt. eigenvalues --    0.13056   0.14192   0.14308   0.14974   0.15119

  Beta  occ. eigenvalues --  -88.73013 -14.25676 -10.10806 -10.09256 -10.08983
  Beta  occ. eigenvalues --  -10.08695 -10.08291 -10.05860 -10.05567 -10.05436
  Beta  occ. eigenvalues --   -7.81618  -5.78014  -5.77638  -5.76997  -0.88336
  Beta  occ. eigenvalues --   -0.72052  -0.69002  -0.64125  -0.62049  -0.58392
  Beta  occ. eigenvalues --   -0.53255  -0.47807  -0.46960  -0.44484  -0.42166
  Beta  occ. eigenvalues --   -0.36966  -0.35885  -0.34220  -0.32890  -0.31787
  Beta  occ. eigenvalues --   -0.30797  -0.29268  -0.28528  -0.27750  -0.27438
  Beta  occ. eigenvalues --   -0.26567  -0.26003  -0.23319  -0.19592  -0.14045
  Beta  occ. eigenvalues --   -0.12107  -0.11468
  Beta virt. eigenvalues --    0.07188   0.08248   0.08414   0.08613   0.10097
  Beta virt. eigenvalues --    0.10404   0.10650   0.10990   0.11576   0.12375
  Beta virt. eigenvalues --    0.13037   0.13507   0.14479   0.14773   0.15236

 Mulliken charges and spin densities:
               1          2
     1  C    0.458909  -1.061574
     2  C   -0.718235   0.538925
     3  S    0.326327  -0.278472
     4  C    0.881571  -1.072454
     5  C    0.147495  -0.569430
     6  N    0.052722   0.130984
     7  C   -0.502977   0.235078
     8  C    0.569691  -0.756860
     9  C    0.079319  -0.336267
    10  C    0.594675  -0.819292
    11  H   -0.059913   0.188029
    12  H   -0.237843   0.370935
    13  H   -0.164178   0.298586
    14  H    0.016654   0.189986
    15  H    0.369244  -0.190796
    16  H    0.032500   0.128245
    17  H   -0.784740   1.021250
    18  H   -0.756242   0.959414
    19  H   -0.388803   0.526964
    20  H   -0.009352   0.137062
    21  H    0.006221   0.134368
    22  H   -0.280918   0.428990
    23  H   -0.632125   0.796326
 Sum of Mulliken charges =  -1.00000   1.00000

 Dipole moment (field-independent basis, Debye):
    X=              0.9147    Y=              3.2958    Z=             -5.4878  Tot=              6.4665
 Quadrupole moment (field-independent basis, Debye-Ang):
   XX=           -112.5101   YY=           -120.6611   ZZ=           -108.4233
   XY=             -3.3856   XZ=             -0.7361   YZ=              4.8425

 Summary of Natural Population Analysis:

                                       Natural Population
                Natural  -----------------------------------------------
    Atom  No    Charge         Core      Valence    Rydberg      Total
 -----------------------------------------------------------------------
      C    1   -0.29002      0.99965     2.28439    0.00598     3.29002
      C    2   -0.25246      0.99959     2.24303    0.00984     3.25246
      S    3    0.08031      4.99963     2.90235    0.01772     7.91969
      C    4   -0.25976      0.99959     2.24814    0.01203     3.25976
      C    5   -0.08392      0.99958     2.07015    0.01419     3.08392
      N    6   -0.20913      0.99966     2.69585    0.01362     3.70913
      C    7   -0.01846      0.99955     2.00679    0.01212     3.01846
      C    8   -0.15464      0.99957     2.14577    0.00931     3.15464
      C    9   -0.14899      0.99957     2.13921    0.01021     3.14899
      C   10   -0.01670      0.99954     2.00366    0.01350     3.01670
      H   11    0.09748      0.00000     0.40109    0.00143     0.40252
      H   12    0.10079      0.00000     0.39784    0.00137     0.39921
      H   13    0.10124      0.00000     0.39716    0.00160     0.39876
      H   14    0.09853      0.00000     0.40040    0.00107     0.40147
      H   15    0.11029      0.00000     0.38690    0.00281     0.38971
      H   16    0.10682      0.00000     0.39058    0.00260     0.39318
      H   17    0.11449      0.00000     0.38219    0.00332     0.38551
      H   18    0.10748      0.00000     0.38746    0.00505     0.39252
      H   19    0.10205      0.00000     0.39591    0.00204     0.39795
      H   20    0.10237      0.00000     0.39653    0.00109     0.39763
      H   21    0.10221      0.00000     0.39712    0.00067     0.39779
      H   22    0.10410      0.00000     0.39508    0.00082     0.39590
      H   23    0.10591      0.00000     0.39169    0.00240     0.39409
 =======================================================================
   * Total *   -0.00000     13.99592    27.85929    0.14479    42.00000

 Normal termination of Gaussian 16 at Tue Dec  8 14:02:50 2020.
