 Gaussian 16, Revision A.03,

 -----------------------------------------------------------
 # opt freq B3LYP/6-31G(d) empiricaldispersion=gd3bj scf=xqc
 -----------------------------------------------------------

 -----------------------------
 CID_87973036_JID_429_neutraal
 -----------------------------
 Symbolic Z-matrix:
 Charge =  0 Multiplicity = 1

 SCF Done:  E(RB3LYP) =  -463.640030946     A.U. after   14 cycles
 SCF Done:  E(RB3LYP) =  -463.664117420     A.U. after   12 cycles
 SCF Done:  E(RB3LYP) =  -463.675649226     A.U. after   12 cycles
 SCF Done:  E(RB3LYP) =  -463.676550750     A.U. after   12 cycles
 SCF Done:  E(RB3LYP) =  -463.677089198     A.U. after   12 cycles
 SCF Done:  E(RB3LYP) =  -463.677489576     A.U. after   11 cycles
 SCF Done:  E(RB3LYP) =  -463.677750993     A.U. after   11 cycles
 SCF Done:  E(RB3LYP) =  -463.677961317     A.U. after   11 cycles
 SCF Done:  E(RB3LYP) =  -463.678128458     A.U. after   11 cycles
 SCF Done:  E(RB3LYP) =  -463.678199274     A.U. after   11 cycles
 SCF Done:  E(RB3LYP) =  -463.680700088     A.U. after    8 cycles
 SCF Done:  E(RB3LYP) =  -463.680700236     A.U. after    8 cycles
 SCF Done:  E(RB3LYP) =  -463.680700260     A.U. after    7 cycles
 SCF Done:  E(RB3LYP) =  -463.680700288     A.U. after    7 cycles
 SCF Done:  E(RB3LYP) =  -463.680700296     A.U. after    6 cycles
 Optimization completed.
    -- Stationary point found.

 1\1\GINC-NODE223\FOpt\RB3LYP\6-31G(d)\C8H14O2\VSC10255\08-Dec-2020\0\\
 # opt freq B3LYP/6-31G(d) empiricaldispersion=gd3bj scf=xqc\\CID_87973
 036_JID_429_neutraal\\0,1\C,1.1434424043,0.1498902951,-0.1180612804\C,
 0.468443259,0.2303644291,0.9984341675\C,-0.2271733217,0.2940236369,2.1
 083273377\C,-1.4974264641,1.0922544883,2.2906546324\C,-2.7139813638,0.
 2051336851,2.5769155002\C,-3.2037065675,-0.6295169412,1.3840813346\C,-
 4.7166097519,-0.6852229895,1.6265327859\C,-4.9812306155,0.7071371995,2
 .202840444\O,-3.8132481259,1.049148676,2.9550463462\O,-0.729043087,-2.

 Normal termination of Gaussian 16 at Tue Dec  8 11:18:39 2020.

 --------------------------------------------------------------------
 #N Geom=AllCheck Guess=TCheck SCRF=Check GenChk RB3LYP/6-31G(d) Freq
 --------------------------------------------------------------------

 Structure from the checkpoint file:  "JID_429.chk"
 -----------------------------
 CID_87973036_JID_429_neutraal
 -----------------------------
 Charge =  0 Multiplicity = 1

 SCF Done:  E(RB3LYP) =  -463.680700296     A.U. after    1 cycles

  Exact polarizability: 122.130   3.307  79.389  13.014   2.941  78.297
 Approx polarizability: 154.951  14.392 110.171  28.115   9.338 122.513

                      1                      2                      3
                      A                      A                      A
 Frequencies --     26.3198                34.2283                75.1122
 Red. masses --      3.7115                 2.5786                 3.5330
 Frc consts  --      0.0015                 0.0018                 0.0117
 IR Inten    --      3.0159                 0.5303                 6.1274

                      4                      5                      6
                      A                      A                      A
 Frequencies --     89.1585                98.8589               130.0305
 Red. masses --      5.2070                 3.8929                 3.7833
 Frc consts  --      0.0244                 0.0224                 0.0377
 IR Inten    --      6.1115                 1.7769                 2.4566

                      7                      8                      9
                      A                      A                      A
 Frequencies --    171.6059               182.6425               202.1876
 Red. masses --      1.7698                 1.1886                 1.4965
 Frc consts  --      0.0307                 0.0234                 0.0360
 IR Inten    --     35.8453                82.6603                62.8210

                     10                     11                     12
                      A                      A                      A
 Frequencies --    232.7380               254.7780               353.5928
 Red. masses --      1.7467                 2.7666                 4.0249
 Frc consts  --      0.0557                 0.1058                 0.2965
 IR Inten    --      7.7496                 1.7356                 5.2295

                     13                     14                     15
                      A                      A                      A
 Frequencies --    365.2865               432.0890               474.1029
 Red. masses --      1.9791                 2.4600                 1.0597
 Frc consts  --      0.1556                 0.2706                 0.1403
 IR Inten    --      9.4565                 0.5838                86.6508

                     16                     17                     18
                      A                      A                      A
 Frequencies --    561.8683               586.3618               611.5989
 Red. masses --      1.6862                 3.4942                 1.6986
 Frc consts  --      0.3136                 0.7078                 0.3743
 IR Inten    --     11.6070                 9.9481                 2.9482

                     19                     20                     21
                      A                      A                      A
 Frequencies --    686.1003               842.0736               877.5410
 Red. masses --      3.3152                 2.2104                 1.8501
 Frc consts  --      0.9195                 0.9235                 0.8394
 IR Inten    --      8.2301                 0.1858                 7.9092

                     22                     23                     24
                      A                      A                      A
 Frequencies --    887.6466               896.6806               918.5529
 Red. masses --      1.3395                 1.9374                 1.2429
 Frc consts  --      0.6218                 0.9178                 0.6179
 IR Inten    --     38.1987                27.2633                17.6738

                     25                     26                     27
                      A                      A                      A
 Frequencies --    929.2510               944.0667               975.1557
 Red. masses --      1.8080                 2.6842                 2.1283
 Frc consts  --      0.9198                 1.4095                 1.1924
 IR Inten    --     14.5844                 3.8140                10.6249

                     28                     29                     30
                      A                      A                      A
 Frequencies --   1012.9547              1034.7771              1039.9225
 Red. masses --      1.8962                 1.9508                 1.4915
 Frc consts  --      1.1464                 1.2307                 0.9503
 IR Inten    --      3.5510                 5.5469                 0.0778

                     31                     32                     33
                      A                      A                      A
 Frequencies --   1110.3498              1116.0964              1141.2296
 Red. masses --      5.0956                 2.7625                 1.7320
 Frc consts  --      3.7014                 2.0275                 1.3291
 IR Inten    --    162.0646                 5.8695                12.6462

                     34                     35                     36
                      A                      A                      A
 Frequencies --   1161.1402              1202.5472              1219.6928
 Red. masses --      1.8038                 1.4096                 1.4057
 Frc consts  --      1.4329                 1.2010                 1.2321
 IR Inten    --      0.7912                 7.4969                 4.4373

                     37                     38                     39
                      A                      A                      A
 Frequencies --   1245.9804              1284.7758              1308.1335
 Red. masses --      1.3592                 1.2441                 1.2543
 Frc consts  --      1.2433                 1.2099                 1.2646
 IR Inten    --      1.8276                 3.2731                 2.8294

                     40                     41                     42
                      A                      A                      A
 Frequencies --   1334.0828              1360.4216              1378.6031
 Red. masses --      1.3140                 1.2763                 1.3000
 Frc consts  --      1.3779                 1.3917                 1.4557
 IR Inten    --      1.0511                 0.2528                 0.7388

                     43                     44                     45
                      A                      A                      A
 Frequencies --   1397.8641              1411.3696              1422.0134
 Red. masses --      1.3697                 1.3743                 1.4262
 Frc consts  --      1.5769                 1.6129                 1.6991
 IR Inten    --      0.6644                10.9450                13.6178

                     46                     47                     48
                      A                      A                      A
 Frequencies --   1500.3964              1509.6975              1518.3089
 Red. masses --      1.5349                 1.0976                 1.0900
 Frc consts  --      2.0358                 1.4739                 1.4804
 IR Inten    --      5.3915                 3.6096                 6.3139

                     49                     50                     51
                      A                      A                      A
 Frequencies --   1529.4874              1560.5409              1715.1813
 Red. masses --      1.1037                 1.0975                 1.0806
 Frc consts  --      1.5213                 1.5747                 1.8731
 IR Inten    --      3.3760                 3.9468                58.9664

                     52                     53                     54
                      A                      A                      A
 Frequencies --   2068.0658              2983.6816              3006.5510
 Red. masses --     10.1248                 1.0842                 1.0716
 Frc consts  --     25.5133                 5.6867                 5.7074
 IR Inten    --     37.2995                68.8972                65.4091

                     55                     56                     57
                      A                      A                      A
 Frequencies --   3050.9450              3054.5665              3064.5799
 Red. masses --      1.0628                 1.0714                 1.0646
 Frc consts  --      5.8289                 5.8895                 5.8906
 IR Inten    --     24.6807                 7.9773                26.9559

                     58                     59                     60
                      A                      A                      A
 Frequencies --   3089.5315              3106.1092              3121.7833
 Red. masses --      1.0923                 1.0989                 1.1018
 Frc consts  --      6.1428                 6.2466                 6.3266
 IR Inten    --     69.5768                 8.7454                30.0732

                     61                     62                     63
                      A                      A                      A
 Frequencies --   3126.9103              3142.8856              3146.2314
 Red. masses --      1.0886                 1.0963                 1.0581
 Frc consts  --      6.2712                 6.3804                 6.1709
 IR Inten    --     19.8612                10.7587                 3.9790

                     64                     65                     66
                      A                      A                      A
 Frequencies --   3222.1289              3693.4433              3816.6310
 Red. masses --      1.1161                 1.0477                 1.0789
 Frc consts  --      6.8269                 8.4205                 9.2595
 IR Inten    --      1.5789                81.7758                83.7407

 - Thermochemistry -
 -------------------
 Temperature   298.150 Kelvin.  Pressure   1.00000 Atm.
 Atom     1 has atomic number  6 and mass  12.00000

 Molecular mass:   142.09938 amu.
 Principal axes and moments of inertia in atomic units:
                           1         2         3
     Eigenvalues --   922.819202611.014293244.59139
           X            0.99995  -0.00961  -0.00278
           Y            0.00959   0.99993  -0.00699
           Z            0.00285   0.00696   0.99997
 This molecule is an asymmetric top.
 Rotational symmetry number  1.
 Warning -- assumption of classical behavior for rotation
           may cause significant error
 Rotational temperatures (Kelvin)      0.09386     0.03317     0.02669
 Rotational constants (GHZ):           1.95568     0.69120     0.55623
 Zero-point vibrational energy     544595.4 (Joules/Mol)
                                  130.16142 (Kcal/Mol)
 Warning -- explicit consideration of  18 degrees of freedom as
           vibrations may cause significant error
 Vibrational temperatures:     37.87    49.25   108.07   128.28   142.24
          (Kelvin)            187.08   246.90   262.78   290.90   334.86
                              366.57   508.74   525.57   621.68   682.13
                              808.40   843.64   879.95   987.15  1211.56
                             1262.59  1277.13  1290.12  1321.59  1336.99
                             1358.30  1403.03  1457.42  1488.81  1496.22
                             1597.55  1605.81  1641.97  1670.62  1730.20
                             1754.87  1792.69  1848.51  1882.11  1919.45
                             1957.34  1983.50  2011.21  2030.65  2045.96
                             2158.74  2172.12  2184.51  2200.59  2245.27
                             2467.76  2975.49  4292.85  4325.76  4389.63
                             4394.84  4409.25  4445.15  4469.00  4491.55
                             4498.93  4521.91  4526.73  4635.92  5314.04
                             5491.28

 Zero-point correction=                           0.207425 (Hartree/Particle)
 Thermal correction to Energy=                    0.220307
 Thermal correction to Enthalpy=                  0.221252
 Thermal correction to Gibbs Free Energy=         0.166687
 Sum of electronic and zero-point Energies=           -463.473275
 Sum of electronic and thermal Energies=              -463.460393
 Sum of electronic and thermal Enthalpies=            -463.459449
 Sum of electronic and thermal Free Energies=         -463.514013

                     E (Thermal)             CV                S
                      KCal/Mol        Cal/Mol-Kelvin    Cal/Mol-Kelvin
 Total                  138.245             44.618            114.840
 Electronic               0.000              0.000              0.000
 Translational            0.889              2.981             40.765
 Rotational               0.889              2.981             30.437
 Vibrational            136.468             38.657             43.638
 Vibration     1          0.593              1.985              6.089
 Vibration     2          0.594              1.983              5.568
 Vibration     3          0.599              1.966              4.015
 Vibration     4          0.602              1.957              3.678
 Vibration     5          0.604              1.950              3.477
 Vibration     6          0.612              1.923              2.946
 Vibration     7          0.626              1.877              2.418
 Vibration     8          0.630              1.863              2.301
 Vibration     9          0.639              1.837              2.113
 Vibration    10          0.653              1.791              1.858
 Vibration    11          0.665              1.755              1.697
 Vibration    12          0.730              1.568              1.150
 Vibration    13          0.739              1.544              1.100
 Vibration    14          0.793              1.400              0.852
 Vibration    15          0.831              1.308              0.726
 Vibration    16          0.918              1.114              0.520
 Vibration    17          0.943              1.061              0.474
 Vibration    18          0.971              1.007              0.430

 Optimization completed on the basis of negligible forces.
    -- Stationary point found.

 1\1\GINC-NODE223\Freq\RB3LYP\6-31G(d)\C8H14O2\VSC10255\08-Dec-2020\0\\
 #N Geom=AllCheck Guess=TCheck SCRF=Check GenChk RB3LYP/6-31G(d) Freq\\
 CID_87973036_JID_429_neutraal\\0,1\C,1.1434424043,0.1498902951,-0.1180
 612804\C,0.468443259,0.2303644291,0.9984341675\C,-0.2271733217,0.29402
 36369,2.1083273377\C,-1.4974264641,1.0922544883,2.2906546324\C,-2.7139
 813638,0.2051336851,2.5769155002\C,-3.2037065675,-0.6295169412,1.38408
 13346\C,-4.7166097519,-0.6852229895,1.6265327859\C,-4.9812306155,0.707
 1371995,2.202840444\O,-3.8132481259,1.049148676,2.9550463462\O,-0.7290

 Normal termination of Gaussian 16 at Tue Dec  8 11:24:29 2020.

 ----------------------------------------------------------------------
 # B3LYP/6-311++G(d,p) empiricaldispersion=gd3bj scf=xqc pop=npa geom=c
 heck
 ----------------------------------------------------------------------

 -------------------------------------
 CID_87973036_JID_429_Energie_neutraal
 -------------------------------------
 Structure from the checkpoint file:  "JID_429.chk"
 Charge =  0 Multiplicity = 1

 SCF Done:  E(RB3LYP) =  -463.836291016     A.U. after   13 cycles
 Normal termination of Gaussian 16 at Tue Dec  8 11:28:08 2020.

 ----------------------------------------------------------------------
 # B3LYP/6-311++G(d,p) empiricaldispersion=gd3bj scf=xqc pop=npa geom=c
 heck
 ----------------------------------------------------------------------

 -----------------------------------
 CID_87973036_JID_429_Energie_kation
 -----------------------------------
 Structure from the checkpoint file:  "JID_429.chk"
 Charge =  1 Multiplicity = 2

 SCF Done:  E(UB3LYP) =  -463.514097994     A.U. after   23 cycles
 Normal termination of Gaussian 16 at Tue Dec  8 11:34:10 2020.
 Gaussian 16:  ES64L-G16RevA.03 25-Dec-2016

 ----------------------------------
 CID_87973036_JID_429_Energie_anion
 ----------------------------------
 Structure from the checkpoint file:  "JID_429.chk"
 Charge = -1 Multiplicity = 2

                         Standard orientation:
 ---------------------------------------------------------------------
 Center     Atomic      Atomic             Coordinates (Angstroms)
 Number     Number       Type             X           Y           Z
 ---------------------------------------------------------------------
      1          6           0        3.498064   -0.492026    0.863705
      2          6           0        2.479903   -0.831870    0.117704
      3          6           0        1.447844   -1.148121   -0.627034
      4          6           0        0.073940   -1.495503   -0.101988
      5          6           0       -0.994655   -0.486509   -0.536695
      6          6           0       -0.896592    0.892030    0.133633
      7          6           0       -2.367732    1.314492    0.223263
      8          6           0       -3.049160   -0.024744    0.511227
      9          8           0       -2.285173   -1.012204   -0.187497
     10          8           0        2.154773    2.294563   -0.343460
     11          1           0        3.673050    0.551632    1.117348
     12          1           0        4.197772   -1.230504    1.249804
     13          1           0        1.575886   -1.175974   -1.711541
     14          1           0       -0.219537   -2.482168   -0.482721
     15          1           0        0.087215   -1.555941    0.991072
     16          1           0       -0.957793   -0.376826   -1.632982
     17          1           0       -0.469163    0.786972    1.139104
     18          1           0       -0.270155    1.597690   -0.416277
     19          1           0       -2.558008    2.066506    0.994691
     20          1           0       -2.709558    1.716988   -0.737532
     21          1           0       -3.045066   -0.244554    1.590057
     22          1           0       -4.084372   -0.076235    0.156971
     23          1           0        1.943563    1.347534   -0.405213
     24          1           0        2.729693    2.449523   -1.108021
 ---------------------------------------------------------------------

 SCF Done:  E(UB3LYP) =  -463.822051167     A.U. after   33 cycles
 SCF Done:  E(UB3LYP) =  -463.822051167     a.u. after    1 cycles

 The electronic state is 2-A.
 Alpha  occ. eigenvalues --  -19.01668 -19.00031 -10.11637 -10.11473 -10.08516
 Alpha  occ. eigenvalues --  -10.08170 -10.07430 -10.07159 -10.07099 -10.06260
 Alpha  occ. eigenvalues --   -0.93343  -0.88781  -0.71449  -0.68264  -0.66505
 Alpha  occ. eigenvalues --   -0.61469  -0.55262  -0.49819  -0.46899  -0.42440
 Alpha  occ. eigenvalues --   -0.40862  -0.39600  -0.38712  -0.36447  -0.34539
 Alpha  occ. eigenvalues --   -0.33505  -0.32884  -0.31627  -0.29617  -0.27147
 Alpha  occ. eigenvalues --   -0.26990  -0.25373  -0.24505  -0.23456  -0.21796
 Alpha  occ. eigenvalues --   -0.19147  -0.17096  -0.16224  -0.14666   0.04797
 Alpha virt. eigenvalues --    0.06738   0.07862   0.08299   0.08850   0.09457
 Alpha virt. eigenvalues --    0.10090   0.10478   0.10979   0.11122   0.11887
 Alpha virt. eigenvalues --    0.12482   0.13126   0.14070   0.14440   0.15267

  Beta  occ. eigenvalues --  -19.01668 -18.99972 -10.11620 -10.11457 -10.08483
  Beta  occ. eigenvalues --  -10.08144 -10.07418 -10.07122 -10.07081 -10.06245
  Beta  occ. eigenvalues --   -0.93335  -0.88625  -0.71385  -0.68231  -0.66451
  Beta  occ. eigenvalues --   -0.61413  -0.55192  -0.49768  -0.46840  -0.42372
  Beta  occ. eigenvalues --   -0.40765  -0.39548  -0.38666  -0.36393  -0.34494
  Beta  occ. eigenvalues --   -0.33460  -0.32831  -0.31589  -0.29585  -0.27080
  Beta  occ. eigenvalues --   -0.26924  -0.25340  -0.24474  -0.23420  -0.21780
  Beta  occ. eigenvalues --   -0.19080  -0.16972  -0.16179  -0.14625
  Beta virt. eigenvalues --    0.07006   0.07703   0.08450   0.08966   0.09192
  Beta virt. eigenvalues --    0.09890   0.10341   0.10927   0.11324   0.11708
  Beta virt. eigenvalues --    0.12067   0.12766   0.13354   0.14283   0.14754

 Mulliken charges and spin densities:
               1          2
     1  C   -1.050814   0.695188
     2  C    1.599952  -1.336221
     3  C   -0.287616   0.139032
     4  C    1.035390  -1.408189
     5  C   -1.332324   0.940589
     6  C    0.805477  -1.094940
     7  C   -0.471876   0.151046
     8  C    0.672229  -0.926002
     9  O   -0.148204   0.024481
    10  O   -0.450968  -0.049823
    11  H   -0.107279   0.294328
    12  H   -0.181737   0.305123
    13  H   -1.058853   1.298773
    14  H    0.081244   0.096614
    15  H   -0.130164   0.293981
    16  H   -0.275831   0.470621
    17  H   -0.022987   0.188495
    18  H   -0.007988   0.198156
    19  H   -0.088319   0.228902
    20  H   -0.106109   0.257595
    21  H   -0.004164   0.127712
    22  H   -0.185382   0.344715
    23  H    1.164342  -0.973140
    24  H   -0.448020   0.732964
 Sum of Mulliken charges =  -1.00000   1.00000

 Dipole moment (field-independent basis, Debye):
    X=             -3.6674    Y=             -2.1927    Z=              3.9779  Tot=              5.8379
 Quadrupole moment (field-independent basis, Debye-Ang):
   XX=           -122.5987   YY=           -101.6391   ZZ=            -95.5298
   XY=             -7.5762   XZ=              6.1871   YZ=             -0.0218

 Summary of Natural Population Analysis:

                                       Natural Population
                Natural  -----------------------------------------------
    Atom  No    Charge         Core      Valence    Rydberg      Total
 -----------------------------------------------------------------------
      C    1   -0.23260      0.99950     2.22660    0.00650     3.23260
      C    2    0.03172      0.99952     1.95866    0.01011     2.96828
      C    3   -0.14056      0.99945     2.12995    0.01116     3.14056
      C    4   -0.20316      0.99958     2.19131    0.01227     3.20316
      C    5    0.07157      0.99954     1.91410    0.01479     2.92843
      C    6   -0.20911      0.99961     2.19990    0.00960     3.20911
      C    7   -0.20155      0.99964     2.19554    0.00638     3.20155
      C    8   -0.00603      0.99960     1.99588    0.01055     3.00603
      O    9   -0.30890      0.99989     3.30010    0.00892     4.30890
      O   10   -0.46800      0.99991     3.46275    0.00535     4.46800
      H   11    0.11429      0.00000     0.38432    0.00140     0.38571
      H   12    0.10250      0.00000     0.39635    0.00114     0.39750
      H   13    0.11468      0.00000     0.37959    0.00572     0.38532
      H   14    0.10662      0.00000     0.39202    0.00136     0.39338
      H   15    0.10066      0.00000     0.39783    0.00151     0.39934
      H   16    0.08396      0.00000     0.41374    0.00230     0.41604
      H   17    0.09627      0.00000     0.40232    0.00141     0.40373
      H   18    0.11872      0.00000     0.37990    0.00138     0.38128
      H   19    0.10185      0.00000     0.39694    0.00121     0.39815
      H   20    0.09762      0.00000     0.40092    0.00146     0.40238
      H   21    0.07524      0.00000     0.42294    0.00181     0.42476
      H   22    0.08577      0.00000     0.41239    0.00184     0.41423
      H   23    0.23546      0.00000     0.26054    0.00399     0.26454
      H   24    0.23299      0.00000     0.25734    0.00967     0.26701
 =======================================================================
   * Total *    0.00000      9.99623    28.87193    0.13184    39.00000

 Normal termination of Gaussian 16 at Tue Dec  8 11:42:26 2020.
