 Gaussian 16, Revision A.03,

 -----------------------------------------------------------
 # opt freq B3LYP/6-31G(d) empiricaldispersion=gd3bj scf=xqc
 -----------------------------------------------------------

 -----------------------------
 CID_6378203_JID_1700_neutraal
 -----------------------------
 Symbolic Z-matrix:
 Charge =  0 Multiplicity = 1

 SCF Done:  E(RB3LYP) =  -548.700721337     A.U. after   16 cycles
 SCF Done:  E(RB3LYP) =  -548.729109379     A.U. after   14 cycles
 SCF Done:  E(RB3LYP) =  -548.730833067     A.U. after   13 cycles
 SCF Done:  E(RB3LYP) =  -548.731130410     A.U. after   12 cycles
 SCF Done:  E(RB3LYP) =  -548.731023881     A.U. after   12 cycles
 SCF Done:  E(RB3LYP) =  -548.731210151     A.U. after   11 cycles
 SCF Done:  E(RB3LYP) =  -548.731252543     A.U. after   11 cycles
 SCF Done:  E(RB3LYP) =  -548.731271973     A.U. after   10 cycles
 SCF Done:  E(RB3LYP) =  -548.731305589     A.U. after   11 cycles
 SCF Done:  E(RB3LYP) =  -548.731352355     A.U. after   12 cycles
 SCF Done:  E(RB3LYP) =  -548.739099241     A.U. after   11 cycles
 SCF Done:  E(RB3LYP) =  -548.739127778     A.U. after   10 cycles
 SCF Done:  E(RB3LYP) =  -548.739161607     A.U. after   11 cycles
 SCF Done:  E(RB3LYP) =  -548.739165625     A.U. after   10 cycles
 SCF Done:  E(RB3LYP) =  -548.739166690     A.U. after    9 cycles
 SCF Done:  E(RB3LYP) =  -548.739166849     A.U. after    8 cycles
 Optimization completed.
    -- Stationary point found.
 Normal termination of Gaussian 16 at Tue Dec  8 20:53:58 2020.

 --------------------------------------------------------------------
 #N Geom=AllCheck Guess=TCheck SCRF=Check GenChk RB3LYP/6-31G(d) Freq
 --------------------------------------------------------------------

 Structure from the checkpoint file:  "JID_1700.chk"
 -----------------------------
 CID_6378203_JID_1700_neutraal
 -----------------------------
 Charge =  0 Multiplicity = 1

 SCF Done:  E(RB3LYP) =  -548.739166849     A.U. after    1 cycles

  Exact polarizability: 102.991  -3.954 119.273   3.883   0.999  51.458
 Approx polarizability: 132.942 -11.152 204.228   7.759   2.525  72.623

                      1                      2                      3
                      A                      A                      A
 Frequencies --     47.7721                66.4681                89.2633
 Red. masses --      3.4365                 5.1094                 4.7477
 Frc consts  --      0.0046                 0.0133                 0.0223
 IR Inten    --      0.4434                 0.6748                 0.6980

                      4                      5                      6
                      A                      A                      A
 Frequencies --    113.1675               137.7248               151.7502
 Red. masses --      5.5167                 6.8511                 2.9340
 Frc consts  --      0.0416                 0.0766                 0.0398
 IR Inten    --      0.8207                 3.4043                 0.4529

                      7                      8                      9
                      A                      A                      A
 Frequencies --    179.6292               230.2465               232.3728
 Red. masses --      2.4129                 1.5278                 1.4201
 Frc consts  --      0.0459                 0.0477                 0.0452
 IR Inten    --     24.8838                 5.0537                 2.5824

                     10                     11                     12
                      A                      A                      A
 Frequencies --    296.5974               343.6917               393.9365
 Red. masses --      3.5941                 2.8012                 2.5255
 Frc consts  --      0.1863                 0.1950                 0.2309
 IR Inten    --      0.5459                 7.9742                10.7929

                     13                     14                     15
                      A                      A                      A
 Frequencies --    412.9156               425.2058               494.4531
 Red. masses --      4.9240                 4.7422                 4.3589
 Frc consts  --      0.4946                 0.5052                 0.6279
 IR Inten    --     19.2730                 8.8909                 2.2179

                     16                     17                     18
                      A                      A                      A
 Frequencies --    527.1062               535.0081               634.7398
 Red. masses --      9.1831                 9.0714                 1.2613
 Frc consts  --      1.5033                 1.5298                 0.2994
 IR Inten    --      1.6162                 0.2007                93.9846

                     19                     20                     21
                      A                      A                      A
 Frequencies --    703.1840               762.9549               804.2332
 Red. masses --      4.3980                11.2758                 1.3467
 Frc consts  --      1.2813                 3.8672                 0.5132
 IR Inten    --      0.1255                26.0302                 4.2347

                     22                     23                     24
                      A                      A                      A
 Frequencies --    878.0522               891.5263               907.1327
 Red. masses --      3.2042                 2.9447                 1.6248
 Frc consts  --      1.4555                 1.3790                 0.7877
 IR Inten    --      4.8650                 2.0178               111.1762

                     25                     26                     27
                      A                      A                      A
 Frequencies --    981.6805              1034.6833              1123.6374
 Red. masses --      1.3088                 3.5103                 3.5599
 Frc consts  --      0.7431                 2.2141                 2.6481
 IR Inten    --     18.3339                 6.7746                86.9152

                     28                     29                     30
                      A                      A                      A
 Frequencies --   1134.1093              1189.8679              1208.5341
 Red. masses --      2.6853                 4.0106                 1.7476
 Frc consts  --      2.0350                 3.3455                 1.5039
 IR Inten    --    170.6003               223.2620                24.2355

                     31                     32                     33
                      A                      A                      A
 Frequencies --   1276.2017              1343.8778              1345.6812
 Red. masses --      2.9429                 1.1100                 1.1366
 Frc consts  --      2.8240                 1.1812                 1.2127
 IR Inten    --     50.8296                 6.3762                 0.6345

                     34                     35                     36
                      A                      A                      A
 Frequencies --   1356.4548              1404.6543              1426.6839
 Red. masses --      1.6429                 1.5920                 2.2419
 Frc consts  --      1.7810                 1.8507                 2.6886
 IR Inten    --    146.8115                42.0232                38.5592

                     37                     38                     39
                      A                      A                      A
 Frequencies --   1443.1030              1473.6062              1515.0636
 Red. masses --      1.3760                 1.4927                 1.0552
 Frc consts  --      1.6883                 1.9098                 1.4271
 IR Inten    --     12.7594                38.1171                16.0245

                     40                     41                     42
                      A                      A                      A
 Frequencies --   1518.9832              1537.9500              1692.9576
 Red. masses --      1.0813                 1.0573                 3.5856
 Frc consts  --      1.4699                 1.4734                 6.0548
 IR Inten    --     10.1162                 8.9545               430.1154

                     43                     44                     45
                      A                      A                      A
 Frequencies --   1717.1771              1803.7519              2345.3078
 Red. masses --      1.0860                11.4656                12.6704
 Frc consts  --      1.8867                21.9786                41.0620
 IR Inten    --     16.2634               301.9478                66.1403

                     46                     47                     48
                      A                      A                      A
 Frequencies --   3062.2109              3097.9563              3126.8660
 Red. masses --      1.0365                 1.0601                 1.1024
 Frc consts  --      5.7265                 5.9945                 6.3504
 IR Inten    --     16.2351                27.5358                23.9232

                     49                     50                     51
                      A                      A                      A
 Frequencies --   3146.5124              3163.8137              3197.9919
 Red. masses --      1.1023                 1.1076                 1.0908
 Frc consts  --      6.4300                 6.5323                 6.5726
 IR Inten    --      7.7901                19.3133                 1.8272

                     52                     53                     54
                      A                      A                      A
 Frequencies --   3455.4175              3546.3073              3608.2590
 Red. masses --      1.0455                 1.0987                 1.0778
 Frc consts  --      7.3549                 8.1414                 8.2680
 IR Inten    --      6.7795                 1.4447               101.1332

 - Thermochemistry -
 -------------------
 Temperature   298.150 Kelvin.  Pressure   1.00000 Atm.
 Atom     1 has atomic number  6 and mass  12.00000

 Molecular mass:   155.06948 amu.
 Principal axes and moments of inertia in atomic units:
                           1         2         3
     Eigenvalues --  1581.381802052.904173461.44406
           X            0.99848  -0.05453  -0.00757
           Y            0.05451   0.99851  -0.00281
           Z            0.00771   0.00239   0.99997
 This molecule is an asymmetric top.
 Rotational symmetry number  1.
 Warning -- assumption of classical behavior for rotation
           may cause significant error
 Rotational temperatures (Kelvin)      0.05477     0.04219     0.02502
 Rotational constants (GHZ):           1.14124     0.87912     0.52138
 Zero-point vibrational energy     415932.2 (Joules/Mol)
                                   99.41018 (Kcal/Mol)
 Warning -- explicit consideration of  17 degrees of freedom as
           vibrations may cause significant error
 Vibrational temperatures:     68.73    95.63   128.43   162.82   198.16
          (Kelvin)            218.33   258.45   331.27   334.33   426.74
                              494.50   566.79   594.09   611.78   711.41
                              758.39   769.76   913.25  1011.72  1097.72
                             1157.11  1263.32  1282.71  1305.16  1412.42
                             1488.68  1616.66  1631.73  1711.95  1738.81
                             1836.17  1933.54  1936.14  1951.64  2020.98
                             2052.68  2076.30  2120.19  2179.84  2185.48
                             2212.77  2435.79  2470.63  2595.20  3374.37
                             4405.84  4457.27  4498.86  4527.13  4552.02
                             4601.20  4971.58  5102.35  5191.48

 Zero-point correction=                           0.158420 (Hartree/Particle)
 Thermal correction to Energy=                    0.170428
 Thermal correction to Enthalpy=                  0.171372
 Thermal correction to Gibbs Free Energy=         0.119663
 Sum of electronic and zero-point Energies=           -548.580747
 Sum of electronic and thermal Energies=              -548.568739
 Sum of electronic and thermal Enthalpies=            -548.567795
 Sum of electronic and thermal Free Energies=         -548.619504

                     E (Thermal)             CV                S
                      KCal/Mol        Cal/Mol-Kelvin    Cal/Mol-Kelvin
 Total                  106.945             41.863            108.832
 Electronic               0.000              0.000              0.000
 Translational            0.889              2.981             41.026
 Rotational               0.889              2.981             30.797
 Vibrational            105.168             35.902             37.009
 Vibration     1          0.595              1.978              4.908
 Vibration     2          0.598              1.970              4.255
 Vibration     3          0.602              1.957              3.676
 Vibration     4          0.607              1.939              3.214
 Vibration     5          0.614              1.916              2.835
 Vibration     6          0.619              1.901              2.650
 Vibration     7          0.629              1.867              2.332
 Vibration     8          0.652              1.795              1.877
 Vibration     9          0.653              1.791              1.861
 Vibration    10          0.690              1.680              1.436
 Vibration    11          0.722              1.588              1.195
 Vibration    12          0.761              1.483              0.985
 Vibration    13          0.777              1.442              0.916
 Vibration    14          0.787              1.415              0.874
 Vibration    15          0.850              1.262              0.672
 Vibration    16          0.882              1.190              0.594
 Vibration    17          0.890              1.173              0.576

 Optimization completed.
    -- Stationary point found.
 Normal termination of Gaussian 16 at Tue Dec  8 20:57:20 2020.

 ----------------------------------------------------------------------
 # B3LYP/6-311++G(d,p) empiricaldispersion=gd3bj scf=xqc pop=npa geom=c
 heck
 ----------------------------------------------------------------------

 -------------------------------------
 CID_6378203_JID_1700_Energie_neutraal
 -------------------------------------
 Structure from the checkpoint file:  "JID_1700.chk"
 Charge =  0 Multiplicity = 1

 SCF Done:  E(RB3LYP) =  -548.909615067     A.U. after   15 cycles
 Normal termination of Gaussian 16 at Tue Dec  8 20:58:56 2020.

 ----------------------------------------------------------------------
 # B3LYP/6-311++G(d,p) empiricaldispersion=gd3bj scf=xqc pop=npa geom=c
 heck
 ----------------------------------------------------------------------

 -----------------------------------
 CID_6378203_JID_1700_Energie_kation
 -----------------------------------
 Structure from the checkpoint file:  "JID_1700.chk"
 Charge =  1 Multiplicity = 2

 SCF Done:  E(UB3LYP) =  -548.589116390     A.U. after   23 cycles
 Normal termination of Gaussian 16 at Tue Dec  8 21:03:49 2020.
 Gaussian 16:  ES64L-G16RevA.03 25-Dec-2016

 ----------------------------------------------------------------------
 # B3LYP/6-311++G(d,p) empiricaldispersion=gd3bj scf=xqc pop=npa geom=c
 heck
 ----------------------------------------------------------------------

 ----------------------------------
 CID_6378203_JID_1700_Energie_anion
 ----------------------------------
 Structure from the checkpoint file:  "JID_1700.chk"
 Charge = -1 Multiplicity = 2

                         Standard orientation:
 ---------------------------------------------------------------------
 Center     Atomic      Atomic             Coordinates (Angstroms)
 Number     Number       Type             X           Y           Z
 ---------------------------------------------------------------------
      1          6           0       -3.241546   -0.527350    0.821292
      2          6           0       -2.524556   -0.604827   -0.515984
      3          8           0       -1.087075   -0.527046   -0.345186
      4          6           0       -0.568300    0.735685   -0.217822
      5          8           0       -1.248969    1.737792   -0.270383
      6          6           0        0.887961    0.714146   -0.017385
      7          6           0        1.682242   -0.409789    0.059653
      8          7           0        1.310664   -1.695275   -0.031850
      9          7           0        2.191208   -2.784318    0.065831
     10          6           0        1.535029    1.977775    0.115944
     11          7           0        2.101862    2.988222    0.229564
     12          1           0       -2.889148   -1.312195    1.498665
     13          1           0       -4.319245   -0.658498    0.672838
     14          1           0       -3.073625    0.446984    1.286957
     15          1           0       -2.684635   -1.567179   -1.007904
     16          1           0       -2.836530    0.201496   -1.182503
     17          1           0        2.748838   -0.265567    0.214967
     18          1           0        0.333641   -1.917413   -0.173877
     19          1           0        2.892512   -2.725444   -0.670965
     20          1           0        2.665434   -2.762403    0.967372
 ---------------------------------------------------------------------

 SCF Done:  E(UB3LYP) =  -548.914677694     A.U. after   31 cycles

 The electronic state is 2-A.
 Alpha  occ. eigenvalues --  -19.03964 -18.96046 -14.23269 -14.22714 -14.15851
 Alpha  occ. eigenvalues --  -10.15478 -10.12142 -10.07944 -10.06538 -10.06519
 Alpha  occ. eigenvalues --  -10.05298  -0.97245  -0.88311  -0.87822  -0.75942
 Alpha  occ. eigenvalues --   -0.71480  -0.66626  -0.63323  -0.55337  -0.51608
 Alpha  occ. eigenvalues --   -0.45727  -0.42482  -0.40886  -0.40152  -0.37450
 Alpha  occ. eigenvalues --   -0.35847  -0.33764  -0.32895  -0.30775  -0.29314
 Alpha  occ. eigenvalues --   -0.28137  -0.26387  -0.23660  -0.23090  -0.22370
 Alpha  occ. eigenvalues --   -0.20552  -0.19208  -0.18260  -0.16853  -0.14604
 Alpha  occ. eigenvalues --   -0.09562   0.04482
 Alpha virt. eigenvalues --    0.06917   0.07248   0.09132   0.10178   0.11088
 Alpha virt. eigenvalues --    0.11498   0.11819   0.13786   0.14031   0.15282
 Alpha virt. eigenvalues --    0.15607   0.16065   0.16396   0.16904   0.17261

  Beta  occ. eigenvalues --  -19.03934 -18.95860 -14.23066 -14.22688 -14.15851
  Beta  occ. eigenvalues --  -10.15315 -10.12138 -10.07422 -10.06516 -10.06502
  Beta  occ. eigenvalues --  -10.05335  -0.97084  -0.88019  -0.87462  -0.75910
  Beta  occ. eigenvalues --   -0.71075  -0.66534  -0.63112  -0.55109  -0.51008
  Beta  occ. eigenvalues --   -0.45565  -0.42328  -0.40668  -0.39833  -0.37277
  Beta  occ. eigenvalues --   -0.35646  -0.33610  -0.32656  -0.30528  -0.29103
  Beta  occ. eigenvalues --   -0.27679  -0.26245  -0.23160  -0.22536  -0.22351
  Beta  occ. eigenvalues --   -0.19682  -0.19163  -0.17699  -0.16784  -0.14434
  Beta  occ. eigenvalues --   -0.08634
  Beta virt. eigenvalues --    0.07002   0.07832   0.09231   0.10045   0.10269
  Beta virt. eigenvalues --    0.11534   0.11829   0.12188   0.13823   0.14017
  Beta virt. eigenvalues --    0.15591   0.15784   0.16350   0.16481   0.16971

 Mulliken charges and spin densities:
               1          2
     1  C    0.027737  -0.359054
     2  C   -0.144918  -0.030045
     3  O   -0.113402   0.001385
     4  C   -0.381891   0.171859
     5  O   -0.331567   0.062152
     6  C    2.052987  -0.457704
     7  C   -0.855007   0.603611
     8  N   -0.087309  -0.054855
     9  N   -0.402621  -0.028299
    10  C   -0.958073  -0.158141
    11  N   -0.333593   0.003173
    12  H    0.070713   0.062647
    13  H   -0.049401   0.164029
    14  H    0.098128   0.079175
    15  H   -0.093336   0.234736
    16  H    0.178053  -0.010578
    17  H    0.042846   0.155708
    18  H    0.347106   0.002410
    19  H    0.218510   0.005555
    20  H   -0.284962   0.552237
 Sum of Mulliken charges =  -1.00000   1.00000

 Dipole moment (field-independent basis, Debye):
    X=             -3.9425    Y=             -3.7000    Z=             -2.4554  Tot=              5.9382
 Quadrupole moment (field-independent basis, Debye-Ang):
   XX=            -97.9944   YY=           -115.7844   ZZ=            -78.2897
   XY=             -2.4849   XZ=             -7.9179   YZ=              4.9151

 Summary of Natural Population Analysis:

                                       Natural Population
                Natural  -----------------------------------------------
    Atom  No    Charge         Core      Valence    Rydberg      Total
 -----------------------------------------------------------------------
      C    1   -0.29941      0.99966     2.29540    0.00435     3.29941
      C    2   -0.01669      0.99959     2.00477    0.01234     3.01669
      O    3   -0.30403      0.99986     3.29512    0.00904     4.30403
      C    4    0.41459      0.99963     1.55988    0.02589     2.58541
      O    5   -0.30536      0.99987     3.30060    0.00489     4.30536
      C    6   -0.21485      0.99939     2.20608    0.00938     3.21485
      C    7    0.16684      0.99955     1.81956    0.01406     2.83316
      N    8   -0.18419      0.99966     2.67123    0.01330     3.68419
      N    9   -0.32338      0.99978     2.81148    0.01213     3.82338
      C   10    0.17112      0.99964     1.81007    0.01917     2.82888
      N   11   -0.22508      0.99978     2.71419    0.01110     3.72508
      H   12    0.09795      0.00000     0.40066    0.00140     0.40205
      H   13    0.09599      0.00000     0.40285    0.00115     0.40401
      H   14    0.10936      0.00000     0.38949    0.00115     0.39064
      H   15    0.08498      0.00000     0.41386    0.00116     0.41502
      H   16    0.09553      0.00000     0.40324    0.00123     0.40447
      H   17    0.08996      0.00000     0.40868    0.00136     0.41004
      H   18    0.19845      0.00000     0.29930    0.00225     0.30155
      H   19    0.16733      0.00000     0.33103    0.00164     0.33267
      H   20    0.18090      0.00000     0.30826    0.01084     0.31910
 =======================================================================
   * Total *   -0.00000     10.99642    29.84574    0.15784    41.00000

 Normal termination of Gaussian 16 at Tue Dec  8 21:09:07 2020.
