 Gaussian 16, Revision A.03,

 -----------------------------------------------------------
 # opt freq B3LYP/6-31G(d) empiricaldispersion=gd3bj scf=xqc
 -----------------------------------------------------------

 -------------------------------
 CID_112594583_JID_9951_neutraal
 -------------------------------
 Symbolic Z-matrix:
 Charge =  0 Multiplicity = 1

 SCF Done:  E(RB3LYP) =  -1201.23264717     A.U. after   15 cycles
 SCF Done:  E(RB3LYP) =  -1201.24303492     A.U. after   13 cycles
 SCF Done:  E(RB3LYP) =  -1201.24495958     A.U. after   13 cycles
 SCF Done:  E(RB3LYP) =  -1201.24649363     A.U. after   12 cycles
 SCF Done:  E(RB3LYP) =  -1201.24708896     A.U. after   12 cycles
 SCF Done:  E(RB3LYP) =  -1201.24747169     A.U. after   13 cycles
 SCF Done:  E(RB3LYP) =  -1201.24850686     A.U. after   12 cycles
 SCF Done:  E(RB3LYP) =  -1201.24922935     A.U. after   13 cycles
 SCF Done:  E(RB3LYP) =  -1201.24858665     A.U. after   12 cycles
 SCF Done:  E(RB3LYP) =  -1201.24942650     A.U. after   11 cycles
 SCF Done:  E(RB3LYP) =  -1201.24950693     A.U. after   11 cycles
 SCF Done:  E(RB3LYP) =  -1201.24951663     A.U. after   10 cycles
 SCF Done:  E(RB3LYP) =  -1201.24951921     A.U. after    8 cycles
 SCF Done:  E(RB3LYP) =  -1201.24952035     A.U. after    9 cycles
 SCF Done:  E(RB3LYP) =  -1201.24952039     A.U. after    7 cycles
 SCF Done:  E(RB3LYP) =  -1201.24952040     A.U. after    6 cycles
 Optimization completed.
    -- Stationary point found.
 Normal termination of Gaussian 16 at Sat Dec 12 10:19:30 2020.

 --------------------------------------------------------------------
 #N Geom=AllCheck Guess=TCheck SCRF=Check GenChk RB3LYP/6-31G(d) Freq
 --------------------------------------------------------------------

 Structure from the checkpoint file:  "JID_9951.chk"
 -------------------------------
 CID_112594583_JID_9951_neutraal
 -------------------------------
 Charge =  0 Multiplicity = 1

 SCF Done:  E(RB3LYP) =  -1201.24952040     A.U. after    1 cycles

  Exact polarizability: 224.730  -9.511 193.812  15.637  23.837 119.846
 Approx polarizability: 341.423 -26.129 345.033  45.327  59.969 198.989

                      1                      2                      3
                      A                      A                      A
 Frequencies --     32.4395                40.8344                53.4990
 Red. masses --      3.9911                 4.8375                 3.9643
 Frc consts  --      0.0025                 0.0048                 0.0067
 IR Inten    --      1.0802                 1.6853                 0.5219

                      4                      5                      6
                      A                      A                      A
 Frequencies --    121.0315               134.5170               142.4410
 Red. masses --      3.7698                 3.0968                 3.1311
 Frc consts  --      0.0325                 0.0330                 0.0374
 IR Inten    --      0.6312                 0.8228                 1.5618

                      7                      8                      9
                      A                      A                      A
 Frequencies --    165.6992               187.2248               197.8501
 Red. masses --      4.2793                 4.0526                 1.8701
 Frc consts  --      0.0692                 0.0837                 0.0431
 IR Inten    --      2.2766                 0.6571                 1.8859

                     10                     11                     12
                      A                      A                      A
 Frequencies --    198.6865               222.3996               262.3168
 Red. masses --      2.1380                 3.7424                 5.0517
 Frc consts  --      0.0497                 0.1091                 0.2048
 IR Inten    --      1.4204                 2.4688                 0.2825

                     13                     14                     15
                      A                      A                      A
 Frequencies --    284.4946               312.6681               317.3906
 Red. masses --      6.5843                 3.0380                 3.2432
 Frc consts  --      0.3140                 0.1750                 0.1925
 IR Inten    --      0.1590                 2.0188                16.8512

                     16                     17                     18
                      A                      A                      A
 Frequencies --    324.2166               361.6610               376.3862
 Red. masses --      4.7156                 2.8697                 1.4513
 Frc consts  --      0.2921                 0.2212                 0.1211
 IR Inten    --      8.0578                 6.7678                25.8434

                     19                     20                     21
                      A                      A                      A
 Frequencies --    426.0444               436.2303               464.6965
 Red. masses --      3.1531                 5.0131                 3.6321
 Frc consts  --      0.3372                 0.5621                 0.4621
 IR Inten    --     13.2155                 9.1948                20.9664

                     22                     23                     24
                      A                      A                      A
 Frequencies --    480.7246               489.3363               524.8769
 Red. masses --      3.8635                 6.1556                 5.5265
 Frc consts  --      0.5260                 0.8684                 0.8970
 IR Inten    --      4.4566                 5.6663                23.4621

                     25                     26                     27
                      A                      A                      A
 Frequencies --    535.5072               550.6979               584.1720
 Red. masses --      5.5521                 4.6237                 2.7665
 Frc consts  --      0.9381                 0.8262                 0.5562
 IR Inten    --     38.5554                20.3567               215.5799

                     28                     29                     30
                      A                      A                      A
 Frequencies --    594.0858               616.2955               653.8676
 Red. masses --      3.5432                 2.2875                 4.0598
 Frc consts  --      0.7368                 0.5119                 1.0227
 IR Inten    --     16.1984               115.8629                10.4446

                     31                     32                     33
                      A                      A                      A
 Frequencies --    667.0090               704.9409               741.2940
 Red. masses --      3.1452                 6.2818                 4.8582
 Frc consts  --      0.8245                 1.8392                 1.5729
 IR Inten    --    102.2650               114.7045                21.8791

                     34                     35                     36
                      A                      A                      A
 Frequencies --    769.9762               787.7809               793.2509
 Red. masses --      1.8193                 1.1825                 2.2720
 Frc consts  --      0.6355                 0.4324                 0.8423
 IR Inten    --     35.3411                31.5515                16.1185

                     37                     38                     39
                      A                      A                      A
 Frequencies --    806.5282               834.0451               842.7987
 Red. masses --      5.1269                 1.5095                 1.5429
 Frc consts  --      1.9649                 0.6187                 0.6457
 IR Inten    --      3.4635                35.4542                55.5109

                     40                     41                     42
                      A                      A                      A
 Frequencies --    860.4700               881.4471               954.9116
 Red. masses --      1.8033                 1.5199                 1.3128
 Frc consts  --      0.7867                 0.6958                 0.7053
 IR Inten    --     13.8084                 5.4001                 0.1169

                     43                     44                     45
                      A                      A                      A
 Frequencies --    956.6205               960.1178               964.1548
 Red. masses --      3.1754                 1.4298                 4.6871
 Frc consts  --      1.7121                 0.7766                 2.5671
 IR Inten    --     13.0846                 1.1630                25.4252

                     46                     47                     48
                      A                      A                      A
 Frequencies --    977.9960              1006.2363              1058.3162
 Red. masses --      2.9304                 1.2808                 2.8847
 Frc consts  --      1.6514                 0.7641                 1.9036
 IR Inten    --     27.0479                 1.1619                 5.8030

                     49                     50                     51
                      A                      A                      A
 Frequencies --   1073.0013              1077.4240              1092.8614
 Red. masses --      1.3192                 2.0793                 1.5725
 Frc consts  --      0.8948                 1.4221                 1.1065
 IR Inten    --     11.0774                 7.4424                 2.7174

                     52                     53                     54
                      A                      A                      A
 Frequencies --   1101.6703              1110.6213              1148.4043
 Red. masses --      2.0284                 6.6041                 1.1595
 Frc consts  --      1.4505                 4.7995                 0.9009
 IR Inten    --     60.8760               197.4333                 4.2562

                     55                     56                     57
                      A                      A                      A
 Frequencies --   1153.6303              1164.4242              1176.2410
 Red. masses --      1.7861                 1.3888                 1.9819
 Frc consts  --      1.4005                 1.1094                 1.6155
 IR Inten    --     21.1184                16.4098                24.2103

                     58                     59                     60
                      A                      A                      A
 Frequencies --   1179.2539              1203.0930              1207.2192
 Red. masses --      1.9921                 1.6119                 1.2100
 Frc consts  --      1.6322                 1.3746                 1.0389
 IR Inten    --      3.1965                 8.1076                 1.6397

                     61                     62                     63
                      A                      A                      A
 Frequencies --   1210.9512              1234.4242              1235.5241
 Red. masses --      1.3709                 1.6337                 2.0592
 Frc consts  --      1.1845                 1.4668                 1.8521
 IR Inten    --      0.8930                41.0073                 1.4945

                     64                     65                     66
                      A                      A                      A
 Frequencies --   1271.7565              1291.9620              1308.9876
 Red. masses --      2.1690                 3.1988                 2.7848
 Frc consts  --      2.0669                 3.1458                 2.8113
 IR Inten    --     18.6173                91.3814                47.4836

                     67                     68                     69
                      A                      A                      A
 Frequencies --   1333.1236              1391.4048              1408.5992
 Red. masses --      2.5955                 4.0822                 1.4801
 Frc consts  --      2.7177                 4.6565                 1.7303
 IR Inten    --     16.7660                11.1664                21.1774

                     70                     71                     72
                      A                      A                      A
 Frequencies --   1411.5478              1441.0385              1468.1531
 Red. masses --      4.4516                 2.3002                 1.1664
 Frc consts  --      5.2259                 2.8143                 1.4813
 IR Inten    --     45.0234                18.4062                 0.5100

                     73                     74                     75
                      A                      A                      A
 Frequencies --   1485.2109              1492.7872              1510.2811
 Red. masses --      1.0912                 2.2914                 2.5018
 Frc consts  --      1.4182                 3.0084                 3.3622
 IR Inten    --      1.0859                 5.4657                17.9512

                     76                     77                     78
                      A                      A                      A
 Frequencies --   1519.9162              1528.3395              1537.6289
 Red. masses --      1.0525                 1.3850                 1.0491
 Frc consts  --      1.4325                 1.9061                 1.4614
 IR Inten    --     14.7255                 2.9486                 8.5026

                     79                     80                     81
                      A                      A                      A
 Frequencies --   1573.1650              1629.1248              1643.0825
 Red. masses --      3.4744                 6.0875                 4.4054
 Frc consts  --      5.0661                 9.5191                 7.0074
 IR Inten    --     61.4749                63.4652                25.6964

                     82                     83                     84
                      A                      A                      A
 Frequencies --   1680.0607              1701.4947              3032.9991
 Red. masses --      5.4797                 1.2317                 1.0491
 Frc consts  --      9.1130                 2.1010                 5.6858
 IR Inten    --      9.4893               164.6587                56.8908

                     85                     86                     87
                      A                      A                      A
 Frequencies --   3120.2409              3129.3811              3155.5080
 Red. masses --      1.0869                 1.0880                 1.0539
 Frc consts  --      6.2347                 6.2774                 6.1831
 IR Inten    --     16.3784                16.2291                15.5645

                     88                     89                     90
                      A                      A                      A
 Frequencies --   3172.4886              3184.0721              3187.6289
 Red. masses --      1.0567                 1.1021                 1.0897
 Frc consts  --      6.2663                 6.5833                 6.5236
 IR Inten    --      5.8855                 3.8485                20.8064

                     91                     92                     93
                      A                      A                      A
 Frequencies --   3189.7990              3201.2230              3214.6846
 Red. masses --      1.0860                 1.0900                 1.0962
 Frc consts  --      6.5103                 6.5813                 6.6746
 IR Inten    --      1.1283                19.7085                27.3084

                     94                     95                     96
                      A                      A                      A
 Frequencies --   3233.8686              3236.8683              3260.1607
 Red. masses --      1.0918                 1.1194                 1.1170
 Frc consts  --      6.7272                 6.9101                 6.9946
 IR Inten    --      0.8363                 5.4881                 5.4939

                     97                     98                     99
                      A                      A                      A
 Frequencies --   3268.0716              3564.6804              3661.2889
 Red. masses --      1.0919                 1.0479                 1.0983
 Frc consts  --      6.8706                 7.8453                 8.6740
 IR Inten    --      9.2796                24.0407                13.4137

 - Thermochemistry -
 -------------------
 Temperature   298.150 Kelvin.  Pressure   1.00000 Atm.
 Atom     1 has atomic number  6 and mass  12.00000

 Molecular mass:   276.09325 amu.
 Principal axes and moments of inertia in atomic units:
                           1         2         3
     Eigenvalues --  3211.949376381.008017177.62524
           X            0.99984   0.01266  -0.01282
           Y           -0.01248   0.99982   0.01443
           Z            0.01300  -0.01427   0.99981
 This molecule is an asymmetric top.
 Rotational symmetry number  1.
 Warning -- assumption of classical behavior for rotation
           may cause significant error
 Rotational temperatures (Kelvin)      0.02697     0.01357     0.01207
 Rotational constants (GHZ):           0.56188     0.28283     0.25144
 Zero-point vibrational energy     744493.3 (Joules/Mol)
                                  177.93817 (Kcal/Mol)
 Warning -- explicit consideration of  29 degrees of freedom as
           vibrations may cause significant error
 Vibrational temperatures:     46.67    58.75    76.97   174.14   193.54
          (Kelvin)            204.94   238.40   269.37   284.66   285.87
                              319.98   377.42   409.32   449.86   456.65
                              466.48   520.35   541.54   612.98   627.64
                              668.59   691.66   704.05   755.18   770.48
                              792.33   840.49   854.76   886.71   940.77
                              959.68  1014.25  1066.56  1107.82  1133.44
                             1141.31  1160.41  1200.00  1212.60  1238.02
                             1268.21  1373.90  1376.36  1381.40  1387.20
                             1407.12  1447.75  1522.68  1543.81  1550.17
                             1572.38  1585.06  1597.94  1652.30  1659.82
                             1675.35  1692.35  1696.68  1730.98  1736.92
                             1742.29  1776.06  1777.64  1829.77  1858.85
                             1883.34  1918.07  2001.92  2026.66  2030.90
                             2073.33  2112.34  2136.89  2147.79  2172.96
                             2186.82  2198.94  2212.31  2263.43  2343.95
                             2364.03  2417.23  2448.07  4363.81  4489.33
                             4502.48  4540.07  4564.50  4581.17  4586.29
                             4589.41  4605.85  4625.21  4652.82  4657.13
                             4690.64  4702.03  5128.78  5267.78

 Zero-point correction=                           0.283563 (Hartree/Particle)
 Thermal correction to Energy=                    0.300721
 Thermal correction to Enthalpy=                  0.301665
 Thermal correction to Gibbs Free Energy=         0.238869
 Sum of electronic and zero-point Energies=          -1200.965958
 Sum of electronic and thermal Energies=             -1200.948800
 Sum of electronic and thermal Enthalpies=           -1200.947855
 Sum of electronic and thermal Free Energies=        -1201.010651

                     E (Thermal)             CV                S
                      KCal/Mol        Cal/Mol-Kelvin    Cal/Mol-Kelvin
 Total                  188.705             68.043            132.165
 Electronic               0.000              0.000              0.000
 Translational            0.889              2.981             42.745
 Rotational               0.889              2.981             33.353
 Vibrational            186.928             62.081             56.067
 Vibration     1          0.594              1.983              5.674
 Vibration     2          0.594              1.981              5.218
 Vibration     3          0.596              1.976              4.684
 Vibration     4          0.609              1.932              3.084
 Vibration     5          0.613              1.919              2.880
 Vibration     6          0.616              1.911              2.771
 Vibration     7          0.624              1.885              2.484
 Vibration     8          0.632              1.857              2.255
 Vibration     9          0.637              1.843              2.153
 Vibration    10          0.637              1.842              2.145
 Vibration    11          0.648              1.807              1.939
 Vibration    12          0.670              1.742              1.646
 Vibration    13          0.683              1.702              1.506
 Vibration    14          0.701              1.650              1.348
 Vibration    15          0.704              1.640              1.324
 Vibration    16          0.709              1.627              1.289
 Vibration    17          0.736              1.551              1.115
 Vibration    18          0.747              1.520              1.054
 Vibration    19          0.788              1.414              0.872
 Vibration    20          0.797              1.391              0.839
 Vibration    21          0.822              1.328              0.753
 Vibration    22          0.837              1.293              0.708
 Vibration    23          0.845              1.274              0.685
 Vibration    24          0.880              1.195              0.599
 Vibration    25          0.891              1.171              0.575
 Vibration    26          0.906              1.138              0.543
 Vibration    27          0.941              1.066              0.478
 Vibration    28          0.952              1.044              0.460
 Vibration    29          0.976              0.997              0.422

 Optimization completed.
    -- Stationary point found.
 Normal termination of Gaussian 16 at Sat Dec 12 10:40:06 2020.

 ----------------------------------------------------------------------
 # B3LYP/6-311++G(d,p) empiricaldispersion=gd3bj scf=xqc pop=npa geom=c
 heck
 ----------------------------------------------------------------------

 ---------------------------------------
 CID_112594583_JID_9951_Energie_neutraal
 ---------------------------------------
 Structure from the checkpoint file:  "JID_9951.chk"
 Charge =  0 Multiplicity = 1

 SCF Done:  E(RB3LYP) =  -1201.49567152     A.U. after   16 cycles
 Normal termination of Gaussian 16 at Sat Dec 12 10:49:25 2020.

 ----------------------------------------------------------------------
 # B3LYP/6-311++G(d,p) empiricaldispersion=gd3bj scf=xqc pop=npa geom=c
 heck
 ----------------------------------------------------------------------

 -------------------------------------
 CID_112594583_JID_9951_Energie_kation
 -------------------------------------
 Structure from the checkpoint file:  "JID_9951.chk"
 Charge =  1 Multiplicity = 2

 SCF Done:  E(UB3LYP) =  -1201.21548011     A.U. after   23 cycles
 Normal termination of Gaussian 16 at Sat Dec 12 11:08:30 2020.
 Gaussian 16:  ES64L-G16RevA.03 25-Dec-2016

 ----------------------------------------------------------------------
 # B3LYP/6-311++G(d,p) empiricaldispersion=gd3bj scf=xqc pop=npa geom=c
 heck
 ----------------------------------------------------------------------

 ------------------------------------
 CID_112594583_JID_9951_Energie_anion
 ------------------------------------
 Structure from the checkpoint file:  "JID_9951.chk"
 Charge = -1 Multiplicity = 2

                         Standard orientation:
 ---------------------------------------------------------------------
 Center     Atomic      Atomic             Coordinates (Angstroms)
 Number     Number       Type             X           Y           Z
 ---------------------------------------------------------------------
      1          6           0       -3.892766    0.227008    0.425377
      2          7           0       -2.427838    0.087413    0.517923
      3          6           0       -2.010037   -1.230335    0.943636
      4          6           0       -0.798527   -1.353799    1.830289
      5          6           0       -2.173087   -1.544406    2.409889
      6         16           0       -1.665420    0.608941   -0.932241
      7          8           0       -1.782154   -0.428265   -1.971779
      8          8           0       -2.213941    1.943509   -1.199504
      9          6           0        0.037880    0.797302   -0.425415
     10          6           0        0.328047    2.016797    0.154573
     11          6           0        1.612196    2.305702    0.630348
     12          6           0        2.625500    1.361508    0.551884
     13          6           0        2.345740    0.066150   -0.005469
     14          6           0        3.338014   -0.947636   -0.029840
     15          6           0        3.086971   -2.180906   -0.585266
     16          6           0        1.821177   -2.446446   -1.147352
     17          6           0        0.825435   -1.496345   -1.121279
     18          6           0        1.041359   -0.218163   -0.536291
     19          7           0        3.889351    1.643819    1.050925
     20          1           0       -4.301516    0.029761    1.418883
     21          1           0       -4.337542   -0.478176   -0.290758
     22          1           0       -4.136362    1.247090    0.128956
     23          1           0       -2.204863   -2.038808    0.237222
     24          1           0       -0.156632   -2.215965    1.682074
     25          1           0       -0.277041   -0.436282    2.077153
     26          1           0       -2.559181   -0.750997    3.042670
     27          1           0       -2.504520   -2.543433    2.676763
     28          1           0       -0.450756    2.767836    0.217686
     29          1           0        1.820335    3.285704    1.051159
     30          1           0        4.302044   -0.764347    0.433084
     31          1           0        3.857555   -2.946059   -0.586368
     32          1           0        1.624223   -3.413680   -1.600838
     33          1           0       -0.140527   -1.710306   -1.555541
     34          1           0        4.665849    1.221869    0.559479
     35          1           0        4.056402    2.623587    1.242057
 ---------------------------------------------------------------------

 SCF Done:  E(UB3LYP) =  -1201.50859436     A.U. after   29 cycles

 The electronic state is 2-A.
 Alpha  occ. eigenvalues --  -88.92608 -18.98506 -18.98442 -14.22768 -14.19651
 Alpha  occ. eigenvalues --  -10.10726 -10.09516 -10.07892 -10.06776 -10.06457
 Alpha  occ. eigenvalues --  -10.05569 -10.04638 -10.04522 -10.03571 -10.03312
 Alpha  occ. eigenvalues --  -10.03123 -10.03084 -10.02850 -10.01720  -7.98794
 Alpha  occ. eigenvalues --   -5.95079  -5.95067  -5.94845  -0.98567  -0.87563
 Alpha  occ. eigenvalues --   -0.83108  -0.79893  -0.74122  -0.72880  -0.68631
 Alpha  occ. eigenvalues --   -0.63338  -0.60696  -0.60645  -0.58068  -0.53385
 Alpha  occ. eigenvalues --   -0.50512  -0.49410  -0.48617  -0.47522  -0.44636
 Alpha  occ. eigenvalues --   -0.42322  -0.40201  -0.39069  -0.38747  -0.37569
 Alpha  occ. eigenvalues --   -0.36880  -0.35992  -0.34832  -0.32686  -0.32484
 Alpha  occ. eigenvalues --   -0.31258  -0.30343  -0.29715  -0.29082  -0.28144
 Alpha  occ. eigenvalues --   -0.27285  -0.27024  -0.26667  -0.25878  -0.22762
 Alpha  occ. eigenvalues --   -0.22450  -0.21714  -0.21493  -0.20537  -0.19701
 Alpha  occ. eigenvalues --   -0.19010  -0.18939  -0.18189  -0.16334  -0.14225
 Alpha  occ. eigenvalues --   -0.12731  -0.11697  -0.07734   0.03981
 Alpha virt. eigenvalues --    0.07244   0.07579   0.08729   0.09302   0.09742
 Alpha virt. eigenvalues --    0.09906   0.11302   0.11443   0.11655   0.12255
 Alpha virt. eigenvalues --    0.12540   0.13115   0.13310   0.13661   0.14492

  Beta  occ. eigenvalues --  -88.92601 -18.98498 -18.98432 -14.22741 -14.19586
  Beta  occ. eigenvalues --  -10.10725 -10.09502 -10.07891 -10.06776 -10.05994
  Beta  occ. eigenvalues --  -10.05603 -10.04731 -10.04327 -10.03364 -10.03271
  Beta  occ. eigenvalues --  -10.03154 -10.03041 -10.02610 -10.01507  -7.98787
  Beta  occ. eigenvalues --   -5.95066  -5.95047  -5.94844  -0.98513  -0.87540
  Beta  occ. eigenvalues --   -0.83064  -0.79564  -0.74102  -0.72644  -0.68255
  Beta  occ. eigenvalues --   -0.62970  -0.60486  -0.60393  -0.57796  -0.53181
  Beta  occ. eigenvalues --   -0.50497  -0.48941  -0.48478  -0.47275  -0.44529
  Beta  occ. eigenvalues --   -0.42218  -0.40051  -0.38911  -0.38618  -0.37488
  Beta  occ. eigenvalues --   -0.36785  -0.35786  -0.34696  -0.32650  -0.32433
  Beta  occ. eigenvalues --   -0.31223  -0.30248  -0.29675  -0.28914  -0.27962
  Beta  occ. eigenvalues --   -0.26976  -0.26826  -0.26360  -0.25531  -0.22584
  Beta  occ. eigenvalues --   -0.22334  -0.21535  -0.20858  -0.20305  -0.19593
  Beta  occ. eigenvalues --   -0.18904  -0.18542  -0.17621  -0.16243  -0.14176
  Beta  occ. eigenvalues --   -0.11710  -0.11045  -0.06324
  Beta virt. eigenvalues --    0.07199   0.07524   0.08647   0.09158   0.09430
  Beta virt. eigenvalues --    0.09674   0.09961   0.11333   0.11489   0.11636
  Beta virt. eigenvalues --    0.12228   0.12465   0.13077   0.13617   0.14301

 Mulliken charges and spin densities:
               1          2
     1  C   -0.132566  -0.050994
     2  N    0.069162   0.038105
     3  C   -0.303894   0.011148
     4  C   -0.440356  -0.008286
     5  C   -0.366494  -0.030329
     6  S    0.092757   0.028753
     7  O   -0.099475   0.003966
     8  O   -0.190131  -0.006214
     9  C   -0.402831   0.060427
    10  C   -0.176597   0.206392
    11  C   -0.439299  -0.019647
    12  C   -0.758651   0.225260
    13  C    0.908057  -0.024849
    14  C   -0.015034   0.154768
    15  C   -0.488151  -0.027009
    16  C   -0.593205   0.095049
    17  C   -0.278330   0.130377
    18  C    0.566729   0.013811
    19  N   -0.272308   0.000109
    20  H    0.098949   0.031848
    21  H    0.127340   0.012486
    22  H    0.150846   0.014850
    23  H    0.245890   0.009475
    24  H    0.178649  -0.002632
    25  H    0.182232   0.004342
    26  H    0.126635   0.002720
    27  H    0.116436   0.005955
    28  H    0.184961  -0.008932
    29  H    0.095760   0.013198
    30  H    0.125109  -0.044049
    31  H    0.103104   0.004162
    32  H    0.113953  -0.005054
    33  H    0.188009  -0.012358
    34  H    0.095724   0.134375
    35  H    0.187020   0.038776
 Sum of Mulliken charges =  -1.00000   1.00000

 Dipole moment (field-independent basis, Debye):
    X=             -2.1846    Y=             -1.5129    Z=              3.9756  Tot=              4.7819
 Quadrupole moment (field-independent basis, Debye-Ang):
   XX=           -151.2590   YY=           -137.9687   ZZ=           -143.5513
   XY=              8.6213   XZ=             -7.5037   YZ=              1.5314

 Summary of Natural Population Analysis:

                                       Natural Population
                Natural  -----------------------------------------------
    Atom  No    Charge         Core      Valence    Rydberg      Total
 -----------------------------------------------------------------------
      C    1   -0.18349      0.99965     2.17642    0.00742     3.18349
      N    2   -0.36168      0.99972     2.84687    0.01509     3.86168
      C    3   -0.02715      0.99956     2.01419    0.01340     3.02715
      C    4   -0.19427      0.99962     2.18536    0.00930     3.19427
      C    5   -0.20328      0.99962     2.19761    0.00605     3.20328
      S    6    1.11152      4.99915     1.79165    0.09768     6.88848
      O    7   -0.47445      0.99990     3.46836    0.00618     4.47445
      O    8   -0.47474      0.99991     3.46857    0.00627     4.47474
      C    9   -0.15657      0.99936     2.13414    0.02306     3.15657
      C   10   -0.03856      0.99952     2.02818    0.01086     3.03856
      C   11   -0.16004      0.99953     2.15064    0.00987     3.16004
      C   12    0.18141      0.99947     1.80759    0.01153     2.81859
      C   13   -0.08071      0.99952     2.06574    0.01545     3.08071
      C   14   -0.05625      0.99954     2.04843    0.00829     3.05625
      C   15   -0.10723      0.99957     2.09795    0.00972     3.10723
      C   16   -0.08968      0.99957     2.08103    0.00908     3.08968
      C   17   -0.08717      0.99958     2.07161    0.01597     3.08717
      C   18    0.04156      0.99947     1.94599    0.01298     2.95844
      N   19   -0.39143      0.99971     2.88254    0.00917     3.89143
      H   20    0.09412      0.00000     0.40461    0.00128     0.40588
      H   21    0.08605      0.00000     0.41170    0.00224     0.41395
      H   22    0.10875      0.00000     0.38970    0.00155     0.39125
      H   23    0.10025      0.00000     0.39860    0.00114     0.39975
      H   24    0.10906      0.00000     0.38994    0.00100     0.39094
      H   25    0.11752      0.00000     0.38150    0.00098     0.38248
      H   26    0.10212      0.00000     0.39657    0.00131     0.39788
      H   27    0.09760      0.00000     0.40141    0.00099     0.40240
      H   28    0.10615      0.00000     0.39285    0.00100     0.39385
      H   29    0.09035      0.00000     0.40844    0.00121     0.40965
      H   30    0.08875      0.00000     0.40965    0.00160     0.41125
      H   31    0.08871      0.00000     0.40985    0.00144     0.41129
      H   32    0.08946      0.00000     0.40959    0.00095     0.41054
      H   33    0.10987      0.00000     0.38852    0.00161     0.39013
      H   34    0.18566      0.00000     0.31209    0.00224     0.31434
      H   35    0.17911      0.00000     0.31948    0.00141     0.32089
 =======================================================================
   * Total *    0.00135     22.99196    49.68735    0.31934    72.99865

 Normal termination of Gaussian 16 at Sat Dec 12 11:32:22 2020.
