 Gaussian 16, Revision A.03,

 -----------------------------------------------------------
 # opt freq B3LYP/6-31G(d) empiricaldispersion=gd3bj scf=xqc
 -----------------------------------------------------------

 -------------------------------
 CID_105733640_JID_5243_neutraal
 -------------------------------
 Symbolic Z-matrix:
 Charge =  0 Multiplicity = 1

 SCF Done:  E(RB3LYP) =  -677.561441727     A.U. after   13 cycles
 SCF Done:  E(RB3LYP) =  -677.565712826     A.U. after   11 cycles
 SCF Done:  E(RB3LYP) =  -677.565805213     A.U. after   10 cycles
 SCF Done:  E(RB3LYP) =  -677.566444806     A.U. after   10 cycles
 SCF Done:  E(RB3LYP) =  -677.566536688     A.U. after   10 cycles
 SCF Done:  E(RB3LYP) =  -677.566673117     A.U. after   11 cycles
 SCF Done:  E(RB3LYP) =  -677.566814527     A.U. after   10 cycles
 SCF Done:  E(RB3LYP) =  -677.566968906     A.U. after   11 cycles
 SCF Done:  E(RB3LYP) =  -677.566996311     A.U. after    9 cycles
 SCF Done:  E(RB3LYP) =  -677.567008668     A.U. after   10 cycles
 SCF Done:  E(RB3LYP) =  -677.567024676     A.U. after    9 cycles
 SCF Done:  E(RB3LYP) =  -677.567030119     A.U. after    9 cycles
 SCF Done:  E(RB3LYP) =  -677.567032864     A.U. after    9 cycles
 SCF Done:  E(RB3LYP) =  -677.567033998     A.U. after    8 cycles
 SCF Done:  E(RB3LYP) =  -677.567033835     A.U. after    7 cycles
 SCF Done:  E(RB3LYP) =  -677.567033898     A.U. after    6 cycles
 Optimization completed.
    -- Stationary point found.
 Normal termination of Gaussian 16 at Thu Dec 10 15:02:05 2020.

 --------------------------------------------------------------------
 #N Geom=AllCheck Guess=TCheck SCRF=Check GenChk RB3LYP/6-31G(d) Freq
 --------------------------------------------------------------------

 Structure from the checkpoint file:  "JID_5243.chk"
 -------------------------------
 CID_105733640_JID_5243_neutraal
 -------------------------------
 Charge =  0 Multiplicity = 1

 SCF Done:  E(RB3LYP) =  -677.567033898     A.U. after    1 cycles

  Exact polarizability: 150.515  -3.860 134.904  -0.221   0.922 131.755
 Approx polarizability: 187.221  -2.181 186.390  -0.277   0.965 186.901

                      1                      2                      3
                      A                      A                      A
 Frequencies --     11.3355                36.3541                42.5923
 Red. masses --      3.4387                 2.4170                 2.6519
 Frc consts  --      0.0003                 0.0019                 0.0028
 IR Inten    --      0.2289                 0.3296                 1.7289

                      4                      5                      6
                      A                      A                      A
 Frequencies --     48.9840                67.4506                95.0444
 Red. masses --      3.4757                 3.2516                 3.5683
 Frc consts  --      0.0049                 0.0087                 0.0190
 IR Inten    --      1.4037                 0.1083                 2.7080

                      7                      8                      9
                      A                      A                      A
 Frequencies --    112.5629               131.0723               155.8014
 Red. masses --      2.6911                 2.0454                 2.8925
 Frc consts  --      0.0201                 0.0207                 0.0414
 IR Inten    --      0.7879                 0.6103                 1.1708

                     10                     11                     12
                      A                      A                      A
 Frequencies --    183.6689               188.8779               204.4443
 Red. masses --      2.3681                 1.6986                 1.5473
 Frc consts  --      0.0471                 0.0357                 0.0381
 IR Inten    --      2.5926                 1.4326                 0.4602

                     13                     14                     15
                      A                      A                      A
 Frequencies --    225.0207               242.8328               270.2133
 Red. masses --      1.2391                 1.5165                 2.4861
 Frc consts  --      0.0370                 0.0527                 0.1070
 IR Inten    --      0.7605                 0.5718                 0.2727

                     16                     17                     18
                      A                      A                      A
 Frequencies --    285.7833               302.3455               340.1393
 Red. masses --      1.9962                 1.8708                 2.5079
 Frc consts  --      0.0961                 0.1008                 0.1709
 IR Inten    --      0.4437                 5.1799                 1.6967

                     19                     20                     21
                      A                      A                      A
 Frequencies --    346.0716               413.6123               417.6810
 Red. masses --      2.8970                 2.7645                 2.6638
 Frc consts  --      0.2044                 0.2786                 0.2738
 IR Inten    --      1.4920                 3.6627                 0.9645

                     22                     23                     24
                      A                      A                      A
 Frequencies --    464.4112               484.5986               525.0847
 Red. masses --      2.5653                 2.4946                 2.7830
 Frc consts  --      0.3260                 0.3452                 0.4521
 IR Inten    --      4.5097                 3.7987                 0.8319

                     25                     26                     27
                      A                      A                      A
 Frequencies --    555.8390               694.0272               726.0070
 Red. masses --      2.7473                 3.5220                 2.8547
 Frc consts  --      0.5001                 0.9995                 0.8865
 IR Inten    --      7.9101                 2.0734                13.5147

                     28                     29                     30
                      A                      A                      A
 Frequencies --    774.4398               792.9686               806.8473
 Red. masses --      1.5644                 1.6898                 1.1333
 Frc consts  --      0.5528                 0.6260                 0.4347
 IR Inten    --     40.6189                14.4608                 5.4959

                     31                     32                     33
                      A                      A                      A
 Frequencies --    824.5411               848.1105               860.4898
 Red. masses --      1.4222                 2.2184                 2.1015
 Frc consts  --      0.5697                 0.9401                 0.9168
 IR Inten    --      0.3876                13.6294                 5.9173

                     34                     35                     36
                      A                      A                      A
 Frequencies --    892.7245               921.1394               930.7790
 Red. masses --      1.7001                 2.3005                 2.1453
 Frc consts  --      0.7983                 1.1501                 1.0951
 IR Inten    --     23.3858                 2.5377                10.2090

                     37                     38                     39
                      A                      A                      A
 Frequencies --    943.9109               958.9264               966.8341
 Red. masses --      1.8260                 1.9037                 1.8795
 Frc consts  --      0.9586                 1.0314                 1.0351
 IR Inten    --      2.2263                 3.3464                 4.3477

                     40                     41                     42
                      A                      A                      A
 Frequencies --   1011.7343              1012.6305              1022.5408
 Red. masses --      2.0595                 2.5687                 1.7903
 Frc consts  --      1.2421                 1.5519                 1.1029
 IR Inten    --     24.4037                12.1608                 9.9807

                     43                     44                     45
                      A                      A                      A
 Frequencies --   1039.3237              1064.6132              1087.0429
 Red. masses --      1.8947                 3.0439                 2.9071
 Frc consts  --      1.2059                 2.0327                 2.0240
 IR Inten    --      1.9417                24.8996                57.2158

                     46                     47                     48
                      A                      A                      A
 Frequencies --   1097.5750              1110.9160              1125.4462
 Red. masses --      2.2894                 2.2066                 2.5349
 Frc consts  --      1.6250                 1.6045                 1.8917
 IR Inten    --     45.0263                 3.0072                34.8718

                     49                     50                     51
                      A                      A                      A
 Frequencies --   1137.4210              1160.0551              1172.5568
 Red. masses --      2.7612                 2.1215                 2.4622
 Frc consts  --      2.1047                 1.6821                 1.9945
 IR Inten    --     34.2338                21.4304                51.4393

                     52                     53                     54
                      A                      A                      A
 Frequencies --   1179.5180              1184.8289              1193.5933
 Red. masses --      2.2748                 2.1658                 1.9433
 Frc consts  --      1.8647                 1.7913                 1.6312
 IR Inten    --     30.9236                23.0029                31.2976

                     55                     56                     57
                      A                      A                      A
 Frequencies --   1210.5873              1237.1537              1241.4315
 Red. masses --      1.7887                 1.1735                 1.4305
 Frc consts  --      1.5445                 1.0583                 1.2989
 IR Inten    --     35.7924                 1.4246                 2.3207

                     58                     59                     60
                      A                      A                      A
 Frequencies --   1271.1913              1276.9211              1312.9983
 Red. masses --      1.3796                 1.2424                 1.3369
 Frc consts  --      1.3135                 1.1935                 1.3580
 IR Inten    --      3.3213                 2.4036                 4.2488

                     61                     62                     63
                      A                      A                      A
 Frequencies --   1319.0963              1331.2369              1342.3218
 Red. masses --      1.2484                 1.2747                 1.2591
 Frc consts  --      1.2799                 1.3310                 1.3367
 IR Inten    --      1.8327                 4.3192                 0.9398

                     64                     65                     66
                      A                      A                      A
 Frequencies --   1350.0127              1354.9428              1368.6496
 Red. masses --      1.2091                 1.2572                 1.2882
 Frc consts  --      1.2983                 1.3599                 1.4217
 IR Inten    --      4.0987                 4.8233                 4.3937

                     67                     68                     69
                      A                      A                      A
 Frequencies --   1369.9653              1396.2454              1410.8693
 Red. masses --      1.2513                 1.3211                 1.2326
 Frc consts  --      1.3836                 1.5174                 1.4456
 IR Inten    --     15.8326                 5.8942                 0.4754

                     70                     71                     72
                      A                      A                      A
 Frequencies --   1412.1703              1428.5325              1434.0204
 Red. masses --      1.3365                 1.2933                 1.4324
 Frc consts  --      1.5704                 1.5549                 1.7355
 IR Inten    --     11.4331                 5.6631                 3.4722

                     73                     74                     75
                      A                      A                      A
 Frequencies --   1437.4764              1438.3714              1446.6982
 Red. masses --      1.2556                 1.2448                 1.4636
 Frc consts  --      1.5286                 1.5174                 1.8048
 IR Inten    --      2.9787                29.8828                 7.9265

                     76                     77                     78
                      A                      A                      A
 Frequencies --   1450.0082              1502.9535              1512.4427
 Red. masses --      1.3422                 1.1550                 1.0645
 Frc consts  --      1.6626                 1.5372                 1.4346
 IR Inten    --      6.2794                27.8275                 0.2925

                     79                     80                     81
                      A                      A                      A
 Frequencies --   1518.1679              1521.2403              1522.6786
 Red. masses --      1.0592                 1.0724                 1.0606
 Frc consts  --      1.4384                 1.4621                 1.4488
 IR Inten    --      2.4782                 1.5086                 8.3798

                     82                     83                     84
                      A                      A                      A
 Frequencies --   1526.6514              1527.4314              1529.0911
 Red. masses --      1.0597                 1.0700                 1.0569
 Frc consts  --      1.4552                 1.4709                 1.4559
 IR Inten    --      6.6375                 2.7889                 4.4543

                     85                     86                     87
                      A                      A                      A
 Frequencies --   1535.4612              1539.7718              1544.0703
 Red. masses --      1.1048                 1.0712                 1.0760
 Frc consts  --      1.5346                 1.4963                 1.5115
 IR Inten    --     10.0724                 3.5384                 0.0407

                     88                     89                     90
                      A                      A                      A
 Frequencies --   1546.8372              1559.3770              2941.9817
 Red. masses --      1.0819                 1.0942                 1.0827
 Frc consts  --      1.5253                 1.5677                 5.5214
 IR Inten    --     24.8382                 0.7422                66.2904

                     91                     92                     93
                      A                      A                      A
 Frequencies --   2968.7998              2989.1775              3026.1360
 Red. masses --      1.0704                 1.0700                 1.0679
 Frc consts  --      5.5584                 5.6332                 5.7619
 IR Inten    --     41.5259                41.4698                93.2451

                     94                     95                     96
                      A                      A                      A
 Frequencies --   3035.5975              3038.3182              3051.1504
 Red. masses --      1.0604                 1.0429                 1.0805
 Frc consts  --      5.7571                 5.6722                 5.9266
 IR Inten    --     36.6954                15.6760                 6.5074

                     97                     98                     99
                      A                      A                      A
 Frequencies --   3052.3947              3053.7364              3058.3231
 Red. masses --      1.0385                 1.0387                 1.0751
 Frc consts  --      5.7010                 5.7067                 5.9247
 IR Inten    --     32.9561                23.8578                66.4270

                    100                    101                    102
                      A                      A                      A
 Frequencies --   3059.0772              3071.3864              3079.5249
 Red. masses --      1.0690                 1.0667                 1.0995
 Frc consts  --      5.8942                 5.9290                 6.1437
 IR Inten    --      7.5686                29.7341                19.7514

                    103                    104                    105
                      A                      A                      A
 Frequencies --   3082.0844              3087.6636              3089.0551
 Red. masses --      1.0979                 1.0827                 1.0928
 Frc consts  --      6.1446                 6.0817                 6.1439
 IR Inten    --     24.5597                36.8199                28.6688

                    106                    107                    108
                      A                      A                      A
 Frequencies --   3097.4490              3105.5361              3114.9049
 Red. masses --      1.1069                 1.0976                 1.1019
 Frc consts  --      6.2569                 6.2367                 6.2990
 IR Inten    --     26.1484                51.3194                37.7877

                    109                    110                    111
                      A                      A                      A
 Frequencies --   3118.8010              3118.9436              3126.5712
 Red. masses --      1.1049                 1.1016                 1.1012
 Frc consts  --      6.3324                 6.3140                 6.3423
 IR Inten    --     34.9678                48.6813                34.9633

                    112                    113                    114
                      A                      A                      A
 Frequencies --   3137.2324              3143.6400              3516.7422
 Red. masses --      1.1029                 1.1014                 1.0724
 Frc consts  --      6.3957                 6.4128                 7.8145
 IR Inten    --     58.1775                21.8303                 2.8502

 - Thermochemistry -
 -------------------
 Temperature   298.150 Kelvin.  Pressure   1.00000 Atm.
 Atom     1 has atomic number  6 and mass  12.00000

 Molecular mass:   215.18853 amu.
 Principal axes and moments of inertia in atomic units:
                           1         2         3
     Eigenvalues --  2155.418466328.185166467.48011
           X            1.00000  -0.00030   0.00117
           Y            0.00029   0.99994   0.01123
           Z           -0.00118  -0.01123   0.99994
 This molecule is an asymmetric top.
 Rotational symmetry number  1.
 Warning -- assumption of classical behavior for rotation
           may cause significant error
 Rotational temperatures (Kelvin)      0.04018     0.01369     0.01339
 Rotational constants (GHZ):           0.83730     0.28519     0.27905
 Zero-point vibrational energy     966490.9 (Joules/Mol)
                                  230.99688 (Kcal/Mol)
 Warning -- explicit consideration of  25 degrees of freedom as
           vibrations may cause significant error
 Vibrational temperatures:     16.31    52.31    61.28    70.48    97.05
          (Kelvin)            136.75   161.95   188.58   224.16   264.26
                              271.75   294.15   323.75   349.38   388.78
                              411.18   435.01   489.38   497.92   595.10
                              600.95   668.18   697.23   755.48   799.73
                              998.55  1044.56  1114.25  1140.91  1160.87
                             1186.33  1220.24  1238.05  1284.43  1325.31
                             1339.18  1358.08  1379.68  1391.06  1455.66
                             1456.95  1471.21  1495.36  1531.74  1564.01
                             1579.17  1598.36  1619.27  1636.50  1669.06
                             1687.05  1697.06  1704.70  1717.31  1741.77
                             1779.99  1786.14  1828.96  1837.20  1889.11
                             1897.89  1915.35  1931.30  1942.37  1949.46
                             1969.18  1971.07  2008.89  2029.93  2031.80
                             2055.34  2063.24  2068.21  2069.50  2081.48
                             2086.24  2162.41  2176.07  2184.31  2188.73
                             2190.79  2196.51  2197.63  2200.02  2209.19
                             2215.39  2221.57  2225.55  2243.60  4232.86
                             4271.44  4300.76  4353.93  4367.55  4371.46
                             4389.92  4391.72  4393.65  4400.24  4401.33
                             4419.04  4430.75  4434.43  4442.46  4444.46
                             4456.54  4468.17  4481.65  4487.26  4487.46
                             4498.44  4513.78  4523.00  5059.81

 Zero-point correction=                           0.368117 (Hartree/Particle)
 Thermal correction to Energy=                    0.385823
 Thermal correction to Enthalpy=                  0.386767
 Thermal correction to Gibbs Free Energy=         0.320128
 Sum of electronic and zero-point Energies=           -677.198917
 Sum of electronic and thermal Energies=              -677.181211
 Sum of electronic and thermal Enthalpies=            -677.180266
 Sum of electronic and thermal Free Energies=         -677.246906

                     E (Thermal)             CV                S
                      KCal/Mol        Cal/Mol-Kelvin    Cal/Mol-Kelvin
 Total                  242.108             64.698            140.256
 Electronic               0.000              0.000              0.000
 Translational            0.889              2.981             42.002
 Rotational               0.889              2.981             32.845
 Vibrational            240.330             58.737             65.408
 Vibration     1          0.593              1.987              7.762
 Vibration     2          0.594              1.982              5.448
 Vibration     3          0.595              1.980              5.135
 Vibration     4          0.595              1.978              4.858
 Vibration     5          0.598              1.970              4.226
 Vibration     6          0.603              1.953              3.553
 Vibration     7          0.607              1.939              3.224
 Vibration     8          0.612              1.922              2.930
 Vibration     9          0.620              1.896              2.600
 Vibration    10          0.631              1.862              2.291
 Vibration    11          0.633              1.855              2.239
 Vibration    12          0.640              1.834              2.093
 Vibration    13          0.650              1.803              1.918
 Vibration    14          0.659              1.775              1.782
 Vibration    15          0.674              1.728              1.595
 Vibration    16          0.684              1.700              1.499
 Vibration    17          0.694              1.669              1.404
 Vibration    18          0.720              1.595              1.211
 Vibration    19          0.724              1.583              1.184
 Vibration    20          0.777              1.441              0.914
 Vibration    21          0.781              1.432              0.900
 Vibration    22          0.822              1.329              0.753
 Vibration    23          0.841              1.284              0.698
 Vibration    24          0.880              1.194              0.598
 Vibration    25          0.911              1.127              0.532

                           ! Non-Optimized Parameters !
 Normal termination of Gaussian 16 at Thu Dec 10 15:17:17 2020.

 ----------------------------------------------------------------------
 # B3LYP/6-311++G(d,p) empiricaldispersion=gd3bj scf=xqc pop=npa geom=c
 heck
 ----------------------------------------------------------------------

 ---------------------------------------
 CID_105733640_JID_5243_Energie_neutraal
 ---------------------------------------
 Structure from the checkpoint file:  "JID_5243.chk"
 Charge =  0 Multiplicity = 1

 SCF Done:  E(RB3LYP) =  -677.763905806     A.U. after   13 cycles
 Normal termination of Gaussian 16 at Thu Dec 10 15:24:43 2020.

 ----------------------------------------------------------------------
 # B3LYP/6-311++G(d,p) empiricaldispersion=gd3bj scf=xqc pop=npa geom=c
 heck
 ----------------------------------------------------------------------

 -------------------------------------
 CID_105733640_JID_5243_Energie_kation
 -------------------------------------
 Structure from the checkpoint file:  "JID_5243.chk"
 Charge =  1 Multiplicity = 2

 SCF Done:  E(UB3LYP) =  -677.472066884     A.U. after   22 cycles
 Normal termination of Gaussian 16 at Thu Dec 10 15:43:31 2020.
 Gaussian 16:  ES64L-G16RevA.03 25-Dec-2016

 ----------------------------------------------------------------------
 # B3LYP/6-311++G(d,p) empiricaldispersion=gd3bj scf=xqc pop=npa geom=c
 heck
 ----------------------------------------------------------------------

 ------------------------------------
 CID_105733640_JID_5243_Energie_anion
 ------------------------------------
 Structure from the checkpoint file:  "JID_5243.chk"
 Charge = -1 Multiplicity = 2

                         Standard orientation:
 ---------------------------------------------------------------------
 Center     Atomic      Atomic             Coordinates (Angstroms)
 Number     Number       Type             X           Y           Z
 ---------------------------------------------------------------------
      1          6           0        2.957277    2.327840   -1.437650
      2          6           0        1.838382    1.400755   -0.954892
      3          6           0        2.331118   -0.016824   -0.696202
      4          6           0        1.328111   -1.085508   -0.208295
      5          6           0        2.316743   -2.136065    0.343398
      6          6           0        3.521014   -1.293279    0.827211
      7          8           0        3.314172    0.034683    0.341359
      8          6           0        0.354311   -0.595907    0.871742
      9          7           0       -0.813253    0.065207    0.292280
     10          6           0       -1.854154    0.452514    1.254389
     11          6           0       -1.448748    1.629945    2.157860
     12          6           0       -3.153508    0.779919    0.503545
     13          8           0       -3.919640   -0.337192    0.095586
     14          6           0       -3.367801   -1.195543   -0.902420
     15          6           0       -3.094790   -0.508491   -2.236128
     16          1           0        3.755523    2.380983   -0.692405
     17          1           0        2.581319    3.340809   -1.617430
     18          1           0        3.394044    1.959827   -2.373814
     19          1           0        1.406685    1.803069   -0.030191
     20          1           0        1.038706    1.358288   -1.706819
     21          1           0        2.798705   -0.393709   -1.625196
     22          1           0        0.738891   -1.485233   -1.040599
     23          1           0        1.881617   -2.742681    1.143407
     24          1           0        2.623282   -2.818653   -0.455646
     25          1           0        3.590573   -1.239065    1.918948
     26          1           0        4.471428   -1.691012    0.444636
     27          1           0       -0.022301   -1.466085    1.423677
     28          1           0        0.908581    0.022194    1.600147
     29          1           0       -0.522616    0.895127   -0.219028
     30          1           0       -2.055735   -0.427422    1.879166
     31          1           0       -1.335965    2.548235    1.565752
     32          1           0       -2.201791    1.820977    2.930732
     33          1           0       -0.495205    1.436597    2.659013
     34          1           0       -3.820904    1.337614    1.169302
     35          1           0       -2.916964    1.442305   -0.346102
     36          1           0       -2.449965   -1.670886   -0.538712
     37          1           0       -4.130673   -1.970952   -1.031961
     38          1           0       -2.251454    0.184181   -2.160992
     39          1           0       -2.839236   -1.258892   -2.993423
     40          1           0       -3.977758    0.041871   -2.579333
 ---------------------------------------------------------------------

 SCF Done:  E(UB3LYP) =  -677.749647358     A.U. after   29 cycles

 The electronic state is 2-A.
 Alpha  occ. eigenvalues --  -19.02571 -19.02264 -14.20071 -10.12069 -10.11905
 Alpha  occ. eigenvalues --  -10.11778 -10.11485 -10.10655 -10.09567 -10.07843
 Alpha  occ. eigenvalues --  -10.07472 -10.07324 -10.06907 -10.06368 -10.06130
 Alpha  occ. eigenvalues --   -0.94210  -0.93577  -0.81602  -0.70874  -0.68940
 Alpha  occ. eigenvalues --   -0.67391  -0.64950  -0.62085  -0.59158  -0.57090
 Alpha  occ. eigenvalues --   -0.53337  -0.51641  -0.49260  -0.48239  -0.46219
 Alpha  occ. eigenvalues --   -0.41856  -0.40247  -0.39386  -0.39276  -0.37145
 Alpha  occ. eigenvalues --   -0.36736  -0.35802  -0.34787  -0.33074  -0.32188
 Alpha  occ. eigenvalues --   -0.32072  -0.31434  -0.31187  -0.29851  -0.29512
 Alpha  occ. eigenvalues --   -0.29291  -0.27874  -0.27122  -0.26606  -0.26129
 Alpha  occ. eigenvalues --   -0.25410  -0.25239  -0.24462  -0.23471  -0.22962
 Alpha  occ. eigenvalues --   -0.21731  -0.20868  -0.16903  -0.15887  -0.12897
 Alpha  occ. eigenvalues --    0.04269
 Alpha virt. eigenvalues --    0.06107   0.06525   0.06919   0.08089   0.08339
 Alpha virt. eigenvalues --    0.08624   0.08929   0.09184   0.10513   0.10597
 Alpha virt. eigenvalues --    0.10640   0.11074   0.11372   0.12043   0.12540

  Beta  occ. eigenvalues --  -19.02569 -19.02257 -14.20064 -10.12056 -10.11893
  Beta  occ. eigenvalues --  -10.11760 -10.11478 -10.10650 -10.09556 -10.07835
  Beta  occ. eigenvalues --  -10.07450 -10.07308 -10.06879 -10.06347 -10.06107
  Beta  occ. eigenvalues --   -0.94195  -0.93566  -0.81589  -0.70848  -0.68909
  Beta  occ. eigenvalues --   -0.67366  -0.64923  -0.62045  -0.59116  -0.57053
  Beta  occ. eigenvalues --   -0.53288  -0.51600  -0.49217  -0.48194  -0.46176
  Beta  occ. eigenvalues --   -0.41821  -0.40225  -0.39367  -0.39241  -0.37124
  Beta  occ. eigenvalues --   -0.36708  -0.35775  -0.34757  -0.33048  -0.32154
  Beta  occ. eigenvalues --   -0.32043  -0.31390  -0.31153  -0.29822  -0.29487
  Beta  occ. eigenvalues --   -0.29265  -0.27847  -0.27096  -0.26584  -0.26093
  Beta  occ. eigenvalues --   -0.25384  -0.25207  -0.24431  -0.23440  -0.22932
  Beta  occ. eigenvalues --   -0.21709  -0.20852  -0.16892  -0.15855  -0.12883
  Beta virt. eigenvalues --    0.06287   0.06931   0.07130   0.07295   0.08466
  Beta virt. eigenvalues --    0.08652   0.08904   0.09321   0.09593   0.10690
  Beta virt. eigenvalues --    0.10840   0.10952   0.11204   0.11733   0.12426

 Mulliken charges and spin densities:
               1          2
     1  C    0.189149  -0.860943
     2  C   -0.595586   0.417239
     3  C    0.177809  -0.496964
     4  C   -0.589171   1.444752
     5  C    0.531947  -1.053516
     6  C    0.106999  -0.368544
     7  O   -0.094009   0.017082
     8  C    0.063923  -1.295727
     9  N    0.160127  -0.068096
    10  C   -0.841386   1.090822
    11  C    0.678880  -1.337132
    12  C    0.266546  -0.796386
    13  O   -0.112015   0.015027
    14  C   -0.426179   0.152976
    15  C    0.375636  -0.735496
    16  H    0.068786   0.093388
    17  H   -0.339135   0.483658
    18  H   -0.068562   0.200854
    19  H    0.323786  -0.161276
    20  H   -0.201033   0.335667
    21  H   -0.116973   0.300998
    22  H   -0.131225   0.350501
    23  H   -0.122922   0.256634
    24  H   -0.391160   0.580438
    25  H   -0.091841   0.235309
    26  H   -0.107244   0.251201
    27  H   -0.049392   0.196115
    28  H    0.284663  -0.067817
    29  H    0.801879  -0.635208
    30  H   -0.007505   0.190982
    31  H   -0.250519   0.409198
    32  H   -0.182888   0.323489
    33  H   -0.116959   0.257735
    34  H    0.058722   0.109052
    35  H   -0.105017   0.260736
    36  H    0.207821  -0.048235
    37  H   -0.029792   0.197729
    38  H   -0.280972   0.443122
    39  H   -0.149996   0.268799
    40  H    0.104808   0.041837
 Sum of Mulliken charges =  -1.00000   1.00000

 Dipole moment (field-independent basis, Debye):
    X=             -1.6733    Y=             -0.6037    Z=              1.7754  Tot=              2.5132
 Quadrupole moment (field-independent basis, Debye-Ang):
   XX=           -169.2456   YY=           -147.3765   ZZ=           -143.0866
   XY=              3.4957   XZ=              4.6043   YZ=             -1.5671

 Summary of Natural Population Analysis:

                                       Natural Population
                Natural  -----------------------------------------------
    Atom  No    Charge         Core      Valence    Rydberg      Total
 -----------------------------------------------------------------------
      C    1   -0.28145      0.99966     2.27737    0.00442     3.28145
      C    2   -0.20220      0.99961     2.19287    0.00972     3.20220
      C    3    0.07227      0.99954     1.91291    0.01529     2.92773
      C    4   -0.12294      0.99957     2.11124    0.01212     3.12294
      C    5   -0.20281      0.99963     2.19498    0.00821     3.20281
      C    6   -0.00957      0.99960     1.99767    0.01230     3.00957
      O    7   -0.30862      0.99989     3.30020    0.00854     4.30862
      C    8   -0.08721      0.99959     2.07680    0.01082     3.08721
      N    9   -0.35031      0.99974     2.83982    0.01076     3.85031
      C   10   -0.02389      0.99960     2.01320    0.01108     3.02389
      C   11   -0.29645      0.99965     2.29080    0.00601     3.29645
      C   12   -0.00712      0.99953     1.99367    0.01392     3.00712
      O   13   -0.30350      0.99989     3.29439    0.00922     4.30350
      C   14   -0.00937      0.99958     1.99877    0.01101     3.00937
      C   15   -0.30323      0.99966     2.29871    0.00486     3.30323
      H   16    0.10274      0.00000     0.39581    0.00145     0.39726
      H   17    0.09818      0.00000     0.40077    0.00105     0.40182
      H   18    0.09568      0.00000     0.40320    0.00111     0.40432
      H   19    0.09727      0.00000     0.40068    0.00205     0.40273
      H   20    0.09909      0.00000     0.39935    0.00156     0.40091
      H   21    0.08004      0.00000     0.41823    0.00173     0.41996
      H   22    0.10789      0.00000     0.39025    0.00185     0.39211
      H   23    0.10217      0.00000     0.39662    0.00121     0.39783
      H   24    0.10321      0.00000     0.39512    0.00167     0.39679
      H   25    0.08488      0.00000     0.41382    0.00130     0.41512
      H   26    0.08117      0.00000     0.41751    0.00132     0.41883
      H   27    0.09302      0.00000     0.40548    0.00150     0.40698
      H   28    0.08495      0.00000     0.41305    0.00200     0.41505
      H   29    0.17453      0.00000     0.32105    0.00443     0.32547
      H   30    0.09278      0.00000     0.40539    0.00183     0.40722
      H   31    0.09817      0.00000     0.40049    0.00135     0.40183
      H   32    0.09967      0.00000     0.39938    0.00095     0.40033
      H   33    0.10281      0.00000     0.39617    0.00102     0.39719
      H   34    0.08937      0.00000     0.40932    0.00131     0.41063
      H   35    0.07951      0.00000     0.41908    0.00140     0.42049
      H   36    0.08786      0.00000     0.41044    0.00170     0.41214
      H   37    0.08199      0.00000     0.41667    0.00134     0.41801
      H   38    0.10202      0.00000     0.39639    0.00158     0.39798
      H   39    0.10161      0.00000     0.39731    0.00108     0.39839
      H   40    0.09581      0.00000     0.40312    0.00107     0.40419
 =======================================================================
   * Total *   -0.00000     14.99474    44.81810    0.18715    60.00000

 Normal termination of Gaussian 16 at Thu Dec 10 16:07:40 2020.
