 Gaussian 16, Revision A.03,

 -----------------------------------------------------------
 # opt freq B3LYP/6-31G(d) empiricaldispersion=gd3bj scf=xqc
 -----------------------------------------------------------

 --------------------------------
 CID_115443378_JID_10953_neutraal
 --------------------------------
 Symbolic Z-matrix:
 Charge =  0 Multiplicity = 1

 SCF Done:  E(RB3LYP) =  -939.968870608     A.U. after   15 cycles
 SCF Done:  E(RB3LYP) =  -939.974604852     A.U. after   13 cycles
 SCF Done:  E(RB3LYP) =  -939.970397561     A.U. after   15 cycles
 SCF Done:  E(RB3LYP) =  -939.975238352     A.U. after   12 cycles
 SCF Done:  E(RB3LYP) =  -939.976349486     A.U. after   13 cycles
 SCF Done:  E(RB3LYP) =  -939.977545061     A.U. after   13 cycles
 SCF Done:  E(RB3LYP) =  -939.977988704     A.U. after   13 cycles
 SCF Done:  E(RB3LYP) =  -939.978810856     A.U. after   12 cycles
 SCF Done:  E(RB3LYP) =  -939.979002079     A.U. after   12 cycles
 SCF Done:  E(RB3LYP) =  -939.979027177     A.U. after   12 cycles
 SCF Done:  E(RB3LYP) =  -939.979210966     A.U. after    8 cycles
 SCF Done:  E(RB3LYP) =  -939.979212485     A.U. after    8 cycles
 SCF Done:  E(RB3LYP) =  -939.979212990     A.U. after    8 cycles
 SCF Done:  E(RB3LYP) =  -939.979213116     A.U. after    7 cycles
 Optimization completed.
    -- Stationary point found.
 Normal termination of Gaussian 16 at Sat Dec 12 16:51:13 2020.

 --------------------------------------------------------------------
 #N Geom=AllCheck Guess=TCheck SCRF=Check GenChk RB3LYP/6-31G(d) Freq
 --------------------------------------------------------------------

 Structure from the checkpoint file:  "JID_10953.chk"
 --------------------------------
 CID_115443378_JID_10953_neutraal
 --------------------------------
 Charge =  0 Multiplicity = 1

 SCF Done:  E(RB3LYP) =  -939.979213116     A.U. after    1 cycles

  Exact polarizability: 189.646   5.005 159.845 -10.131  10.324 147.602
 Approx polarizability: 236.678  11.787 245.900 -27.626  28.879 247.848

                      1                      2                      3
                      A                      A                      A
 Frequencies --     32.2128                32.6328                45.2382
 Red. masses --      5.5668                 4.7463                 5.8103
 Frc consts  --      0.0034                 0.0030                 0.0070
 IR Inten    --      0.0681                 0.4067                 0.4937

                      4                      5                      6
                      A                      A                      A
 Frequencies --     51.1724                61.3099                91.4685
 Red. masses --      6.6065                 3.7046                 4.7455
 Frc consts  --      0.0102                 0.0082                 0.0234
 IR Inten    --      0.7918                 0.1758                 2.0676

                      7                      8                      9
                      A                      A                      A
 Frequencies --    112.1612               145.6914               157.2080
 Red. masses --      3.6136                 4.9683                 2.4406
 Frc consts  --      0.0268                 0.0621                 0.0355
 IR Inten    --      0.3578                 2.5475                 0.3943

                     10                     11                     12
                      A                      A                      A
 Frequencies --    176.2030               187.1188               201.4820
 Red. masses --      1.8385                 2.7913                 3.4207
 Frc consts  --      0.0336                 0.0576                 0.0818
 IR Inten    --      0.3753                 2.8107                 1.8846

                     13                     14                     15
                      A                      A                      A
 Frequencies --    231.8731               242.0050               258.9971
 Red. masses --      2.3873                 3.1491                 3.0191
 Frc consts  --      0.0756                 0.1087                 0.1193
 IR Inten    --      0.3261                 0.8935                 3.5117

                     16                     17                     18
                      A                      A                      A
 Frequencies --    280.4024               290.3562               328.9349
 Red. masses --      3.4704                 2.0889                 2.9029
 Frc consts  --      0.1608                 0.1038                 0.1851
 IR Inten    --      3.1622                 1.6217                 1.1769

                     19                     20                     21
                      A                      A                      A
 Frequencies --    337.9769               353.8225               367.7606
 Red. masses --      3.2630                 3.6965                 2.2842
 Frc consts  --      0.2196                 0.2727                 0.1820
 IR Inten    --      6.8609                 1.2472                 2.4955

                     22                     23                     24
                      A                      A                      A
 Frequencies --    419.4174               445.7971               476.6322
 Red. masses --      3.6670                 3.0172                 2.8092
 Frc consts  --      0.3801                 0.3533                 0.3760
 IR Inten    --      4.6885                 3.8535                 4.7272

                     25                     26                     27
                      A                      A                      A
 Frequencies --    488.6265               517.7489               549.0425
 Red. masses --      2.2481                 2.0519                 3.1294
 Frc consts  --      0.3162                 0.3241                 0.5558
 IR Inten    --      1.3645                 2.8973                 3.3227

                     28                     29                     30
                      A                      A                      A
 Frequencies --    598.5888               616.8580               620.6557
 Red. masses --      3.0549                 1.9381                 2.1560
 Frc consts  --      0.6449                 0.4345                 0.4893
 IR Inten    --     24.0042                83.6469                52.0484

                     31                     32                     33
                      A                      A                      A
 Frequencies --    637.3109               653.2145               703.2817
 Red. masses --      2.5839                 4.1246                 2.9509
 Frc consts  --      0.6183                 1.0369                 0.8599
 IR Inten    --     16.9426                20.2475                17.2556

                     34                     35                     36
                      A                      A                      A
 Frequencies --    722.5420               734.8609               754.3648
 Red. masses --      4.3385                 1.5134                 1.8568
 Frc consts  --      1.3345                 0.4815                 0.6225
 IR Inten    --      2.0783                 9.6288                40.1244

                     37                     38                     39
                      A                      A                      A
 Frequencies --    774.9600               787.2298               799.3768
 Red. masses --      2.9362                 2.9017                 3.9864
 Frc consts  --      1.0390                 1.0595                 1.5008
 IR Inten    --     41.9715                 9.0235                38.5695

                     40                     41                     42
                      A                      A                      A
 Frequencies --    823.6841               859.3837               862.5173
 Red. masses --      1.7031                 1.3658                 2.0079
 Frc consts  --      0.6808                 0.5943                 0.8801
 IR Inten    --      0.6273                 3.0391                 3.3708

                     43                     44                     45
                      A                      A                      A
 Frequencies --    871.3351               883.4104               918.1766
 Red. masses --      1.7967                 2.0298                 6.0465
 Frc consts  --      0.8037                 0.9333                 3.0034
 IR Inten    --     11.5359                 2.1524                12.4233

                     46                     47                     48
                      A                      A                      A
 Frequencies --    942.9240               973.4315               975.6998
 Red. masses --      2.1351                 1.8503                 1.8361
 Frc consts  --      1.1185                 1.0330                 1.0299
 IR Inten    --      7.1171                19.9563                 5.4755

                     49                     50                     51
                      A                      A                      A
 Frequencies --    987.2707              1014.2732              1051.6104
 Red. masses --      2.1776                 2.1955                 2.1118
 Frc consts  --      1.2505                 1.3307                 1.3760
 IR Inten    --      4.0484                 6.2296                 8.9230

                     52                     53                     54
                      A                      A                      A
 Frequencies --   1066.1023              1078.4028              1079.6241
 Red. masses --      2.1907                 1.4696                 1.9607
 Frc consts  --      1.4670                 1.0070                 1.3465
 IR Inten    --      5.3748                 0.8869                14.4510

                     55                     56                     57
                      A                      A                      A
 Frequencies --   1087.6185              1115.6355              1130.3178
 Red. masses --      1.8953                 2.0673                 2.6478
 Frc consts  --      1.3209                 1.5160                 1.9932
 IR Inten    --     11.0794                 3.8605                33.3551

                     58                     59                     60
                      A                      A                      A
 Frequencies --   1138.6447              1143.8674              1170.4764
 Red. masses --      2.1392                 2.5145                 2.8670
 Frc consts  --      1.6341                 1.9384                 2.3142
 IR Inten    --     40.3953                 4.3448                88.5839

                     61                     62                     63
                      A                      A                      A
 Frequencies --   1172.5366              1200.0499              1223.2463
 Red. masses --      2.5056                 2.3591                 2.1200
 Frc consts  --      2.0296                 2.0017                 1.8690
 IR Inten    --     37.3205                72.7199                82.0071

                     64                     65                     66
                      A                      A                      A
 Frequencies --   1239.0770              1246.4357              1264.4396
 Red. masses --      1.9622                 1.3207                 2.9603
 Frc consts  --      1.7749                 1.2089                 2.7886
 IR Inten    --      3.2176                 0.9003                44.5495

                     67                     68                     69
                      A                      A                      A
 Frequencies --   1269.1112              1285.3666              1323.9375
 Red. masses --      1.4434                 1.2067                 1.2334
 Frc consts  --      1.3697                 1.1746                 1.2738
 IR Inten    --      9.7494                 8.7461                 3.1617

                     70                     71                     72
                      A                      A                      A
 Frequencies --   1329.6642              1336.9115              1362.9001
 Red. masses --      1.3198                 1.1624                 1.5008
 Frc consts  --      1.3748                 1.2241                 1.6424
 IR Inten    --      4.9963                 0.1870                13.2922

                     73                     74                     75
                      A                      A                      A
 Frequencies --   1372.2525              1382.8521              1388.3226
 Red. masses --      2.3130                 1.4529                 1.5047
 Frc consts  --      2.5663                 1.6369                 1.7087
 IR Inten    --    158.0532                16.5338                 3.3835

                     76                     77                     78
                      A                      A                      A
 Frequencies --   1401.4141              1412.1920              1416.4058
 Red. masses --      1.3926                 1.4506                 1.3820
 Frc consts  --      1.6114                 1.7044                 1.6335
 IR Inten    --      1.4767                 3.1836                 2.8201

                     79                     80                     81
                      A                      A                      A
 Frequencies --   1421.1908              1423.1739              1443.6091
 Red. masses --      1.4936                 1.5720                 1.2940
 Frc consts  --      1.7775                 1.8759                 1.5889
 IR Inten    --      5.9172                 1.6866                 8.0170

                     82                     83                     84
                      A                      A                      A
 Frequencies --   1466.4103              1489.2241              1506.9890
 Red. masses --      5.1567                 1.3805                 1.0604
 Frc consts  --      6.5333                 1.8039                 1.4188
 IR Inten    --    161.6285                36.2243                13.6555

                     85                     86                     87
                      A                      A                      A
 Frequencies --   1513.7655              1514.5143              1517.7456
 Red. masses --      1.0842                 1.1280                 1.0907
 Frc consts  --      1.4638                 1.5244                 1.4803
 IR Inten    --      1.8125                 7.9974                 0.0634

                     88                     89                     90
                      A                      A                      A
 Frequencies --   1518.4347              1521.9009              1535.9340
 Red. masses --      1.0893                 1.0984                 1.0855
 Frc consts  --      1.4798                 1.4990                 1.5088
 IR Inten    --      4.1627                 0.9845                 4.8239

                     91                     92                     93
                      A                      A                      A
 Frequencies --   1537.3697              1548.1310              1571.9057
 Red. masses --      1.0827                 1.0832                 4.3359
 Frc consts  --      1.5078                 1.5296                 6.3123
 IR Inten    --     21.4101                17.3572                19.2648

                     94                     95                     96
                      A                      A                      A
 Frequencies --   1649.5700              1772.3102              1836.9232
 Red. masses --      6.8656                 8.1414                10.0867
 Frc consts  --     11.0070                15.0670                20.0531
 IR Inten    --     30.5946               365.5546               230.0305

                     97                     98                     99
                      A                      A                      A
 Frequencies --   3020.3346              3020.9043              3026.0273
 Red. masses --      1.0733                 1.0682                 1.0642
 Frc consts  --      5.7687                 5.7435                 5.7414
 IR Inten    --     47.6829                 7.3511                19.9730

                    100                    101                    102
                      A                      A                      A
 Frequencies --   3033.9285              3037.4976              3046.4530
 Red. masses --      1.0655                 1.0632                 1.0427
 Frc consts  --      5.7783                 5.7798                 5.7016
 IR Inten    --     14.6631                 5.7050                21.8107

                    103                    104                    105
                      A                      A                      A
 Frequencies --   3047.4795              3058.2011              3065.7585
 Red. masses --      1.0685                 1.0741                 1.0947
 Frc consts  --      5.8467                 5.9190                 6.0619
 IR Inten    --     26.9927                27.3591                53.6729

                    106                    107                    108
                      A                      A                      A
 Frequencies --   3071.8973              3077.9897              3079.8115
 Red. masses --      1.0991                 1.0991                 1.0981
 Frc consts  --      6.1110                 6.1352                 6.1369
 IR Inten    --     59.2058                27.9859                84.2183

                    109                    110                    111
                      A                      A                      A
 Frequencies --   3097.5675              3111.7103              3115.3914
 Red. masses --      1.0987                 1.0938                 1.0931
 Frc consts  --      6.2114                 6.2402                 6.2508
 IR Inten    --     17.4063                16.4841                24.7333

                    112                    113                    114
                      A                      A                      A
 Frequencies --   3163.4746              3174.2214              3283.1786
 Red. masses --      1.0884                 1.0971                 1.0906
 Frc consts  --      6.4175                 6.5130                 6.9264
 IR Inten    --     11.0255                 0.9576                 0.3579

                    115                    116                    117
                      A                      A                      A
 Frequencies --   3308.7702              3553.9020              3687.9740
 Red. masses --      1.1065                 1.0742                 1.0642
 Frc consts  --      7.1374                 7.9934                 8.5278
 IR Inten    --      1.8184                18.1662                60.7056

 - Thermochemistry -
 -------------------
 Temperature   298.150 Kelvin.  Pressure   1.00000 Atm.
 Atom     1 has atomic number  6 and mass  12.00000

 Molecular mass:   279.14706 amu.
 Principal axes and moments of inertia in atomic units:
                           1         2         3
     Eigenvalues --  3075.824999761.26775**********
           X            0.99987  -0.01413   0.00737
           Y            0.01390   0.99944   0.03040
           Z           -0.00780  -0.03029   0.99951
 This molecule is an asymmetric top.
 Rotational symmetry number  1.
 Warning -- assumption of classical behavior for rotation
           may cause significant error
 Rotational temperatures (Kelvin)      0.02816     0.00887     0.00866
 Rotational constants (GHZ):           0.58675     0.18489     0.18037
 Zero-point vibrational energy     920883.1 (Joules/Mol)
                                  220.09634 (Kcal/Mol)
 Warning -- explicit consideration of  30 degrees of freedom as
           vibrations may cause significant error
 Vibrational temperatures:     46.35    46.95    65.09    73.63    88.21
          (Kelvin)            131.60   161.37   209.62   226.19   253.52
                              269.22   289.89   333.61   348.19   372.64
                              403.44   417.76   473.26   486.27   509.07
                              529.13   603.45   641.40   685.77   703.02
                              744.93   789.95   861.24   887.52   892.99
                              916.95   939.83  1011.87  1039.58  1057.30
                             1085.36  1114.99  1132.65  1150.12  1185.10
                             1236.46  1240.97  1253.66  1271.03  1321.05
                             1356.66  1400.55  1403.81  1420.46  1459.31
                             1513.03  1533.88  1551.58  1553.34  1564.84
                             1605.15  1626.28  1638.26  1645.77  1684.05
                             1687.02  1726.60  1759.98  1782.76  1793.34
                             1819.25  1825.97  1849.36  1904.85  1913.09
                             1923.52  1960.91  1974.37  1989.62  1997.49
                             2016.32  2031.83  2037.89  2044.78  2047.63
                             2077.03  2109.84  2142.66  2168.22  2177.97
                             2179.05  2183.70  2184.69  2189.68  2209.87
                             2211.93  2227.42  2261.62  2373.36  2549.96
                             2642.92  4345.59  4346.41  4353.78  4365.15
                             4370.28  4383.17  4384.64  4400.07  4410.94
                             4419.78  4428.54  4431.16  4456.71  4477.06
                             4482.35  4551.53  4567.00  4723.76  4760.58
                             5113.27  5306.17

 Zero-point correction=                           0.350746 (Hartree/Particle)
 Thermal correction to Energy=                    0.370030
 Thermal correction to Enthalpy=                  0.370974
 Thermal correction to Gibbs Free Energy=         0.301993
 Sum of electronic and zero-point Energies=           -939.628467
 Sum of electronic and thermal Energies=              -939.609183
 Sum of electronic and thermal Enthalpies=            -939.608239
 Sum of electronic and thermal Free Energies=         -939.677220

                     E (Thermal)             CV                S
                      KCal/Mol        Cal/Mol-Kelvin    Cal/Mol-Kelvin
 Total                  232.197             73.790            145.181
 Electronic               0.000              0.000              0.000
 Translational            0.889              2.981             42.778
 Rotational               0.889              2.981             34.062
 Vibrational            230.420             67.828             68.341
 Vibration     1          0.594              1.983              5.688
 Vibration     2          0.594              1.983              5.663
 Vibration     3          0.595              1.979              5.015
 Vibration     4          0.595              1.977              4.772
 Vibration     5          0.597              1.973              4.415
 Vibration     6          0.602              1.955              3.628
 Vibration     7          0.607              1.939              3.231
 Vibration     8          0.617              1.907              2.728
 Vibration     9          0.621              1.895              2.583
 Vibration    10          0.628              1.872              2.368
 Vibration    11          0.632              1.858              2.256
 Vibration    12          0.638              1.838              2.120
 Vibration    13          0.653              1.792              1.864
 Vibration    14          0.658              1.776              1.788
 Vibration    15          0.668              1.748              1.669
 Vibration    16          0.680              1.710              1.531
 Vibration    17          0.686              1.692              1.472
 Vibration    18          0.712              1.618              1.265
 Vibration    19          0.718              1.600              1.222
 Vibration    20          0.730              1.567              1.149
 Vibration    21          0.740              1.539              1.089
 Vibration    22          0.782              1.428              0.894
 Vibration    23          0.805              1.370              0.809
 Vibration    24          0.833              1.302              0.719
 Vibration    25          0.845              1.275              0.687
 Vibration    26          0.873              1.211              0.615
 Vibration    27          0.904              1.142              0.546
 Vibration    28          0.957              1.035              0.452
 Vibration    29          0.977              0.996              0.422
 Vibration    30          0.981              0.988              0.415

                           ! Non-Optimized Parameters !
 Normal termination of Gaussian 16 at Sat Dec 12 17:15:49 2020.

 ----------------------------------------------------------------------
 # B3LYP/6-311++G(d,p) empiricaldispersion=gd3bj scf=xqc pop=npa geom=c
 heck
 ----------------------------------------------------------------------

 ----------------------------------------
 CID_115443378_JID_10953_Energie_neutraal
 ----------------------------------------
 Structure from the checkpoint file:  "JID_10953.chk"
 Charge =  0 Multiplicity = 1

 SCF Done:  E(RB3LYP) =  -940.253356106     A.U. after   17 cycles
 Normal termination of Gaussian 16 at Sat Dec 12 17:28:33 2020.

 ----------------------------------------------------------------------
 # B3LYP/6-311++G(d,p) empiricaldispersion=gd3bj scf=xqc pop=npa geom=c
 heck
 ----------------------------------------------------------------------

 --------------------------------------
 CID_115443378_JID_10953_Energie_kation
 --------------------------------------
 Structure from the checkpoint file:  "JID_10953.chk"
 Charge =  1 Multiplicity = 2

 SCF Done:  E(UB3LYP) =  -939.942361475     A.U. after   33 cycles
 SCF Done:  E(UB3LYP) =  -939.943575022     a.u. after   11 cycles
 Normal termination of Gaussian 16 at Sat Dec 12 22:45:21 2020.
 Gaussian 16:  ES64L-G16RevA.03 25-Dec-2016

 ----------------------------------------------------------------------
 # B3LYP/6-311++G(d,p) empiricaldispersion=gd3bj scf=xqc pop=npa geom=c
 heck
 ----------------------------------------------------------------------

 -------------------------------------
 CID_115443378_JID_10953_Energie_anion
 -------------------------------------
 Structure from the checkpoint file:  "JID_10953.chk"
 Charge = -1 Multiplicity = 2

                         Standard orientation:
 ---------------------------------------------------------------------
 Center     Atomic      Atomic             Coordinates (Angstroms)
 Number     Number       Type             X           Y           Z
 ---------------------------------------------------------------------
      1          6           0        2.548943   -1.973101   -0.578860
      2          6           0        3.168882   -0.622726   -0.633346
      3          6           0        2.993497    0.541061    0.073959
      4          6           0        4.005516    1.456404   -0.387809
      5          6           0        4.695800    0.803030   -1.353049
      6          8           0        4.204999   -0.468119   -1.509303
      7          6           0        2.081520    0.836663    1.204261
      8          8           0        2.467548    1.470032    2.180156
      9          7           0        0.784355    0.353920    1.137952
     10          6           0        0.007518    0.262837   -0.098774
     11          6           0       -1.439506   -0.212505    0.172439
     12          6           0       -2.258045    0.891452    0.884490
     13          6           0       -2.875813    1.969255   -0.022576
     14          6           0       -4.270836    1.596016   -0.549551
     15          6           0       -4.309814    0.485412   -1.605578
     16          6           0       -3.565840   -0.807230   -1.238829
     17          6           0       -2.037402   -0.638407   -1.194186
     18          6           0       -1.368821   -1.432397    1.095268
     19          8           0       -1.856772   -1.518698    2.199995
     20          8           0       -0.675665   -2.462543    0.542095
     21          1           0        3.317394   -2.739949   -0.427426
     22          1           0        1.831360   -2.025440    0.240955
     23          1           0        2.021807   -2.216469   -1.510252
     24          1           0        4.162988    2.460514   -0.022962
     25          1           0        5.521553    1.065607   -1.995553
     26          1           0        0.262321    0.673211    1.948602
     27          1           0       -0.047541    1.233841   -0.612683
     28          1           0        0.492197   -0.437122   -0.777865
     29          1           0       -3.053004    0.417824    1.466537
     30          1           0       -1.616345    1.373934    1.631086
     31          1           0       -2.205700    2.218377   -0.857081
     32          1           0       -2.972135    2.889966    0.564806
     33          1           0       -4.746723    2.490755   -0.971405
     34          1           0       -4.888218    1.298083    0.309856
     35          1           0       -3.883144    0.866592   -2.544923
     36          1           0       -5.359349    0.248257   -1.822507
     37          1           0       -3.806010   -1.564993   -1.994198
     38          1           0       -3.936085   -1.204812   -0.283832
     39          1           0       -1.744441    0.111266   -1.940552
     40          1           0       -1.546689   -1.568828   -1.492758
     41          1           0       -0.669184   -3.168016    1.215799
 ---------------------------------------------------------------------

 SCF Done:  E(UB3LYP) =  -940.245603614     A.U. after   33 cycles
 SCF Done:  E(UB3LYP) =  -940.245603614     a.u. after    1 cycles

 The electronic state is 2-A.
 Alpha  occ. eigenvalues --  -19.09938 -19.07548 -19.02438 -18.99029 -14.23664
 Alpha  occ. eigenvalues --  -10.21189 -10.17500 -10.14146 -10.13534 -10.12054
 Alpha  occ. eigenvalues --  -10.11250 -10.08774 -10.08592 -10.08346 -10.07945
 Alpha  occ. eigenvalues --  -10.07933 -10.07858 -10.07499 -10.07433 -10.07312
 Alpha  occ. eigenvalues --   -1.02489  -1.01808  -0.94134  -0.92881  -0.82952
 Alpha  occ. eigenvalues --   -0.75126  -0.72129  -0.69845  -0.69506  -0.67400
 Alpha  occ. eigenvalues --   -0.61424  -0.60409  -0.57566  -0.56976  -0.54994
 Alpha  occ. eigenvalues --   -0.52214  -0.49645  -0.47880  -0.46155  -0.45387
 Alpha  occ. eigenvalues --   -0.43508  -0.41665  -0.40463  -0.39389  -0.38372
 Alpha  occ. eigenvalues --   -0.37873  -0.37750  -0.36958  -0.36087  -0.34323
 Alpha  occ. eigenvalues --   -0.33943  -0.33658  -0.32513  -0.31830  -0.31775
 Alpha  occ. eigenvalues --   -0.31566  -0.31258  -0.30711  -0.30188  -0.29773
 Alpha  occ. eigenvalues --   -0.29644  -0.28358  -0.27514  -0.25534  -0.24541
 Alpha  occ. eigenvalues --   -0.23718  -0.23516  -0.23300  -0.22402  -0.22148
 Alpha  occ. eigenvalues --   -0.19724  -0.18995  -0.17395  -0.15619  -0.14292
 Alpha  occ. eigenvalues --    0.04008
 Alpha virt. eigenvalues --    0.05821   0.06068   0.06641   0.07226   0.07580
 Alpha virt. eigenvalues --    0.08369   0.08538   0.08628   0.09393   0.09678
 Alpha virt. eigenvalues --    0.09965   0.10173   0.10787   0.10997   0.11689

  Beta  occ. eigenvalues --  -19.09887 -19.07503 -19.02407 -18.98938 -14.23671
  Beta  occ. eigenvalues --  -10.21160 -10.17409 -10.14019 -10.13532 -10.12038
  Beta  occ. eigenvalues --  -10.11246 -10.08773 -10.08603 -10.08339 -10.07930
  Beta  occ. eigenvalues --  -10.07928 -10.07842 -10.07484 -10.07418 -10.07295
  Beta  occ. eigenvalues --   -1.02392  -1.01734  -0.93970  -0.92812  -0.82905
  Beta  occ. eigenvalues --   -0.75091  -0.72068  -0.69807  -0.69395  -0.67369
  Beta  occ. eigenvalues --   -0.61365  -0.60370  -0.57485  -0.56928  -0.54888
  Beta  occ. eigenvalues --   -0.52140  -0.49560  -0.47823  -0.46099  -0.45325
  Beta  occ. eigenvalues --   -0.43451  -0.41619  -0.40414  -0.39326  -0.38265
  Beta  occ. eigenvalues --   -0.37749  -0.37577  -0.36897  -0.36038  -0.34231
  Beta  occ. eigenvalues --   -0.33892  -0.33615  -0.32378  -0.31785  -0.31717
  Beta  occ. eigenvalues --   -0.31483  -0.31203  -0.30658  -0.30113  -0.29641
  Beta  occ. eigenvalues --   -0.29548  -0.28322  -0.27377  -0.25496  -0.24495
  Beta  occ. eigenvalues --   -0.23675  -0.23478  -0.23238  -0.22366  -0.22107
  Beta  occ. eigenvalues --   -0.19591  -0.18920  -0.17302  -0.15466  -0.13950
  Beta virt. eigenvalues --    0.06143   0.06572   0.06951   0.07089   0.07768
  Beta virt. eigenvalues --    0.07820   0.08691   0.08726   0.09154   0.09474
  Beta virt. eigenvalues --    0.09914   0.10172   0.10461   0.10871   0.11200

 Mulliken charges and spin densities:
               1          2
     1  C    0.022927  -0.831755
     2  C   -0.454942   0.492863
     3  C    0.598354  -0.066612
     4  C    0.220643  -0.126045
     5  C   -0.251808   0.071305
     6  O    0.009180   0.020143
     7  C   -0.616526   0.033666
     8  O   -0.324614   0.030037
     9  N   -0.031374  -0.026238
    10  C    0.022030  -0.918718
    11  C   -0.013423   0.800342
    12  C   -0.041865  -0.211113
    13  C   -0.147750  -0.067408
    14  C   -0.069325  -0.328290
    15  C    0.416515  -0.863854
    16  C   -0.676766   0.592090
    17  C    0.223732  -0.839976
    18  C   -0.159029  -0.171417
    19  O   -0.193981   0.021665
    20  O   -0.127604   0.045051
    21  H    0.090410   0.076170
    22  H    0.255489  -0.030173
    23  H   -0.280116   0.487579
    24  H    0.147977   0.038118
    25  H    0.096186   0.063108
    26  H    0.330773   0.023956
    27  H   -0.004836   0.206031
    28  H    0.469741  -0.263809
    29  H    0.135267   0.084453
    30  H    0.214647  -0.104297
    31  H    0.087064   0.048118
    32  H   -0.068199   0.237316
    33  H   -0.190544   0.346573
    34  H    0.062140   0.069390
    35  H   -0.029371   0.174579
    36  H   -0.186136   0.348271
    37  H   -0.454700   0.647432
    38  H    0.134130   0.030961
    39  H   -0.138283   0.259553
    40  H    0.181618   0.049927
    41  H   -0.257632   0.551008
 Sum of Mulliken charges =  -1.00000   1.00000

 Dipole moment (field-independent basis, Debye):
    X=              3.5464    Y=              2.4383    Z=             -0.4782  Tot=              4.3303
 Quadrupole moment (field-independent basis, Debye-Ang):
   XX=           -194.6107   YY=           -166.6449   ZZ=           -166.0483
   XY=             -1.5021   XZ=            -17.3265   YZ=             -5.0245

 Summary of Natural Population Analysis:

                                       Natural Population
                Natural  -----------------------------------------------
    Atom  No    Charge         Core      Valence    Rydberg      Total
 -----------------------------------------------------------------------
      C    1   -0.31696      0.99962     2.31119    0.00615     3.31696
      C    2    0.19616      0.99945     1.79106    0.01334     2.80384
      C    3   -0.11919      0.99941     2.11027    0.00952     3.11919
      C    4   -0.13091      0.99953     2.12269    0.00869     3.13091
      C    5    0.04781      0.99951     1.93898    0.01370     2.95219
      O    6   -0.23433      0.99986     3.22681    0.00767     4.23433
      C    7    0.35261      0.99962     1.62626    0.02150     2.64739
      O    8   -0.30836      0.99988     3.30336    0.00513     4.30836
      N    9   -0.32813      0.99968     2.82019    0.00827     3.82813
      C   10   -0.08272      0.99956     2.07151    0.01164     3.08272
      C   11   -0.07721      0.99950     2.06395    0.01376     3.07721
      C   12   -0.19300      0.99959     2.18417    0.00924     3.19300
      C   13   -0.19417      0.99962     2.18610    0.00844     3.19417
      C   14   -0.18688      0.99962     2.17890    0.00836     3.18688
      C   15   -0.18568      0.99962     2.17807    0.00799     3.18568
      C   16   -0.19488      0.99962     2.18595    0.00931     3.19488
      C   17   -0.19008      0.99959     2.17962    0.01086     3.19008
      C   18    0.42102      0.99963     1.55187    0.02748     2.57898
      O   19   -0.30529      0.99987     3.29957    0.00586     4.30529
      O   20   -0.34829      0.99987     3.34025    0.00817     4.34829
      H   21    0.10854      0.00000     0.39054    0.00092     0.39146
      H   22    0.11984      0.00000     0.37877    0.00139     0.38016
      H   23    0.11292      0.00000     0.38541    0.00167     0.38708
      H   24    0.11302      0.00000     0.38619    0.00079     0.38698
      H   25    0.09299      0.00000     0.40619    0.00082     0.40701
      H   26    0.19120      0.00000     0.30593    0.00287     0.30880
      H   27    0.09362      0.00000     0.40493    0.00146     0.40638
      H   28    0.10569      0.00000     0.39170    0.00261     0.39431
      H   29    0.11080      0.00000     0.38787    0.00133     0.38920
      H   30    0.09772      0.00000     0.40110    0.00118     0.40228
      H   31    0.09536      0.00000     0.40334    0.00130     0.40464
      H   32    0.10055      0.00000     0.39861    0.00083     0.39945
      H   33    0.09838      0.00000     0.40056    0.00106     0.40162
      H   34    0.09135      0.00000     0.40743    0.00122     0.40865
      H   35    0.09198      0.00000     0.40663    0.00139     0.40802
      H   36    0.09882      0.00000     0.40006    0.00113     0.40118
      H   37    0.10395      0.00000     0.39481    0.00124     0.39605
      H   38    0.09618      0.00000     0.40247    0.00135     0.40382
      H   39    0.09781      0.00000     0.40064    0.00155     0.40219
      H   40    0.11385      0.00000     0.38392    0.00222     0.38615
      H   41    0.24391      0.00000     0.24829    0.00780     0.25609
 =======================================================================
   * Total *   -0.00000     19.99265    54.75613    0.25122    75.00000

 Normal termination of Gaussian 16 at Sat Dec 12 23:20:51 2020.
