 Gaussian 16, Revision A.03,

 -----------------------------------------------------------
 # opt freq B3LYP/6-31G(d) empiricaldispersion=gd3bj scf=xqc
 -----------------------------------------------------------

 -------------------------------
 CID_112568231_JID_5811_neutraal
 -------------------------------
 Symbolic Z-matrix:
 Charge =  0 Multiplicity = 1

 SCF Done:  E(RB3LYP) =  -747.016735289     A.U. after   14 cycles
 SCF Done:  E(RB3LYP) =  -747.021370641     A.U. after   12 cycles
 SCF Done:  E(RB3LYP) =  -747.021150258     A.U. after   13 cycles
 SCF Done:  E(RB3LYP) =  -747.022533385     A.U. after   12 cycles
 SCF Done:  E(RB3LYP) =  -747.022705879     A.U. after   11 cycles
 SCF Done:  E(RB3LYP) =  -747.022745257     A.U. after   11 cycles
 SCF Done:  E(RB3LYP) =  -747.022761065     A.U. after   10 cycles
 SCF Done:  E(RB3LYP) =  -747.022771262     A.U. after    9 cycles
 SCF Done:  E(RB3LYP) =  -747.022778033     A.U. after    9 cycles
 SCF Done:  E(RB3LYP) =  -747.022789551     A.U. after   11 cycles
 SCF Done:  E(RB3LYP) =  -747.031019348     A.U. after   11 cycles
 SCF Done:  E(RB3LYP) =  -747.031032074     A.U. after   10 cycles
 SCF Done:  E(RB3LYP) =  -747.031037664     A.U. after   10 cycles
 SCF Done:  E(RB3LYP) =  -747.031038287     A.U. after    8 cycles
 SCF Done:  E(RB3LYP) =  -747.031038462     A.U. after    8 cycles
 Optimization completed.
    -- Stationary point found.
 Normal termination of Gaussian 16 at Thu Dec 10 17:58:58 2020.

 --------------------------------------------------------------------
 #N Geom=AllCheck Guess=TCheck SCRF=Check GenChk RB3LYP/6-31G(d) Freq
 --------------------------------------------------------------------

 Structure from the checkpoint file:  "JID_5811.chk"
 -------------------------------
 CID_112568231_JID_5811_neutraal
 -------------------------------
 Charge =  0 Multiplicity = 1

 SCF Done:  E(RB3LYP) =  -747.031038462     A.U. after    1 cycles

  Exact polarizability: 137.454  -3.000 115.700   2.067  -4.775 100.768
 Approx polarizability: 168.600  -3.980 168.629   4.467 -12.963 165.917

                      1                      2                      3
                      A                      A                      A
 Frequencies --     35.8298                41.3050                57.2886
 Red. masses --      3.3025                 7.2673                 4.4212
 Frc consts  --      0.0025                 0.0073                 0.0085
 IR Inten    --      0.4880                 2.6834                 0.0211

                      4                      5                      6
                      A                      A                      A
 Frequencies --     69.7258               111.9175               113.2302
 Red. masses --      6.1297                 2.9147                 4.4566
 Frc consts  --      0.0176                 0.0215                 0.0337
 IR Inten    --      0.7881                 0.0680                 0.7365

                      7                      8                      9
                      A                      A                      A
 Frequencies --    136.3422               178.9236               206.4359
 Red. masses --      6.2465                 3.1107                 3.6605
 Frc consts  --      0.0684                 0.0587                 0.0919
 IR Inten    --      0.1925                 0.9092                 1.3297

                     10                     11                     12
                      A                      A                      A
 Frequencies --    241.9330               268.8393               283.1530
 Red. masses --      1.7362                 2.4101                 1.9852
 Frc consts  --      0.0599                 0.1026                 0.0938
 IR Inten    --      1.6695                 1.2527                 1.0286

                     13                     14                     15
                      A                      A                      A
 Frequencies --    305.0957               339.6112               391.4731
 Red. masses --      4.4687                 3.8096                 2.3742
 Frc consts  --      0.2451                 0.2589                 0.2144
 IR Inten    --      1.8627                 1.9548                 2.6632

                     16                     17                     18
                      A                      A                      A
 Frequencies --    401.7725               437.8928               460.1742
 Red. masses --      2.0171                 3.0241                 2.6858
 Frc consts  --      0.1918                 0.3416                 0.3351
 IR Inten    --      1.4993                 0.1256                 5.3626

                     19                     20                     21
                      A                      A                      A
 Frequencies --    495.6817               523.7724               570.9006
 Red. masses --      2.9832                 3.9140                 2.4945
 Frc consts  --      0.4319                 0.6326                 0.4790
 IR Inten    --      1.6565                19.2400                21.6448

                     22                     23                     24
                      A                      A                      A
 Frequencies --    592.3871               612.7894               668.8279
 Red. masses --      2.0257                 2.6433                 1.7530
 Frc consts  --      0.4188                 0.5848                 0.4620
 IR Inten    --     68.3547                81.2912                64.0378

                     25                     26                     27
                      A                      A                      A
 Frequencies --    676.6434               731.4662               749.1829
 Red. masses --      1.7423                 2.8405                 2.8678
 Frc consts  --      0.4700                 0.8954                 0.9484
 IR Inten    --     31.3830                39.1576                 0.5532

                     28                     29                     30
                      A                      A                      A
 Frequencies --    767.0961               808.1310               841.1389
 Red. masses --      3.3443                 1.5042                 2.5617
 Frc consts  --      1.1594                 0.5788                 1.0679
 IR Inten    --     47.1821                 7.3891                 4.8841

                     31                     32                     33
                      A                      A                      A
 Frequencies --    859.3954               873.0400               908.2580
 Red. masses --      2.6906                 2.4691                 1.3913
 Frc consts  --      1.1708                 1.1088                 0.6762
 IR Inten    --      4.3168                 7.7767                 3.4793

                     34                     35                     36
                      A                      A                      A
 Frequencies --    946.1926               979.9196               994.6704
 Red. masses --      2.8874                 1.8990                 2.1121
 Frc consts  --      1.5231                 1.0744                 1.2312
 IR Inten    --      5.0878                 3.0952                18.2168

                     37                     38                     39
                      A                      A                      A
 Frequencies --   1028.7152              1055.7463              1061.9396
 Red. masses --      1.8371                 2.1930                 2.0155
 Frc consts  --      1.1455                 1.4402                 1.3392
 IR Inten    --     22.3816                24.5570                 3.4441

                     40                     41                     42
                      A                      A                      A
 Frequencies --   1103.4649              1112.9502              1128.1327
 Red. masses --      2.2832                 1.9115                 2.0231
 Frc consts  --      1.6380                 1.3950                 1.5170
 IR Inten    --     20.7795                 2.2335                36.8538

                     43                     44                     45
                      A                      A                      A
 Frequencies --   1144.3246              1179.0216              1188.2323
 Red. masses --      2.5021                 2.0257                 1.7333
 Frc consts  --      1.9304                 1.6591                 1.4419
 IR Inten    --     38.8043               230.3064                 9.5461

                     46                     47                     48
                      A                      A                      A
 Frequencies --   1196.3825              1219.4630              1249.8049
 Red. masses --      2.0440                 2.2349                 1.6577
 Frc consts  --      1.7238                 1.9581                 1.5256
 IR Inten    --    170.7542                75.6468                22.5136

                     49                     50                     51
                      A                      A                      A
 Frequencies --   1259.6851              1277.1931              1311.0395
 Red. masses --      1.1763                 1.4440                 1.2856
 Frc consts  --      1.0998                 1.3878                 1.3020
 IR Inten    --      7.2841                23.4477                 4.0936

                     52                     53                     54
                      A                      A                      A
 Frequencies --   1322.6804              1336.8869              1349.2363
 Red. masses --      1.3105                 1.4831                 1.5160
 Frc consts  --      1.3508                 1.5617                 1.6260
 IR Inten    --      1.9763                 9.6713                 2.6444

                     55                     56                     57
                      A                      A                      A
 Frequencies --   1359.5276              1365.9576              1386.3509
 Red. masses --      1.4748                 1.5978                 1.6459
 Frc consts  --      1.6060                 1.7565                 1.8638
 IR Inten    --     17.6708                24.1472                14.5670

                     58                     59                     60
                      A                      A                      A
 Frequencies --   1394.7964              1407.0986              1411.2400
 Red. masses --      1.5807                 1.3036                 1.9526
 Frc consts  --      1.8118                 1.5207                 2.2913
 IR Inten    --     31.1278                36.9238                11.3113

                     61                     62                     63
                      A                      A                      A
 Frequencies --   1419.2279              1427.3183              1447.1018
 Red. masses --      1.3956                 1.7061                 1.3185
 Frc consts  --      1.6562                 2.0478                 1.6268
 IR Inten    --     23.9728                 9.1204                11.2884

                     64                     65                     66
                      A                      A                      A
 Frequencies --   1449.7582              1503.1463              1513.8446
 Red. masses --      1.4712                 1.0854                 1.0717
 Frc consts  --      1.8219                 1.4449                 1.4470
 IR Inten    --     19.8600                 5.7239                 0.0716

                     67                     68                     69
                      A                      A                      A
 Frequencies --   1518.4128              1525.7112              1530.4525
 Red. masses --      1.0918                 1.0857                 1.0572
 Frc consts  --      1.4831                 1.4890                 1.4590
 IR Inten    --      9.9782                 0.7381                10.6086

                     70                     71                     72
                      A                      A                      A
 Frequencies --   1537.3906              1540.9334              1834.6912
 Red. masses --      1.0790                 1.0820                10.0680
 Frc consts  --      1.5026                 1.5137                19.9673
 IR Inten    --     11.1466                 2.0183               322.0023

                     73                     74                     75
                      A                      A                      A
 Frequencies --   1842.2123              2922.7787              2935.9724
 Red. masses --      9.8850                 1.0739                 1.0717
 Frc consts  --     19.7655                 5.4049                 5.4430
 IR Inten    --    163.6685                45.1513               105.0059

                     76                     77                     78
                      A                      A                      A
 Frequencies --   3004.8165              3022.1613              3035.6549
 Red. masses --      1.0810                 1.0633                 1.0610
 Frc consts  --      5.7506                 5.7221                 5.7608
 IR Inten    --     17.1946                20.2870                51.1761

                     79                     80                     81
                      A                      A                      A
 Frequencies --   3048.2631              3060.4916              3076.4038
 Red. masses --      1.0391                 1.1013                 1.0999
 Frc consts  --      5.6886                 6.0777                 6.1331
 IR Inten    --     23.4692                18.2127                29.9962

                     82                     83                     84
                      A                      A                      A
 Frequencies --   3083.8968              3085.5567              3094.3119
 Red. masses --      1.0833                 1.0779                 1.0743
 Frc consts  --      6.0703                 6.0462                 6.0606
 IR Inten    --      8.2804                18.5828                41.5725

                     85                     86                     87
                      A                      A                      A
 Frequencies --   3109.1730              3118.2248              3128.8213
 Red. masses --      1.1016                 1.0875                 1.1005
 Frc consts  --      6.2743                 6.2303                 6.3474
 IR Inten    --     46.2209                15.6086                52.2199

                     88                     89                     90
                      A                      A                      A
 Frequencies --   3147.5289              3684.9432              3688.9174
 Red. masses --      1.1018                 1.0639                 1.0640
 Frc consts  --      6.4313                 8.5113                 8.5309
 IR Inten    --     12.1033                52.0146                54.7255

 - Thermochemistry -
 -------------------
 Temperature   298.150 Kelvin.  Pressure   1.00000 Atm.
 Atom     1 has atomic number  6 and mass  12.00000

 Molecular mass:   215.11576 amu.
 Principal axes and moments of inertia in atomic units:
                           1         2         3
     Eigenvalues --  1781.191034713.284765657.19589
           X            0.99994   0.00867   0.00610
           Y           -0.00861   0.99992  -0.00954
           Z           -0.00618   0.00949   0.99994
 This molecule is an asymmetric top.
 Rotational symmetry number  1.
 Warning -- assumption of classical behavior for rotation
           may cause significant error
 Rotational temperatures (Kelvin)      0.04863     0.01838     0.01531
 Rotational constants (GHZ):           1.01322     0.38291     0.31902
 Zero-point vibrational energy     722953.7 (Joules/Mol)
                                  172.79009 (Kcal/Mol)
 Warning -- explicit consideration of  23 degrees of freedom as
           vibrations may cause significant error
 Vibrational temperatures:     51.55    59.43    82.43   100.32   161.02
          (Kelvin)            162.91   196.17   257.43   297.02   348.09
                              386.80   407.39   438.96   488.62   563.24
                              578.06   630.03   662.09   713.18   753.59
                              821.40   852.31   881.67   962.29   973.54
                             1052.42  1077.91  1103.68  1162.72  1210.21
                             1236.48  1256.11  1306.78  1361.36  1409.89
                             1431.11  1480.09  1518.98  1527.89  1587.64
                             1601.29  1623.13  1646.43  1696.35  1709.60
                             1721.33  1754.54  1798.19  1812.41  1837.60
                             1886.29  1903.04  1923.48  1941.25  1956.06
                             1965.31  1994.65  2006.80  2024.50  2030.46
                             2041.95  2053.59  2082.06  2085.88  2162.69
                             2178.08  2184.66  2195.16  2201.98  2211.96
                             2217.06  2639.71  2650.53  4205.23  4224.21
                             4323.26  4348.22  4367.63  4385.77  4403.36
                             4426.26  4437.04  4439.43  4452.02  4473.41
                             4486.43  4501.68  4528.59  5301.81  5307.53

 Zero-point correction=                           0.275359 (Hartree/Particle)
 Thermal correction to Energy=                    0.290437
 Thermal correction to Enthalpy=                  0.291381
 Thermal correction to Gibbs Free Energy=         0.232126
 Sum of electronic and zero-point Energies=           -746.755680
 Sum of electronic and thermal Energies=              -746.740601
 Sum of electronic and thermal Enthalpies=            -746.739657
 Sum of electronic and thermal Free Energies=         -746.798913

                     E (Thermal)             CV                S
                      KCal/Mol        Cal/Mol-Kelvin    Cal/Mol-Kelvin
 Total                  182.252             56.594            124.714
 Electronic               0.000              0.000              0.000
 Translational            0.889              2.981             42.001
 Rotational               0.889              2.981             32.229
 Vibrational            180.475             50.632             50.483
 Vibration     1          0.594              1.982              5.477
 Vibration     2          0.594              1.981              5.195
 Vibration     3          0.596              1.975              4.548
 Vibration     4          0.598              1.969              4.161
 Vibration     5          0.607              1.940              3.235
 Vibration     6          0.607              1.938              3.213
 Vibration     7          0.614              1.917              2.855
 Vibration     8          0.629              1.868              2.340
 Vibration     9          0.641              1.831              2.075
 Vibration    10          0.658              1.776              1.789
 Vibration    11          0.673              1.730              1.604
 Vibration    12          0.682              1.705              1.515
 Vibration    13          0.696              1.664              1.389
 Vibration    14          0.720              1.596              1.214
 Vibration    15          0.759              1.488              0.995
 Vibration    16          0.767              1.466              0.956
 Vibration    17          0.798              1.388              0.833
 Vibration    18          0.818              1.338              0.766
 Vibration    19          0.851              1.260              0.669
 Vibration    20          0.879              1.197              0.601
 Vibration    21          0.927              1.094              0.503
 Vibration    22          0.950              1.048              0.463
 Vibration    23          0.972              1.005              0.428

                           ! Non-Optimized Parameters !
 Normal termination of Gaussian 16 at Thu Dec 10 18:09:30 2020.

 ----------------------------------------------------------------------
 # B3LYP/6-311++G(d,p) empiricaldispersion=gd3bj scf=xqc pop=npa geom=c
 heck
 ----------------------------------------------------------------------

 ---------------------------------------
 CID_112568231_JID_5811_Energie_neutraal
 ---------------------------------------
 Structure from the checkpoint file:  "JID_5811.chk"
 Charge =  0 Multiplicity = 1

 SCF Done:  E(RB3LYP) =  -747.263057660     A.U. after   14 cycles
 Normal termination of Gaussian 16 at Thu Dec 10 18:13:33 2020.

 ----------------------------------------------------------------------
 # B3LYP/6-311++G(d,p) empiricaldispersion=gd3bj scf=xqc pop=npa geom=c
 heck
 ----------------------------------------------------------------------

 -------------------------------------
 CID_112568231_JID_5811_Energie_kation
 -------------------------------------
 Structure from the checkpoint file:  "JID_5811.chk"
 Charge =  1 Multiplicity = 2

 SCF Done:  E(UB3LYP) =  -746.971211142     A.U. after   20 cycles
 Normal termination of Gaussian 16 at Thu Dec 10 18:20:57 2020.
 Gaussian 16:  ES64L-G16RevA.03 25-Dec-2016

 ----------------------------------------------------------------------
 # B3LYP/6-311++G(d,p) empiricaldispersion=gd3bj scf=xqc pop=npa geom=c
 heck
 ----------------------------------------------------------------------

 ------------------------------------
 CID_112568231_JID_5811_Energie_anion
 ------------------------------------
 Structure from the checkpoint file:  "JID_5811.chk"
 Charge = -1 Multiplicity = 2

                         Standard orientation:
 ---------------------------------------------------------------------
 Center     Atomic      Atomic             Coordinates (Angstroms)
 Number     Number       Type             X           Y           Z
 ---------------------------------------------------------------------
      1          6           0       -4.169471   -1.270026   -0.509544
      2          6           0       -3.875749    0.224668   -0.352701
      3          6           0       -2.791135    0.585461    0.681150
      4          7           0       -1.414718    0.170265    0.428720
      5          6           0       -1.063723   -1.213365    0.727818
      6          6           0        0.455753   -1.364104    0.852008
      7          6           0        1.139944   -0.847100   -0.422240
      8          6           0        0.669845    0.573374   -0.777358
      9          6           0       -0.865248    0.613510   -0.840405
     10          6           0        1.190225    1.587820    0.227488
     11          8           0        1.933807    1.361386    1.156792
     12          8           0        0.739759    2.836199   -0.046042
     13          6           0        2.656355   -0.915804   -0.425442
     14          8           0        3.370827   -0.252306   -1.145656
     15          8           0        3.145088   -1.855073    0.415897
     16          1           0       -3.337463   -1.800953   -0.981563
     17          1           0       -5.057122   -1.430998   -1.131682
     18          1           0       -4.354589   -1.741945    0.463220
     19          1           0       -3.607850    0.652543   -1.327833
     20          1           0       -4.794367    0.741980   -0.042606
     21          1           0       -2.779353    1.679356    0.786286
     22          1           0       -3.076793    0.180241    1.660334
     23          1           0       -1.427387   -1.916899   -0.045673
     24          1           0       -1.544489   -1.496819    1.670006
     25          1           0        0.712433   -2.415586    1.011905
     26          1           0        0.814909   -0.795175    1.712120
     27          1           0        0.827217   -1.492880   -1.258689
     28          1           0        1.081188    0.858638   -1.752099
     29          1           0       -1.198635    1.635818   -1.036013
     30          1           0       -1.195164   -0.012691   -1.692972
     31          1           0        1.128872    3.414795    0.636105
     32          1           0        4.115002   -1.819526    0.315542
 ---------------------------------------------------------------------

 SCF Done:  E(UB3LYP) =  -747.251537497     A.U. after   33 cycles
 SCF Done:  E(UB3LYP) =  -747.251537497     a.u. after    1 cycles

 The electronic state is 2-A.
 Alpha  occ. eigenvalues --  -19.07779 -19.07715 -19.02149 -19.01801 -14.20662
 Alpha  occ. eigenvalues --  -10.21149 -10.21049 -10.10227 -10.09939 -10.09867
 Alpha  occ. eigenvalues --  -10.09631 -10.09454 -10.07015 -10.06674 -10.05951
 Alpha  occ. eigenvalues --   -1.01903  -1.01618  -0.92882  -0.92522  -0.83641
 Alpha  occ. eigenvalues --   -0.73334  -0.67724  -0.67427  -0.61296  -0.58266
 Alpha  occ. eigenvalues --   -0.55461  -0.52915  -0.50819  -0.48272  -0.46540
 Alpha  occ. eigenvalues --   -0.42037  -0.40165  -0.39814  -0.38995  -0.38538
 Alpha  occ. eigenvalues --   -0.37690  -0.36324  -0.35799  -0.34773  -0.33769
 Alpha  occ. eigenvalues --   -0.32578  -0.31580  -0.31028  -0.30616  -0.29674
 Alpha  occ. eigenvalues --   -0.28618  -0.27895  -0.26033  -0.25750  -0.25182
 Alpha  occ. eigenvalues --   -0.23998  -0.23521  -0.23215  -0.22881  -0.22720
 Alpha  occ. eigenvalues --   -0.18893  -0.18661  -0.11643   0.04164
 Alpha virt. eigenvalues --    0.06081   0.06290   0.07186   0.07732   0.08565
 Alpha virt. eigenvalues --    0.08869   0.09451   0.10119   0.10274   0.10882
 Alpha virt. eigenvalues --    0.11107   0.11672   0.12693   0.13020   0.13637

  Beta  occ. eigenvalues --  -19.07753 -19.07684 -19.02134 -19.01789 -14.20658
  Beta  occ. eigenvalues --  -10.21128 -10.21023 -10.10198 -10.09924 -10.09860
  Beta  occ. eigenvalues --  -10.09614 -10.09441 -10.07007 -10.06652 -10.05917
  Beta  occ. eigenvalues --   -1.01854  -1.01568  -0.92843  -0.92487  -0.83622
  Beta  occ. eigenvalues --   -0.73299  -0.67689  -0.67385  -0.61244  -0.58200
  Beta  occ. eigenvalues --   -0.55401  -0.52855  -0.50753  -0.48209  -0.46474
  Beta  occ. eigenvalues --   -0.41996  -0.40123  -0.39774  -0.38962  -0.38504
  Beta  occ. eigenvalues --   -0.37628  -0.36280  -0.35750  -0.34721  -0.33725
  Beta  occ. eigenvalues --   -0.32544  -0.31546  -0.30990  -0.30578  -0.29641
  Beta  occ. eigenvalues --   -0.28577  -0.27850  -0.26000  -0.25706  -0.25143
  Beta  occ. eigenvalues --   -0.23953  -0.23484  -0.23169  -0.22845  -0.22670
  Beta  occ. eigenvalues --   -0.18864  -0.18635  -0.11602
  Beta virt. eigenvalues --    0.06311   0.06966   0.07146   0.07787   0.08261
  Beta virt. eigenvalues --    0.09012   0.09172   0.09775   0.10492   0.10632
  Beta virt. eigenvalues --    0.11205   0.11397   0.12082   0.12981   0.13215

 Mulliken charges and spin densities:
               1          2
     1  C    1.037417  -1.543530
     2  C   -0.522666   0.360911
     3  C    0.159842  -0.290971
     4  N    0.117664   0.110435
     5  C   -0.522614   0.137607
     6  C    0.314060  -0.954744
     7  C    0.319986  -0.207340
     8  C    1.212019  -0.714808
     9  C   -0.232455  -0.730615
    10  C   -0.394036   0.126032
    11  O   -0.215330  -0.017329
    12  O   -0.175538   0.041041
    13  C    0.032189  -0.147933
    14  O   -0.292667   0.015346
    15  O   -0.166707   0.022211
    16  H   -0.338068   0.494033
    17  H   -0.444238   0.592414
    18  H   -0.011056   0.130801
    19  H   -0.087027   0.212931
    20  H   -0.482985   0.646813
    21  H    0.032522   0.114006
    22  H   -0.168696   0.317305
    23  H    0.274095  -0.185085
    24  H   -0.067312   0.220766
    25  H   -0.103641   0.291182
    26  H    0.260389  -0.031572
    27  H   -0.370073   0.611090
    28  H    0.008877   0.281651
    29  H   -0.074045   0.290108
    30  H    0.057260   0.091800
    31  H   -0.071162   0.353671
    32  H   -0.086005   0.361777
 Sum of Mulliken charges =  -1.00000   1.00000

 Dipole moment (field-independent basis, Debye):
    X=              2.8820    Y=              0.5581    Z=              1.8453  Tot=              3.4673
 Quadrupole moment (field-independent basis, Debye-Ang):
   XX=           -175.4872   YY=           -130.8563   ZZ=           -124.4879
   XY=             -2.3368   XZ=             -2.6286   YZ=             -2.0856

 Summary of Natural Population Analysis:

                                       Natural Population
                Natural  -----------------------------------------------
    Atom  No    Charge         Core      Valence    Rydberg      Total
 -----------------------------------------------------------------------
      C    1   -0.28796      0.99967     2.28264    0.00565     3.28796
      C    2   -0.20066      0.99964     2.19322    0.00779     3.20066
      C    3   -0.07597      0.99961     2.06426    0.01209     3.07597
      N    4   -0.28736      0.99971     2.77530    0.01235     3.78736
      C    5   -0.08009      0.99960     2.07010    0.01038     3.08009
      C    6   -0.19513      0.99961     2.18523    0.01030     3.19513
      C    7   -0.15425      0.99953     2.14198    0.01274     3.15425
      C    8   -0.15641      0.99953     2.14372    0.01317     3.15641
      C    9   -0.08194      0.99960     2.06955    0.01280     3.08194
      C   10    0.42112      0.99969     1.55164    0.02755     2.57888
      O   11   -0.30739      0.99987     3.30171    0.00581     4.30739
      O   12   -0.34490      0.99987     3.33860    0.00643     4.34490
      C   13    0.42128      0.99968     1.55287    0.02618     2.57872
      O   14   -0.31276      0.99987     3.30714    0.00575     4.31276
      O   15   -0.34280      0.99987     3.33674    0.00619     4.34280
      H   16    0.09747      0.00000     0.40095    0.00158     0.40253
      H   17    0.09980      0.00000     0.39909    0.00112     0.40020
      H   18    0.09489      0.00000     0.40395    0.00116     0.40511
      H   19    0.09516      0.00000     0.40353    0.00131     0.40484
      H   20    0.09644      0.00000     0.40201    0.00156     0.40356
      H   21    0.09489      0.00000     0.40394    0.00117     0.40511
      H   22    0.09241      0.00000     0.40641    0.00118     0.40759
      H   23    0.08013      0.00000     0.41809    0.00178     0.41987
      H   24    0.09804      0.00000     0.40080    0.00115     0.40196
      H   25    0.10596      0.00000     0.39297    0.00107     0.39404
      H   26    0.10952      0.00000     0.38885    0.00162     0.39048
      H   27    0.11875      0.00000     0.37912    0.00213     0.38125
      H   28    0.12647      0.00000     0.37218    0.00135     0.37353
      H   29    0.10796      0.00000     0.39026    0.00178     0.39204
      H   30    0.08688      0.00000     0.41122    0.00189     0.41312
      H   31    0.24024      0.00000     0.25510    0.00466     0.25976
      H   32    0.24022      0.00000     0.25499    0.00479     0.25978
 =======================================================================
   * Total *    0.00000     14.99532    42.79817    0.20650    58.00000

 Normal termination of Gaussian 16 at Thu Dec 10 18:33:02 2020.
