 Gaussian 16, Revision A.03,

 -----------------------------------------------------------
 # opt freq B3LYP/6-31G(d) empiricaldispersion=gd3bj scf=xqc
 -----------------------------------------------------------

 -------------------------------
 CID_107767816_JID_6511_neutraal
 -------------------------------
 Symbolic Z-matrix:
 Charge =  0 Multiplicity = 1

 SCF Done:  E(RB3LYP) =  -1096.80679885     A.U. after   14 cycles
 SCF Done:  E(RB3LYP) =  -1096.80861430     A.U. after   12 cycles
 SCF Done:  E(RB3LYP) =  -1096.80475592     A.U. after   13 cycles
 SCF Done:  E(RB3LYP) =  -1096.81012555     A.U. after   11 cycles
 SCF Done:  E(RB3LYP) =  -1096.80970596     A.U. after   13 cycles
 SCF Done:  E(RB3LYP) =  -1096.81156874     A.U. after   12 cycles
 SCF Done:  E(RB3LYP) =  -1096.81204547     A.U. after   11 cycles
 SCF Done:  E(RB3LYP) =  -1096.81227522     A.U. after   11 cycles
 SCF Done:  E(RB3LYP) =  -1096.81242691     A.U. after   11 cycles
 SCF Done:  E(RB3LYP) =  -1096.81222415     A.U. after   11 cycles
 SCF Done:  E(RB3LYP) =  -1096.82201330     A.U. after    9 cycles
 SCF Done:  E(RB3LYP) =  -1096.82201479     A.U. after    9 cycles
 SCF Done:  E(RB3LYP) =  -1096.82201508     A.U. after    7 cycles
 SCF Done:  E(RB3LYP) =  -1096.82201518     A.U. after    7 cycles
 SCF Done:  E(RB3LYP) =  -1096.82201520     A.U. after    6 cycles
 Optimization completed.
    -- Stationary point found.
 Normal termination of Gaussian 16 at Fri Dec 11 00:36:14 2020.

 --------------------------------------------------------------------
 #N Geom=AllCheck Guess=TCheck SCRF=Check GenChk RB3LYP/6-31G(d) Freq
 --------------------------------------------------------------------

 Structure from the checkpoint file:  "JID_6511.chk"
 -------------------------------
 CID_107767816_JID_6511_neutraal
 -------------------------------
 Charge =  0 Multiplicity = 1

 SCF Done:  E(RB3LYP) =  -1096.82201520     A.U. after    1 cycles

  Exact polarizability: 179.221  -7.938 153.318  -0.235  -2.181 134.287
 Approx polarizability: 225.811 -10.334 208.881  -3.529   4.758 217.588

                      1                      2                      3
                      A                      A                      A
 Frequencies --     30.5079                37.6289                52.6395
 Red. masses --      3.9475                 3.2674                 3.0482
 Frc consts  --      0.0022                 0.0027                 0.0050
 IR Inten    --      0.5255                 0.2399                 0.4203

                      4                      5                      6
                      A                      A                      A
 Frequencies --     58.5298                70.1492                85.2205
 Red. masses --      3.6173                 3.6988                 3.5350
 Frc consts  --      0.0073                 0.0107                 0.0151
 IR Inten    --      1.7628                 3.0863                 1.0111

                      7                      8                      9
                      A                      A                      A
 Frequencies --     91.9133               112.3496               120.3847
 Red. masses --      2.0292                 1.9463                 2.1785
 Frc consts  --      0.0101                 0.0145                 0.0186
 IR Inten    --      0.3007                 1.5785                 0.1634

                     10                     11                     12
                      A                      A                      A
 Frequencies --    135.3924               142.7074               157.0915
 Red. masses --      3.6202                 2.7753                 2.9870
 Frc consts  --      0.0391                 0.0333                 0.0434
 IR Inten    --      4.5639                 6.4026                 0.0702

                     13                     14                     15
                      A                      A                      A
 Frequencies --    205.5548               218.3817               237.7085
 Red. masses --      2.6607                 1.1939                 2.4290
 Frc consts  --      0.0662                 0.0335                 0.0809
 IR Inten    --      0.6601                 0.0327                 4.1565

                     16                     17                     18
                      A                      A                      A
 Frequencies --    256.0789               261.6686               264.2598
 Red. masses --      2.6346                 1.3168                 1.4587
 Frc consts  --      0.1018                 0.0531                 0.0600
 IR Inten    --      0.3314                 1.3684                 0.2746

                     19                     20                     21
                      A                      A                      A
 Frequencies --    274.1820               291.0148               316.4823
 Red. masses --      3.0418                 1.2835                 2.6301
 Frc consts  --      0.1347                 0.0640                 0.1552
 IR Inten    --      5.1906                 0.2467                 4.2536

                     22                     23                     24
                      A                      A                      A
 Frequencies --    326.0802               344.2129               357.5728
 Red. masses --      2.6486                 3.2276                 3.1662
 Frc consts  --      0.1659                 0.2253                 0.2385
 IR Inten    --      8.2280                 1.2300                 7.8082

                     25                     26                     27
                      A                      A                      A
 Frequencies --    405.8799               422.6840               442.9436
 Red. masses --      3.5713                 1.9511                 3.1218
 Frc consts  --      0.3466                 0.2054                 0.3609
 IR Inten    --      0.7402                 1.5131                 6.3914

                     28                     29                     30
                      A                      A                      A
 Frequencies --    486.9329               499.3683               553.0554
 Red. masses --      2.6076                 2.6614                 3.3995
 Frc consts  --      0.3643                 0.3910                 0.6126
 IR Inten    --      1.6957                 1.0621                 1.2249

                     31                     32                     33
                      A                      A                      A
 Frequencies --    585.3160               614.3230               732.1099
 Red. masses --      4.2289                 3.8180                 5.0044
 Frc consts  --      0.8536                 0.8489                 1.5803
 IR Inten    --      3.3162                 4.2600                 5.5968

                     34                     35                     36
                      A                      A                      A
 Frequencies --    779.0483               785.0888               820.5075
 Red. masses --      1.6476                 1.3398                 1.3780
 Frc consts  --      0.5892                 0.4866                 0.5466
 IR Inten    --      9.8992                 3.2480                 1.0887

                     37                     38                     39
                      A                      A                      A
 Frequencies --    825.4066               833.4686               867.0601
 Red. masses --      1.5116                 1.0893                 1.5794
 Frc consts  --      0.6068                 0.4458                 0.6996
 IR Inten    --      3.8216                 1.9628                10.6964

                     40                     41                     42
                      A                      A                      A
 Frequencies --    896.6640               909.1393               930.3310
 Red. masses --      1.7393                 2.3396                 1.9549
 Frc consts  --      0.8239                 1.1394                 0.9969
 IR Inten    --      3.8642                 6.0494                 0.5010

                     43                     44                     45
                      A                      A                      A
 Frequencies --    964.4996               993.4918              1003.2323
 Red. masses --      1.7213                 1.2619                 2.3912
 Frc consts  --      0.9434                 0.7338                 1.4180
 IR Inten    --     13.6135                 1.0136                13.0959

                     46                     47                     48
                      A                      A                      A
 Frequencies --   1023.5366              1028.6349              1043.5709
 Red. masses --      1.8967                 3.2575                 8.6708
 Frc consts  --      1.1707                 2.0307                 5.5636
 IR Inten    --     24.6481                47.4826               118.1270

                     49                     50                     51
                      A                      A                      A
 Frequencies --   1059.2425              1063.4830              1100.8091
 Red. masses --      2.3244                 2.4508                 3.4956
 Frc consts  --      1.5366                 1.6331                 2.4957
 IR Inten    --      4.4492                 5.9202               153.8347

                     52                     53                     54
                      A                      A                      A
 Frequencies --   1106.0272              1113.4262              1128.8740
 Red. masses --      1.4714                 2.9269                 2.3155
 Frc consts  --      1.0605                 2.1379                 1.7386
 IR Inten    --     22.5534                73.5013                62.8674

                     55                     56                     57
                      A                      A                      A
 Frequencies --   1142.2434              1153.9652              1169.9538
 Red. masses --      1.9843                 2.1969                 2.4968
 Frc consts  --      1.5254                 1.7237                 2.0136
 IR Inten    --     50.5086                 4.6109                94.4269

                     58                     59                     60
                      A                      A                      A
 Frequencies --   1190.1373              1200.3887              1204.8292
 Red. masses --      1.7492                 1.5376                 1.6672
 Frc consts  --      1.4598                 1.3054                 1.4259
 IR Inten    --     20.3780                 7.9701                51.2160

                     61                     62                     63
                      A                      A                      A
 Frequencies --   1218.7334              1239.7279              1266.7390
 Red. masses --      1.6638                 1.4986                 1.4696
 Frc consts  --      1.4560                 1.3570                 1.3894
 IR Inten    --     24.5757                 3.0735                 3.1771

                     64                     65                     66
                      A                      A                      A
 Frequencies --   1281.3179              1307.5893              1315.9918
 Red. masses --      1.3024                 1.1117                 1.2270
 Frc consts  --      1.2598                 1.1199                 1.2519
 IR Inten    --      2.2763                 3.3873                 1.2768

                     67                     68                     69
                      A                      A                      A
 Frequencies --   1324.0614              1340.8493              1361.4371
 Red. masses --      1.2767                 1.1140                 1.2672
 Frc consts  --      1.3188                 1.1800                 1.3839
 IR Inten    --      3.0695                 7.9510                 2.5969

                     70                     71                     72
                      A                      A                      A
 Frequencies --   1376.7039              1395.0116              1405.8354
 Red. masses --      1.2284                 1.3461                 1.3243
 Frc consts  --      1.3718                 1.5434                 1.5420
 IR Inten    --     22.9212                 4.8423                15.0306

                     73                     74                     75
                      A                      A                      A
 Frequencies --   1407.2418              1418.3977              1429.4057
 Red. masses --      1.3716                 1.2412                 1.3512
 Frc consts  --      1.6004                 1.4712                 1.6266
 IR Inten    --      1.2190                 8.5538                 9.2027

                     76                     77                     78
                      A                      A                      A
 Frequencies --   1441.2555              1446.6051              1448.2779
 Red. masses --      1.2707                 1.2340                 1.2723
 Frc consts  --      1.5551                 1.5215                 1.5724
 IR Inten    --      2.5915                11.9377                25.8683

                     79                     80                     81
                      A                      A                      A
 Frequencies --   1454.3761              1481.4533              1488.8383
 Red. masses --      1.4566                 1.1236                 1.0914
 Frc consts  --      1.8153                 1.4529                 1.4254
 IR Inten    --      4.5975                 5.5470                 2.9238

                     82                     83                     84
                      A                      A                      A
 Frequencies --   1493.0321              1496.8224              1513.6882
 Red. masses --      1.1169                 1.1138                 1.0614
 Frc consts  --      1.4669                 1.4702                 1.4329
 IR Inten    --      1.5384                 7.9155                 0.3427

                     85                     86                     87
                      A                      A                      A
 Frequencies --   1514.7034              1524.4810              1524.8553
 Red. masses --      1.0478                 1.0495                 1.0460
 Frc consts  --      1.4164                 1.4371                 1.4330
 IR Inten    --      6.2662                 8.3320                 1.0703

                     88                     89                     90
                      A                      A                      A
 Frequencies --   1528.4672              1528.6414              1532.2855
 Red. masses --      1.0597                 1.0711                 1.0443
 Frc consts  --      1.4586                 1.4746                 1.4446
 IR Inten    --      1.7455                 0.3517                 3.7241

                     91                     92                     93
                      A                      A                      A
 Frequencies --   1537.2745              1542.5300              1547.9038
 Red. masses --      1.0626                 1.0460                 1.0647
 Frc consts  --      1.4796                 1.4664                 1.5030
 IR Inten    --      7.3302                 3.5665                 4.0898

                     94                     95                     96
                      A                      A                      A
 Frequencies --   1559.0864              2977.2936              3003.4102
 Red. masses --      1.0908                 1.0708                 1.0714
 Frc consts  --      1.5622                 5.5922                 5.6944
 IR Inten    --      0.6439                33.0912                45.4581

                     97                     98                     99
                      A                      A                      A
 Frequencies --   3026.7567              3029.5429              3044.4088
 Red. masses --      1.0828                 1.0611                 1.0728
 Frc consts  --      5.8448                 5.7381                 5.8585
 IR Inten    --     27.9674                18.6475                 4.1522

                    100                    101                    102
                      A                      A                      A
 Frequencies --   3049.0537              3049.2774              3051.4414
 Red. masses --      1.0440                 1.0357                 1.0412
 Frc consts  --      5.7185                 5.6740                 5.7122
 IR Inten    --     27.5896                16.2863                15.1452

                    103                    104                    105
                      A                      A                      A
 Frequencies --   3062.6289              3065.5578              3071.0940
 Red. masses --      1.0366                 1.0946                 1.0868
 Frc consts  --      5.7285                 6.0609                 6.0396
 IR Inten    --     17.9188                23.6263                42.1706

                    106                    107                    108
                      A                      A                      A
 Frequencies --   3072.2767              3075.5540              3089.3518
 Red. masses --      1.0737                 1.0659                 1.0653
 Frc consts  --      5.9714                 5.9402                 5.9906
 IR Inten    --     12.2559                12.7608                20.8655

                    109                    110                    111
                      A                      A                      A
 Frequencies --   3098.3940              3113.1434              3114.1325
 Red. masses --      1.0946                 1.1008                 1.1002
 Frc consts  --      6.1913                 6.2860                 6.2862
 IR Inten    --     33.2006                15.7020                62.9735

                    112                    113                    114
                      A                      A                      A
 Frequencies --   3118.8191              3121.9494              3132.5811
 Red. masses --      1.1013                 1.1025                 1.1019
 Frc consts  --      6.3116                 6.3310                 6.3709
 IR Inten    --     33.2323                39.5969                24.9772

                    115                    116                    117
                      A                      A                      A
 Frequencies --   3133.2324              3133.2586              3140.0471
 Red. masses --      1.1013                 1.1030                 1.1029
 Frc consts  --      6.3698                 6.3799                 6.4071
 IR Inten    --     51.4967                 9.4543                34.3110

                    118                    119                    120
                      A                      A                      A
 Frequencies --   3140.9567              3154.8210              3164.8737
 Red. masses --      1.0978                 1.0971                 1.0986
 Frc consts  --      6.3810                 6.4336                 6.4833
 IR Inten    --      2.5317                10.1737                 5.9122

 - Thermochemistry -
 -------------------
 Temperature   298.150 Kelvin.  Pressure   1.00000 Atm.
 Atom     1 has atomic number  6 and mass  12.00000

 Molecular mass:   250.16027 amu.
 Principal axes and moments of inertia in atomic units:
                           1         2         3
     Eigenvalues --  3145.761245627.882517613.77664
           X            0.99977  -0.02047  -0.00667
           Y            0.02035   0.99964  -0.01765
           Z            0.00703   0.01751   0.99982
 This molecule is an asymmetric top.
 Rotational symmetry number  1.
 Warning -- assumption of classical behavior for rotation
           may cause significant error
 Rotational temperatures (Kelvin)      0.02753     0.01539     0.01138
 Rotational constants (GHZ):           0.57371     0.32068     0.23704
 Zero-point vibrational energy     989639.9 (Joules/Mol)
                                  236.52960 (Kcal/Mol)
 Warning -- explicit consideration of  32 degrees of freedom as
           vibrations may cause significant error
 Vibrational temperatures:     43.89    54.14    75.74    84.21   100.93
          (Kelvin)            122.61   132.24   161.65   173.21   194.80
                              205.32   226.02   295.75   314.20   342.01
                              368.44   376.48   380.21   394.49   418.71
                              455.35   469.16   495.25   514.47   583.97
                              608.15   637.30   700.59   718.48   795.72
                              842.14   883.87  1053.34  1120.88  1129.57
                             1180.53  1187.58  1199.18  1247.51  1290.10
                             1308.05  1338.54  1387.70  1429.41  1443.43
                             1472.64  1479.98  1501.47  1524.01  1530.11
                             1583.82  1591.33  1601.97  1624.20  1643.43
                             1660.30  1683.30  1712.34  1727.09  1733.48
                             1753.49  1783.69  1822.55  1843.53  1881.33
                             1893.42  1905.03  1929.18  1958.80  1980.77
                             2007.11  2022.68  2024.71  2040.76  2056.60
                             2073.65  2081.34  2083.75  2092.52  2131.48
                             2142.11  2148.14  2153.59  2177.86  2179.32
                             2193.39  2193.93  2199.12  2199.37  2204.62
                             2211.80  2219.36  2227.09  2243.18  4283.66
                             4321.24  4354.83  4358.84  4380.23  4386.91
                             4387.23  4390.34  4406.44  4410.65  4418.62
                             4420.32  4425.04  4444.89  4457.90  4479.12
                             4480.54  4487.29  4491.79  4507.09  4508.02
                             4508.06  4517.83  4519.14  4539.08  4553.55

 Zero-point correction=                           0.376934 (Hartree/Particle)
 Thermal correction to Energy=                    0.397463
 Thermal correction to Enthalpy=                  0.398407
 Thermal correction to Gibbs Free Energy=         0.327109
 Sum of electronic and zero-point Energies=          -1096.445081
 Sum of electronic and thermal Energies=             -1096.424552
 Sum of electronic and thermal Enthalpies=           -1096.423608
 Sum of electronic and thermal Free Energies=        -1096.494906

                     E (Thermal)             CV                S
                      KCal/Mol        Cal/Mol-Kelvin    Cal/Mol-Kelvin
 Total                  249.412             74.420            150.060
 Electronic               0.000              0.000              0.000
 Translational            0.889              2.981             42.451
 Rotational               0.889              2.981             33.266
 Vibrational            247.634             68.458             74.342
 Vibration     1          0.594              1.984              5.796
 Vibration     2          0.594              1.982              5.380
 Vibration     3          0.596              1.977              4.716
 Vibration     4          0.596              1.974              4.506
 Vibration     5          0.598              1.968              4.149
 Vibration     6          0.601              1.959              3.767
 Vibration     7          0.602              1.955              3.619
 Vibration     8          0.607              1.939              3.228
 Vibration     9          0.609              1.932              3.094
 Vibration    10          0.613              1.918              2.868
 Vibration    11          0.616              1.910              2.767
 Vibration    12          0.621              1.895              2.585
 Vibration    13          0.640              1.832              2.083
 Vibration    14          0.646              1.813              1.972
 Vibration    15          0.656              1.783              1.820
 Vibration    16          0.666              1.753              1.688
 Vibration    17          0.669              1.743              1.651
 Vibration    18          0.671              1.738              1.633
 Vibration    19          0.676              1.721              1.570
 Vibration    20          0.687              1.690              1.468
 Vibration    21          0.703              1.642              1.328
 Vibration    22          0.710              1.623              1.279
 Vibration    23          0.723              1.587              1.193
 Vibration    24          0.733              1.560              1.133
 Vibration    25          0.771              1.457              0.941
 Vibration    26          0.785              1.421              0.883
 Vibration    27          0.803              1.376              0.817
 Vibration    28          0.843              1.279              0.692
 Vibration    29          0.855              1.251              0.660
 Vibration    30          0.908              1.133              0.538
 Vibration    31          0.942              1.063              0.476
 Vibration    32          0.974              1.002              0.426

 Optimization completed.
    -- Stationary point found.
 Normal termination of Gaussian 16 at Fri Dec 11 00:54:13 2020.

 ----------------------------------------------------------------------
 # B3LYP/6-311++G(d,p) empiricaldispersion=gd3bj scf=xqc pop=npa geom=c
 heck
 ----------------------------------------------------------------------

 ---------------------------------------
 CID_107767816_JID_6511_Energie_neutraal
 ---------------------------------------
 Structure from the checkpoint file:  "JID_6511.chk"
 Charge =  0 Multiplicity = 1

 SCF Done:  E(RB3LYP) =  -1097.05583857     A.U. after   15 cycles
 Normal termination of Gaussian 16 at Fri Dec 11 01:04:31 2020.

 ----------------------------------------------------------------------
 # B3LYP/6-311++G(d,p) empiricaldispersion=gd3bj scf=xqc pop=npa geom=c
 heck
 ----------------------------------------------------------------------

 -------------------------------------
 CID_107767816_JID_6511_Energie_kation
 -------------------------------------
 Structure from the checkpoint file:  "JID_6511.chk"
 Charge =  1 Multiplicity = 2

 SCF Done:  E(UB3LYP) =  -1096.75496598     A.U. after   29 cycles
 Normal termination of Gaussian 16 at Fri Dec 11 01:32:40 2020.
 Gaussian 16:  ES64L-G16RevA.03 25-Dec-2016

 ----------------------------------------------------------------------
 # B3LYP/6-311++G(d,p) empiricaldispersion=gd3bj scf=xqc pop=npa geom=c
 heck
 ----------------------------------------------------------------------

 ------------------------------------
 CID_107767816_JID_6511_Energie_anion
 ------------------------------------
 Structure from the checkpoint file:  "JID_6511.chk"
 Charge = -1 Multiplicity = 2

                         Standard orientation:
 ---------------------------------------------------------------------
 Center     Atomic      Atomic             Coordinates (Angstroms)
 Number     Number       Type             X           Y           Z
 ---------------------------------------------------------------------
      1          6           0       -4.285879    1.481541   -0.292960
      2          6           0       -3.198966    0.663344   -0.995171
      3          6           0       -2.478702   -0.348405   -0.080683
      4          6           0       -3.420976   -1.451751    0.417777
      5          6           0       -1.275596   -0.914527   -0.839748
      6         16           0       -0.306580   -2.252995   -0.004074
      7          8           0        0.939533   -2.446248   -0.860213
      8          6           0        0.217939   -1.356646    1.543042
      9          6           0        1.580974   -0.691327    1.394540
     10          6           0        1.629462    0.449646    0.387688
     11          8           0        0.629508    1.373780    0.747247
     12          6           0        0.517669    2.479569   -0.142558
     13          6           0       -0.609672    3.369271    0.348906
     14          8           0        2.904299    1.058585    0.426134
     15          6           0        3.676307    0.905940   -0.765978
     16          6           0        4.176632   -0.518930   -0.980126
     17          1           0       -5.111136    0.852806    0.056716
     18          1           0       -4.708164    2.230297   -0.971710
     19          1           0       -3.879204    2.011855    0.576824
     20          1           0       -3.632495    0.126141   -1.850434
     21          1           0       -2.450553    1.350069   -1.412346
     22          1           0       -2.100822    0.214635    0.782531
     23          1           0       -3.798723   -2.047090   -0.422852
     24          1           0       -2.915261   -2.137805    1.105361
     25          1           0       -4.281057   -1.031684    0.947308
     26          1           0       -1.596081   -1.399876   -1.769481
     27          1           0       -0.566121   -0.127833   -1.102163
     28          1           0       -0.559402   -0.641288    1.815048
     29          1           0        0.259310   -2.133235    2.313208
     30          1           0        1.888012   -0.290476    2.367329
     31          1           0        2.320607   -1.435085    1.089856
     32          1           0        1.445221    0.076160   -0.629707
     33          1           0        1.466903    3.027811   -0.170532
     34          1           0        0.313209    2.114832   -1.164003
     35          1           0       -0.400464    3.720550    1.364141
     36          1           0       -0.721968    4.240896   -0.304865
     37          1           0       -1.558443    2.823748    0.363690
     38          1           0        3.088211    1.238170   -1.636028
     39          1           0        4.515343    1.598776   -0.648438
     40          1           0        3.345997   -1.218196   -1.125491
     41          1           0        4.818835   -0.562955   -1.867824
     42          1           0        4.761646   -0.848595   -0.114671
 ---------------------------------------------------------------------

 SCF Done:  E(UB3LYP) =  -1097.04251659     A.U. after   33 cycles
 SCF Done:  E(UB3LYP) =  -1097.04251659     a.u. after    1 cycles

 The electronic state is 2-A.
 Alpha  occ. eigenvalues --  -88.85276 -19.04273 -19.04243 -18.99245 -10.18137
 Alpha  occ. eigenvalues --  -10.13818 -10.12730 -10.11257 -10.10759 -10.09500
 Alpha  occ. eigenvalues --  -10.09046 -10.07857 -10.07687 -10.07045 -10.06956
 Alpha  occ. eigenvalues --  -10.06336  -7.93025  -5.89298  -5.89160  -5.88594
 Alpha  occ. eigenvalues --   -0.98697  -0.92838  -0.91799  -0.74108  -0.72084
 Alpha  occ. eigenvalues --   -0.68225  -0.66447  -0.65801  -0.62600  -0.60581
 Alpha  occ. eigenvalues --   -0.56561  -0.53959  -0.53147  -0.51088  -0.49494
 Alpha  occ. eigenvalues --   -0.47311  -0.44169  -0.42700  -0.39885  -0.38700
 Alpha  occ. eigenvalues --   -0.38041  -0.37729  -0.37040  -0.35937  -0.35784
 Alpha  occ. eigenvalues --   -0.34236  -0.33183  -0.32693  -0.32053  -0.30659
 Alpha  occ. eigenvalues --   -0.30385  -0.30016  -0.29660  -0.29007  -0.28500
 Alpha  occ. eigenvalues --   -0.28002  -0.27747  -0.27335  -0.26720  -0.25811
 Alpha  occ. eigenvalues --   -0.25249  -0.24253  -0.23908  -0.23823  -0.23524
 Alpha  occ. eigenvalues --   -0.19577  -0.18204  -0.17873  -0.14101   0.04161
 Alpha virt. eigenvalues --    0.05818   0.06106   0.07033   0.07552   0.07847
 Alpha virt. eigenvalues --    0.08498   0.08983   0.09304   0.09583   0.09859
 Alpha virt. eigenvalues --    0.10462   0.11072   0.11258   0.11491   0.11840

  Beta  occ. eigenvalues --  -88.85274 -19.04270 -19.04236 -18.99242 -10.18135
  Beta  occ. eigenvalues --  -10.13808 -10.12715 -10.11243 -10.10753 -10.09494
  Beta  occ. eigenvalues --  -10.09043 -10.07851 -10.07666 -10.07009 -10.06925
  Beta  occ. eigenvalues --  -10.06295  -7.93023  -5.89296  -5.89159  -5.88590
  Beta  occ. eigenvalues --   -0.98689  -0.92829  -0.91792  -0.74086  -0.72068
  Beta  occ. eigenvalues --   -0.68204  -0.66426  -0.65768  -0.62557  -0.60549
  Beta  occ. eigenvalues --   -0.56520  -0.53918  -0.53090  -0.51052  -0.49451
  Beta  occ. eigenvalues --   -0.47264  -0.44150  -0.42681  -0.39862  -0.38676
  Beta  occ. eigenvalues --   -0.38025  -0.37711  -0.37008  -0.35915  -0.35762
  Beta  occ. eigenvalues --   -0.34210  -0.33161  -0.32664  -0.32031  -0.30636
  Beta  occ. eigenvalues --   -0.30359  -0.29983  -0.29628  -0.28979  -0.28463
  Beta  occ. eigenvalues --   -0.27980  -0.27725  -0.27293  -0.26694  -0.25790
  Beta  occ. eigenvalues --   -0.25216  -0.24226  -0.23876  -0.23790  -0.23489
  Beta  occ. eigenvalues --   -0.19566  -0.18194  -0.17863  -0.14087
  Beta virt. eigenvalues --    0.05992   0.06525   0.06800   0.07548   0.08069
  Beta virt. eigenvalues --    0.08309   0.08694   0.09254   0.09575   0.09794
  Beta virt. eigenvalues --    0.10120   0.10752   0.11315   0.11512   0.11820

 Mulliken charges and spin densities:
               1          2
     1  C    0.913541  -1.576205
     2  C   -1.000545   0.912038
     3  C    0.121112   0.041972
     4  C    1.011717  -1.748175
     5  C   -0.583920   0.013301
     6  S    1.126123  -0.350510
     7  O   -0.448684   0.005158
     8  C   -0.404630  -0.197092
     9  C   -0.642443   0.229214
    10  C   -0.498242  -0.075394
    11  O    0.029023   0.022521
    12  C   -0.253930   0.365451
    13  C    0.471816  -1.079599
    14  O   -0.051984   0.009128
    15  C    0.230462  -0.359366
    16  C   -0.474655  -0.091731
    17  H   -0.152838   0.293673
    18  H   -0.364512   0.521479
    19  H   -0.557148   0.703087
    20  H   -0.339101   0.492757
    21  H   -0.160938   0.300625
    22  H    0.308273  -0.230253
    23  H   -0.058185   0.218891
    24  H   -0.188100   0.316611
    25  H   -0.332463   0.481751
    26  H    0.179637   0.094041
    27  H   -0.106887   0.234347
    28  H    0.042411   0.204608
    29  H   -0.256708   0.530710
    30  H    0.103084   0.085296
    31  H    0.202911  -0.032666
    32  H    0.583122  -0.308460
    33  H    0.067962   0.103589
    34  H   -0.024476   0.153529
    35  H   -0.032529   0.179727
    36  H   -0.557750   0.712352
    37  H    0.941563  -0.793412
    38  H   -0.090034   0.221432
    39  H   -0.059724   0.215787
    40  H    0.147828   0.066976
    41  H    0.030709   0.094534
    42  H    0.129129   0.018277
 Sum of Mulliken charges =  -1.00000   1.00000

 Dipole moment (field-independent basis, Debye):
    X=              6.7723    Y=             -2.6625    Z=              0.7947  Tot=              7.3202
 Quadrupole moment (field-independent basis, Debye-Ang):
   XX=           -195.4630   YY=           -175.7272   ZZ=           -149.0421
   XY=              7.3475   XZ=              0.6904   YZ=              4.1501

 Summary of Natural Population Analysis:

                                       Natural Population
                Natural  -----------------------------------------------
    Atom  No    Charge         Core      Valence    Rydberg      Total
 -----------------------------------------------------------------------
      C    1   -0.28505      0.99966     2.28006    0.00533     3.28505
      C    2   -0.18660      0.99962     2.17745    0.00953     3.18660
      C    3   -0.12549      0.99958     2.11528    0.01064     3.12549
      C    4   -0.28906      0.99964     2.28231    0.00711     3.28906
      C    5   -0.26792      0.99955     2.25609    0.01228     3.26792
      S    6    0.57744      4.99945     2.37091    0.05220     7.42256
      O    7   -0.49011      0.99993     3.48497    0.00521     4.49011
      C    8   -0.27433      0.99957     2.26438    0.01038     3.27433
      C    9   -0.21468      0.99958     2.20292    0.01218     3.21468
      C   10    0.21696      0.99954     1.76585    0.01764     2.78304
      O   11   -0.30643      0.99987     3.29728    0.00928     4.30643
      C   12   -0.01332      0.99959     2.00161    0.01212     3.01332
      C   13   -0.29164      0.99965     2.28622    0.00577     3.29164
      O   14   -0.30540      0.99987     3.29711    0.00842     4.30540
      C   15   -0.01142      0.99959     1.99938    0.01245     3.01142
      C   16   -0.30760      0.99966     2.30358    0.00435     3.30760
      H   17    0.09842      0.00000     0.40023    0.00135     0.40158
      H   18    0.10318      0.00000     0.39547    0.00135     0.39682
      H   19    0.09632      0.00000     0.40220    0.00148     0.40368
      H   20    0.09534      0.00000     0.40340    0.00126     0.40466
      H   21    0.09811      0.00000     0.40029    0.00161     0.40189
      H   22    0.09788      0.00000     0.39893    0.00319     0.40212
      H   23    0.09835      0.00000     0.40025    0.00141     0.40165
      H   24    0.09936      0.00000     0.39864    0.00200     0.40064
      H   25    0.10530      0.00000     0.39361    0.00109     0.39470
      H   26    0.10748      0.00000     0.39113    0.00140     0.39252
      H   27    0.11051      0.00000     0.38770    0.00179     0.38949
      H   28    0.11535      0.00000     0.38256    0.00209     0.38465
      H   29    0.10777      0.00000     0.39092    0.00131     0.39223
      H   30    0.10995      0.00000     0.38882    0.00122     0.39005
      H   31    0.11229      0.00000     0.38653    0.00118     0.38771
      H   32    0.07600      0.00000     0.42152    0.00247     0.42400
      H   33    0.08582      0.00000     0.41250    0.00168     0.41418
      H   34    0.07649      0.00000     0.42173    0.00178     0.42351
      H   35    0.09998      0.00000     0.39895    0.00107     0.40002
      H   36    0.10296      0.00000     0.39572    0.00132     0.39704
      H   37    0.10033      0.00000     0.39792    0.00175     0.39967
      H   38    0.07971      0.00000     0.41898    0.00131     0.42029
      H   39    0.08829      0.00000     0.41063    0.00108     0.41171
      H   40    0.11333      0.00000     0.38553    0.00114     0.38667
      H   41    0.09874      0.00000     0.40040    0.00086     0.40126
      H   42    0.09741      0.00000     0.40158    0.00101     0.40259
 =======================================================================
   * Total *   -0.00000     19.99436    48.77154    0.23410    69.00000

 Normal termination of Gaussian 16 at Fri Dec 11 02:04:39 2020.
