 Gaussian 16, Revision A.03,

 -----------------------------------------------------------
 # opt freq B3LYP/6-31G(d) empiricaldispersion=gd3bj scf=xqc
 -----------------------------------------------------------

 ------------------------------
 CID_88831593_JID_1181_neutraal
 ------------------------------
 Symbolic Z-matrix:
 Charge =  0 Multiplicity = 1

 SCF Done:  E(RB3LYP) =  -584.523119642     A.U. after   17 cycles
 SCF Done:  E(RB3LYP) =  -584.538843481     A.U. after   15 cycles
 SCF Done:  E(RB3LYP) =  -584.538263897     A.U. after   16 cycles
 SCF Done:  E(RB3LYP) =  -584.542384755     A.U. after   15 cycles
 SCF Done:  E(RB3LYP) =  -584.544168107     A.U. after   15 cycles
 SCF Done:  E(RB3LYP) =  -584.538786562     A.U. after   16 cycles
 SCF Done:  E(RB3LYP) =  -584.545845349     A.U. after   15 cycles
 SCF Done:  E(RB3LYP) =  -584.546195425     A.U. after   13 cycles
 SCF Done:  E(RB3LYP) =  -584.546569290     A.U. after   15 cycles
 SCF Done:  E(RB3LYP) =  -584.546986894     A.U. after   16 cycles
 SCF Done:  E(RB3LYP) =  -584.599307186     A.U. after   10 cycles
 SCF Done:  E(RB3LYP) =  -584.599308960     A.U. after   10 cycles
 SCF Done:  E(RB3LYP) =  -584.599310018     A.U. after   10 cycles
 SCF Done:  E(RB3LYP) =  -584.599310297     A.U. after    9 cycles
 SCF Done:  E(RB3LYP) =  -584.599310419     A.U. after    9 cycles
 Optimization completed.
    -- Stationary point found.
 Normal termination of Gaussian 16 at Tue Dec  8 19:39:22 2020.

 --------------------------------------------------------------------
 #N Geom=AllCheck Guess=TCheck SCRF=Check GenChk RB3LYP/6-31G(d) Freq
 --------------------------------------------------------------------

 Structure from the checkpoint file:  "JID_1181.chk"
 ------------------------------
 CID_88831593_JID_1181_neutraal
 ------------------------------
 Charge =  0 Multiplicity = 1

 SCF Done:  E(RB3LYP) =  -584.599310419     A.U. after    1 cycles

  Exact polarizability: 107.674   8.083 102.481   0.045   0.028  38.765
 Approx polarizability: 156.304  16.444 184.893   0.084   0.003  58.326

                      1                      2                      3
                      A                      A                      A
 Frequencies --     31.0201                51.8926                57.3629
 Red. masses --      4.8654                 3.5698                 1.4022
 Frc consts  --      0.0028                 0.0057                 0.0027
 IR Inten    --      0.6325                 0.0323                 0.2199

                      4                      5                      6
                      A                      A                      A
 Frequencies --     64.4406               121.4511               128.9060
 Red. masses --      8.4744                 9.0059                 3.9825
 Frc consts  --      0.0207                 0.0783                 0.0390
 IR Inten    --      0.7561                 0.4299                 6.1474

                      7                      8                      9
                      A                      A                      A
 Frequencies --    170.9019               190.9900               236.3384
 Red. masses --      9.6548                 7.8057                 3.7723
 Frc consts  --      0.1661                 0.1678                 0.1241
 IR Inten    --      1.4280                17.1726                 0.1249

                     10                     11                     12
                      A                      A                      A
 Frequencies --    257.3418               294.8024               369.2000
 Red. masses --      6.2374                 2.5625                 3.0988
 Frc consts  --      0.2434                 0.1312                 0.2489
 IR Inten    --      5.8888                12.8821                 1.4428

                     13                     14                     15
                      A                      A                      A
 Frequencies --    499.1010               641.5154               700.0701
 Red. masses --      7.0802                 3.3759                 7.6555
 Frc consts  --      1.0391                 0.8186                 2.2106
 IR Inten    --      0.1219                 0.2797                 4.3293

                     16                     17                     18
                      A                      A                      A
 Frequencies --    707.1901               721.9627               775.8535
 Red. masses --      5.5306                 8.1929                 1.2504
 Frc consts  --      1.6296                 2.5160                 0.4435
 IR Inten    --     11.9137                17.2402                29.4537

                     19                     20                     21
                      A                      A                      A
 Frequencies --    790.6898               866.3919               910.9705
 Red. masses --      5.0358                 1.3318                 1.0714
 Frc consts  --      1.8550                 0.5890                 0.5238
 IR Inten    --     99.2628                 6.2976                74.7550

                     22                     23                     24
                      A                      A                      A
 Frequencies --    957.8160               966.6060              1040.7754
 Red. masses --      6.3044                 9.0602                 1.6328
 Frc consts  --      3.4077                 4.9875                 1.0421
 IR Inten    --     61.2019               186.9881                 0.0741

                     25                     26                     27
                      A                      A                      A
 Frequencies --   1086.9357              1112.5936              1168.4139
 Red. masses --      1.7859                 1.2425                 1.2981
 Frc consts  --      1.2432                 0.9062                 1.0441
 IR Inten    --      7.9666                 0.3410                 0.1403

                     28                     29                     30
                      A                      A                      A
 Frequencies --   1204.3629              1255.2628              1327.5123
 Red. masses --      2.0144                 4.2837                 3.4502
 Frc consts  --      1.7215                 3.9768                 3.5823
 IR Inten    --     33.4770                 2.7132                18.3463

                     31                     32                     33
                      A                      A                      A
 Frequencies --   1393.8078              1430.7526              1456.1301
 Red. masses --      1.9750                 3.1182                 2.4328
 Frc consts  --      2.2606                 3.7608                 3.0391
 IR Inten    --     18.1458                70.7923                53.4182

                     34                     35                     36
                      A                      A                      A
 Frequencies --   1467.3233              1515.7589              1528.3241
 Red. masses --      1.4488                 1.4186                 1.2560
 Frc consts  --      1.8379                 1.9203                 1.7284
 IR Inten    --     36.0152               136.7721                23.9401

                     37                     38                     39
                      A                      A                      A
 Frequencies --   1535.1489              1538.8766              1570.2002
 Red. masses --      2.4661                 1.0506                 2.9110
 Frc consts  --      3.4242                 1.4659                 4.2287
 IR Inten    --     93.7347                11.2229                 5.6732

                     40                     41                     42
                      A                      A                      A
 Frequencies --   1761.6694              1775.3482              3021.3674
 Red. masses --      4.8242                 8.5714                 1.0895
 Frc consts  --      8.8212                15.9174                 5.8597
 IR Inten    --    141.5998               242.9325                17.9504

                     43                     44                     45
                      A                      A                      A
 Frequencies --   3078.7640              3145.4213              3182.1535
 Red. masses --      1.0355                 1.1065                 1.0724
 Frc consts  --      5.7829                 6.4502                 6.3978
 IR Inten    --     43.5308                12.4753              1790.3535

                     46                     47                     48
                      A                      A                      A
 Frequencies --   3213.7720              3274.4173              3294.1075
 Red. masses --      1.1022                 1.0918                 1.1053
 Frc consts  --      6.7072                 6.8969                 7.0665
 IR Inten    --      6.1247                 1.8364                 1.5115

 - Thermochemistry -
 -------------------
 Temperature   298.150 Kelvin.  Pressure   1.00000 Atm.
 Atom     1 has atomic number  6 and mass  12.00000

 Molecular mass:   157.04874 amu.
 Principal axes and moments of inertia in atomic units:
                           1         2         3
     Eigenvalues --   968.537493146.548594103.60382
           X            1.00000  -0.00137   0.00006
           Y            0.00137   1.00000   0.00001
           Z           -0.00006  -0.00001   1.00000
 This molecule is an asymmetric top.
 Rotational symmetry number  1.
 Warning -- assumption of classical behavior for rotation
           may cause significant error
 Rotational temperatures (Kelvin)      0.08943     0.02753     0.02111
 Rotational constants (GHZ):           1.86337     0.57356     0.43979
 Zero-point vibrational energy     346271.1 (Joules/Mol)
                                   82.76079 (Kcal/Mol)
 Warning -- explicit consideration of  13 degrees of freedom as
           vibrations may cause significant error
 Vibrational temperatures:     44.63    74.66    82.53    92.72   174.74
          (Kelvin)            185.47   245.89   274.79   340.04   370.26
                              424.15   531.20   718.09   923.00  1007.24
                             1017.49  1038.74  1116.28  1137.63  1246.54
                             1310.68  1378.08  1390.73  1497.44  1563.86
                             1600.77  1681.09  1732.81  1806.04  1909.99
                             2005.38  2058.53  2095.05  2111.15  2180.84
                             2198.92  2208.74  2214.10  2259.17  2534.65
                             2554.33  4347.07  4429.65  4525.56  4578.41
                             4623.90  4711.16  4739.49

 Zero-point correction=                           0.131888 (Hartree/Particle)
 Thermal correction to Energy=                    0.143603
 Thermal correction to Enthalpy=                  0.144548
 Thermal correction to Gibbs Free Energy=         0.091613
 Sum of electronic and zero-point Energies=           -584.467423
 Sum of electronic and thermal Energies=              -584.455707
 Sum of electronic and thermal Enthalpies=            -584.454763
 Sum of electronic and thermal Free Energies=         -584.507697

                     E (Thermal)             CV                S
                      KCal/Mol        Cal/Mol-Kelvin    Cal/Mol-Kelvin
 Total                   90.113             38.461            111.411
 Electronic               0.000              0.000              0.000
 Translational            0.889              2.981             41.063
 Rotational               0.889              2.981             30.904
 Vibrational             88.335             32.499             39.443
 Vibration     1          0.594              1.983              5.763
 Vibration     2          0.596              1.977              4.744
 Vibration     3          0.596              1.975              4.546
 Vibration     4          0.597              1.971              4.316
 Vibration     5          0.609              1.931              3.077
 Vibration     6          0.611              1.924              2.962
 Vibration     7          0.626              1.878              2.426
 Vibration     8          0.634              1.852              2.218
 Vibration     9          0.655              1.785              1.830
 Vibration    10          0.667              1.750              1.680
 Vibration    11          0.689              1.683              1.446
 Vibration    12          0.741              1.536              1.083
 Vibration    13          0.855              1.252              0.660

                           ! Non-Optimized Parameters !
 Normal termination of Gaussian 16 at Tue Dec  8 19:42:17 2020.

 ----------------------------------------------------------------------
 # B3LYP/6-311++G(d,p) empiricaldispersion=gd3bj scf=xqc pop=npa geom=c
 heck
 ----------------------------------------------------------------------

 --------------------------------------
 CID_88831593_JID_1181_Energie_neutraal
 --------------------------------------
 Structure from the checkpoint file:  "JID_1181.chk"
 Charge =  0 Multiplicity = 1

 SCF Done:  E(RB3LYP) =  -584.779409019     A.U. after   15 cycles
 Normal termination of Gaussian 16 at Tue Dec  8 19:43:22 2020.

 ----------------------------------------------------------------------
 # B3LYP/6-311++G(d,p) empiricaldispersion=gd3bj scf=xqc pop=npa geom=c
 heck
 ----------------------------------------------------------------------

 ------------------------------------
 CID_88831593_JID_1181_Energie_kation
 ------------------------------------
 Structure from the checkpoint file:  "JID_1181.chk"
 Charge =  1 Multiplicity = 2

 SCF Done:  E(UB3LYP) =  -584.440331734     A.U. after   33 cycles
 SCF Done:  E(UB3LYP) =  -584.440331735     a.u. after    2 cycles
 Normal termination of Gaussian 16 at Tue Dec  8 19:50:47 2020.
 Gaussian 16:  ES64L-G16RevA.03 25-Dec-2016

 ----------------------------------------------------------------------
 # B3LYP/6-311++G(d,p) empiricaldispersion=gd3bj scf=xqc pop=npa geom=c
 heck
 ----------------------------------------------------------------------

 -----------------------------------
 CID_88831593_JID_1181_Energie_anion
 -----------------------------------
 Structure from the checkpoint file:  "JID_1181.chk"
 Charge = -1 Multiplicity = 2

                         Standard orientation:
 ---------------------------------------------------------------------
 Center     Atomic      Atomic             Coordinates (Angstroms)
 Number     Number       Type             X           Y           Z
 ---------------------------------------------------------------------
      1          6           0       -3.288856    0.648199   -0.003004
      2          7           0       -2.116886   -0.228519   -0.001909
      3          6           0       -2.153412   -1.595700   -0.001415
      4          6           0       -0.839621   -2.022026    0.002357
      5          7           0       -0.010080   -0.943397    0.004425
      6          6           0       -0.794216    0.139356    0.001842
      7          6           0       -0.256770    1.504134    0.003198
      8          8           0       -0.931090    2.522239   -0.000308
      9          7           0        3.092705    0.319789    0.005153
     10          8           0        4.270655    0.498411   -0.004627
     11          8           0        2.771860   -1.022561   -0.004063
     12          1           0       -3.882220    0.467466    0.897447
     13          1           0       -3.897755    0.442873   -0.887507
     14          1           0       -2.941858    1.678692   -0.019178
     15          1           0       -3.088040   -2.136817   -0.004202
     16          1           0       -0.461019   -3.034118    0.003366
     17          1           0        1.768933   -1.009476    0.002641
     18          1           0        0.847633    1.527770    0.007859
 ---------------------------------------------------------------------

 SCF Done:  E(UB3LYP) =  -584.808156673     A.U. after   23 cycles

 The electronic state is 2-A.
 Alpha  occ. eigenvalues --  -19.01858 -19.01653 -18.93178 -14.31188 -14.23513
 Alpha  occ. eigenvalues --  -14.16459 -10.09147 -10.08119 -10.07059 -10.06666
 Alpha  occ. eigenvalues --  -10.06522  -1.05105  -0.89447  -0.88800  -0.86607
 Alpha  occ. eigenvalues --   -0.76171  -0.62973  -0.59697  -0.51845  -0.49859
 Alpha  occ. eigenvalues --   -0.47524  -0.42675  -0.39523  -0.37786  -0.35416
 Alpha  occ. eigenvalues --   -0.34407  -0.34049  -0.31694  -0.31459  -0.29741
 Alpha  occ. eigenvalues --   -0.28847  -0.28373  -0.25749  -0.24609  -0.22852
 Alpha  occ. eigenvalues --   -0.18716  -0.16019  -0.15831  -0.11520  -0.11083
 Alpha  occ. eigenvalues --   -0.09133   0.03501
 Alpha virt. eigenvalues --    0.06617   0.07665   0.09517   0.11028   0.11427
 Alpha virt. eigenvalues --    0.13710   0.14307   0.14869   0.15541   0.16302
 Alpha virt. eigenvalues --    0.16897   0.17829   0.18846   0.19121   0.19681

  Beta  occ. eigenvalues --  -19.01654 -19.01638 -18.92583 -14.30885 -14.23237
  Beta  occ. eigenvalues --  -14.16201 -10.09162 -10.08069 -10.06935 -10.06604
  Beta  occ. eigenvalues --  -10.06338  -1.04701  -0.89056  -0.88636  -0.85587
  Beta  occ. eigenvalues --   -0.75741  -0.62650  -0.59532  -0.51332  -0.48948
  Beta  occ. eigenvalues --   -0.47426  -0.42413  -0.39284  -0.37406  -0.34863
  Beta  occ. eigenvalues --   -0.34157  -0.32800  -0.31566  -0.31223  -0.29474
  Beta  occ. eigenvalues --   -0.28719  -0.27684  -0.25218  -0.24434  -0.20057
  Beta  occ. eigenvalues --   -0.18178  -0.15733  -0.14529  -0.11222  -0.09851
  Beta  occ. eigenvalues --   -0.08620
  Beta virt. eigenvalues --    0.07600   0.08881   0.09446   0.09751   0.11342
  Beta virt. eigenvalues --    0.11825   0.13696   0.14249   0.15260   0.15472
  Beta virt. eigenvalues --    0.16252   0.17090   0.17793   0.19111   0.19159

 Mulliken charges and spin densities:
               1          2
     1  C   -0.313559  -0.033397
     2  N    0.002715   0.053919
     3  C   -0.248264   0.167167
     4  C    0.013639  -0.059963
     5  N   -0.365754   0.099126
     6  C    0.054166   0.112221
     7  C   -0.410811   0.246023
     8  O   -0.427519   0.191582
     9  N   -0.300593   0.136530
    10  O   -0.100475   0.066663
    11  O   -0.261288   0.004815
    12  H    0.119644   0.028663
    13  H    0.117788   0.026992
    14  H    0.189660  -0.002792
    15  H    0.109482  -0.009774
    16  H    0.111513   0.004341
    17  H    0.492494  -0.005246
    18  H    0.217164  -0.026869
 Sum of Mulliken charges =  -1.00000   1.00000

 Dipole moment (field-independent basis, Debye):
    X=             -6.3659    Y=             -3.5428    Z=             -0.0015  Tot=              7.2854
 Quadrupole moment (field-independent basis, Debye-Ang):
   XX=           -101.3536   YY=            -86.1483   ZZ=            -70.2783
   XY=              3.1574   XZ=              0.0978   YZ=             -0.0228

 Summary of Natural Population Analysis:

                                       Natural Population
                Natural  -----------------------------------------------
    Atom  No    Charge         Core      Valence    Rydberg      Total
 -----------------------------------------------------------------------
      C    1   -0.18332      0.99965     2.17752    0.00615     3.18332
      N    2   -0.16170      0.99960     2.65409    0.00801     3.66170
      C    3   -0.01594      0.99958     2.00374    0.01261     3.01594
      C    4   -0.05045      0.99960     2.03883    0.01202     3.05045
      N    5   -0.24605      0.99967     2.73206    0.01433     3.74605
      C    6    0.16194      0.99958     1.82136    0.01711     2.83806
      C    7    0.22025      0.99969     1.76050    0.01957     2.77975
      O    8   -0.24653      0.99988     3.23984    0.00681     4.24653
      N    9    0.18831      0.99988     2.27645    0.03536     3.31169
      O   10   -0.16593      0.99989     3.15280    0.01325     4.16593
      O   11   -0.30146      0.99988     3.28968    0.01190     4.30146
      H   12    0.09000      0.00000     0.40893    0.00106     0.41000
      H   13    0.08982      0.00000     0.40913    0.00105     0.41018
      H   14    0.12685      0.00000     0.37187    0.00128     0.37315
      H   15    0.09294      0.00000     0.40629    0.00077     0.40706
      H   16    0.09184      0.00000     0.40728    0.00088     0.40816
      H   17    0.24883      0.00000     0.24374    0.00743     0.25117
      H   18    0.06062      0.00000     0.43668    0.00270     0.43938
 =======================================================================
   * Total *   -0.00000     10.99691    29.83079    0.17230    41.00000

 Normal termination of Gaussian 16 at Tue Dec  8 19:54:16 2020.
