 Gaussian 16, Revision A.03,

 -----------------------------------------------------------
 # opt freq B3LYP/6-31G(d) empiricaldispersion=gd3bj scf=xqc
 -----------------------------------------------------------

 -------------------------------
 CID_62379838_JID_10633_neutraal
 -------------------------------
 Symbolic Z-matrix:
 Charge =  0 Multiplicity = 1

 SCF Done:  E(RB3LYP) =  -1309.73109850     A.U. after   15 cycles
 SCF Done:  E(RB3LYP) =  -1309.73688853     A.U. after   14 cycles
 SCF Done:  E(RB3LYP) =  -1309.73976802     A.U. after   14 cycles
 SCF Done:  E(RB3LYP) =  -1309.74196043     A.U. after   13 cycles
 SCF Done:  E(RB3LYP) =  -1309.74513995     A.U. after   13 cycles
 SCF Done:  E(RB3LYP) =  -1309.74597205     A.U. after   12 cycles
 SCF Done:  E(RB3LYP) =  -1309.74616383     A.U. after   13 cycles
 SCF Done:  E(RB3LYP) =  -1309.74677281     A.U. after   12 cycles
 SCF Done:  E(RB3LYP) =  -1309.74749691     A.U. after   12 cycles
 SCF Done:  E(RB3LYP) =  -1309.74857309     A.U. after   13 cycles
 SCF Done:  E(RB3LYP) =  -1309.75386515     A.U. after    8 cycles
 SCF Done:  E(RB3LYP) =  -1309.75386577     A.U. after    7 cycles
 SCF Done:  E(RB3LYP) =  -1309.75386623     A.U. after    8 cycles
 SCF Done:  E(RB3LYP) =  -1309.75386632     A.U. after    7 cycles
 SCF Done:  E(RB3LYP) =  -1309.75386636     A.U. after    7 cycles
 Optimization completed.
    -- Stationary point found.
 Normal termination of Gaussian 16 at Sat Dec 12 17:38:36 2020.

 --------------------------------------------------------------------
 #N Geom=AllCheck Guess=TCheck SCRF=Check GenChk RB3LYP/6-31G(d) Freq
 --------------------------------------------------------------------

 Structure from the checkpoint file:  "JID_10633.chk"
 -------------------------------
 CID_62379838_JID_10633_neutraal
 -------------------------------
 Charge =  0 Multiplicity = 1

 SCF Done:  E(RB3LYP) =  -1309.75386636     A.U. after    1 cycles

  Exact polarizability: 185.040 -15.599 182.080 -18.894 -11.633 135.996
 Approx polarizability: 268.429 -32.328 281.974 -33.550 -35.998 232.783

                      1                      2                      3
                      A                      A                      A
 Frequencies --     24.6805                26.4227                36.8432
 Red. masses --      7.4209                 5.6474                 5.2296
 Frc consts  --      0.0027                 0.0023                 0.0042
 IR Inten    --      1.4443                 0.9092                 3.6464

                      4                      5                      6
                      A                      A                      A
 Frequencies --     47.8596                58.3102                82.2975
 Red. masses --      5.0261                 4.7256                 6.8127
 Frc consts  --      0.0068                 0.0095                 0.0272
 IR Inten    --      0.4262                 1.7402                 1.7389

                      7                      8                      9
                      A                      A                      A
 Frequencies --    124.7972               148.4860               164.1797
 Red. masses --      5.0906                 7.4295                 5.5176
 Frc consts  --      0.0467                 0.0965                 0.0876
 IR Inten    --      0.9709                 4.9109                 2.7518

                     10                     11                     12
                      A                      A                      A
 Frequencies --    181.6543               230.5988               244.1239
 Red. masses --      4.0165                 3.7673                 3.4767
 Frc consts  --      0.0781                 0.1180                 0.1221
 IR Inten    --      1.0395                 2.7319                 1.6557

                     13                     14                     15
                      A                      A                      A
 Frequencies --    253.6648               281.8522               299.9652
 Red. masses --      3.6090                 4.2914                 4.0542
 Frc consts  --      0.1368                 0.2009                 0.2149
 IR Inten    --      9.5476                12.0793                 2.8221

                     16                     17                     18
                      A                      A                      A
 Frequencies --    316.5323               347.0339               355.9218
 Red. masses --      1.6335                 3.9000                 1.9592
 Frc consts  --      0.0964                 0.2767                 0.1462
 IR Inten    --     53.0469                14.6240                15.9965

                     19                     20                     21
                      A                      A                      A
 Frequencies --    389.7662               413.9671               419.6616
 Red. masses --      4.1334                 1.9516                 2.9073
 Frc consts  --      0.3700                 0.1970                 0.3017
 IR Inten    --      1.2951                34.2207                 8.3998

                     22                     23                     24
                      A                      A                      A
 Frequencies --    424.0884               445.3698               454.7271
 Red. masses --      3.1971                 1.5248                 2.7652
 Frc consts  --      0.3388                 0.1782                 0.3369
 IR Inten    --      0.2910                54.9908                24.0515

                     25                     26                     27
                      A                      A                      A
 Frequencies --    481.4799               520.4029               530.5329
 Red. masses --      3.4334                 2.8967                 3.4004
 Frc consts  --      0.4690                 0.4622                 0.5639
 IR Inten    --     13.6507                 3.7875                 3.5668

                     28                     29                     30
                      A                      A                      A
 Frequencies --    547.2530               589.0011               615.2338
 Red. masses --      4.2307                10.5522                 4.9258
 Frc consts  --      0.7465                 2.1569                 1.0985
 IR Inten    --     66.6121                50.6407                 7.7197

                     31                     32                     33
                      A                      A                      A
 Frequencies --    631.5616               658.4546               681.7592
 Red. masses --      6.3180                 3.3250                 2.6859
 Frc consts  --      1.4848                 0.8494                 0.7355
 IR Inten    --      1.0811                65.6757                99.6133

                     34                     35                     36
                      A                      A                      A
 Frequencies --    702.0148               721.8808               762.4565
 Red. masses --      2.3583                 6.0426                 2.0143
 Frc consts  --      0.6848                 1.8553                 0.6899
 IR Inten    --      9.9077                48.6404               147.9682

                     37                     38                     39
                      A                      A                      A
 Frequencies --    764.3896               791.8387               814.2732
 Red. masses --      1.6143                 2.2701                 2.2521
 Frc consts  --      0.5557                 0.8386                 0.8798
 IR Inten    --     79.8251                45.5486               148.1188

                     40                     41                     42
                      A                      A                      A
 Frequencies --    831.1110               853.3885               881.4699
 Red. masses --      1.3192                 3.0334                 2.9938
 Frc consts  --      0.5369                 1.3016                 1.3705
 IR Inten    --      7.5954                15.1196                20.4966

                     43                     44                     45
                      A                      A                      A
 Frequencies --    890.6384               904.3062               946.7408
 Red. masses --      1.4295                 1.2771                 4.3566
 Frc consts  --      0.6681                 0.6153                 2.3007
 IR Inten    --     21.4035                 2.5441                24.0722

                     46                     47                     48
                      A                      A                      A
 Frequencies --    956.6471               980.5392               986.6435
 Red. masses --      1.3312                 1.2269                 2.1164
 Frc consts  --      0.7178                 0.6950                 1.2139
 IR Inten    --      0.1306                 1.5006                27.8307

                     49                     50                     51
                      A                      A                      A
 Frequencies --   1017.5087              1043.7984              1059.9558
 Red. masses --      5.5928                 2.4734                 2.0045
 Frc consts  --      3.4116                 1.5877                 1.3269
 IR Inten    --      0.1420                51.5301                14.9624

                     52                     53                     54
                      A                      A                      A
 Frequencies --   1074.2834              1083.3291              1105.2430
 Red. masses --      4.2859                 6.4162                 2.3331
 Frc consts  --      2.9142                 4.4366                 1.6792
 IR Inten    --     10.3723               107.1349                20.8963

                     55                     56                     57
                      A                      A                      A
 Frequencies --   1109.3022              1122.0873              1133.2073
 Red. masses --      2.1901                 1.8112                 1.9556
 Frc consts  --      1.5878                 1.3436                 1.4796
 IR Inten    --     17.2725                15.9877                41.8906

                     58                     59                     60
                      A                      A                      A
 Frequencies --   1140.8193              1189.9058              1204.1393
 Red. masses --      2.4201                 1.0980                 2.7688
 Frc consts  --      1.8557                 0.9160                 2.3653
 IR Inten    --     15.5227                 2.3727                48.5289

                     61                     62                     63
                      A                      A                      A
 Frequencies --   1209.6346              1233.8078              1247.6108
 Red. masses --      1.1431                 2.1197                 1.3149
 Frc consts  --      0.9855                 1.9012                 1.2059
 IR Inten    --     15.6173                 2.8401                11.4627

                     64                     65                     66
                      A                      A                      A
 Frequencies --   1269.8958              1289.9576              1299.2523
 Red. masses --      1.1876                 8.7107                 4.0686
 Frc consts  --      1.1284                 8.5399                 4.0466
 IR Inten    --     16.7245               335.2912               150.4993

                     67                     68                     69
                      A                      A                      A
 Frequencies --   1337.9971              1353.8714              1363.7888
 Red. masses --      1.2018                 1.9232                 2.1684
 Frc consts  --      1.2676                 2.0770                 2.3762
 IR Inten    --     16.7939                12.6281                14.7878

                     70                     71                     72
                      A                      A                      A
 Frequencies --   1373.6209              1379.6333              1397.6371
 Red. masses --      2.4193                 2.7231                 1.3027
 Frc consts  --      2.6895                 3.0538                 1.4993
 IR Inten    --      9.2869                17.3700                 3.0124

                     73                     74                     75
                      A                      A                      A
 Frequencies --   1409.2606              1451.9671              1458.2597
 Red. masses --      1.3783                 1.3178                 1.3309
 Frc consts  --      1.6128                 1.6368                 1.6674
 IR Inten    --     16.2218                14.0576                50.9349

                     76                     77                     78
                      A                      A                      A
 Frequencies --   1478.8188              1501.7841              1507.4935
 Red. masses --      3.7545                 1.1053                 2.3194
 Frc consts  --      4.8376                 1.4688                 3.1055
 IR Inten    --     18.5091                 2.8105                 1.2365

                     79                     80                     81
                      A                      A                      A
 Frequencies --   1520.0358              1540.6097              1556.5889
 Red. masses --      1.0777                 1.4096                 1.5732
 Frc consts  --      1.4671                 1.9712                 2.2458
 IR Inten    --      6.6310                77.6052                31.2839

                     82                     83                     84
                      A                      A                      A
 Frequencies --   1568.9756              1633.1589              1648.8169
 Red. masses --      4.6918                 2.6207                 5.9788
 Frc consts  --      6.8049                 4.1184                 9.5765
 IR Inten    --     87.2422               110.5477                19.4584

                     85                     86                     87
                      A                      A                      A
 Frequencies --   1667.2988              1703.4878              3027.9849
 Red. masses --      5.5750                 1.4041                 1.0683
 Frc consts  --      9.1310                 2.4006                 5.7712
 IR Inten    --     77.6605               185.4517                39.2526

                     88                     89                     90
                      A                      A                      A
 Frequencies --   3046.0185              3065.7770              3084.4160
 Red. masses --      1.0623                 1.0710                 1.1018
 Frc consts  --      5.8070                 5.9307                 6.1759
 IR Inten    --     45.2536                42.1014                26.1315

                     91                     92                     93
                      A                      A                      A
 Frequencies --   3134.9974              3140.4761              3185.4949
 Red. masses --      1.0951                 1.0948                 1.0850
 Frc consts  --      6.3412                 6.3619                 6.4871
 IR Inten    --      4.7043                 6.7322                 2.1581

                     94                     95                     96
                      A                      A                      A
 Frequencies --   3193.2655              3207.2987              3215.0791
 Red. masses --      1.0892                 1.0923                 1.0968
 Frc consts  --      6.5438                 6.6204                 6.6799
 IR Inten    --     14.1877                30.1022                14.9215

                     97                     98                     99
                      A                      A                      A
 Frequencies --   3236.9417              3279.4787              3500.4295
 Red. masses --      1.0918                 1.0977                 1.0522
 Frc consts  --      6.7398                 6.9559                 7.5965
 IR Inten    --      6.4588                22.0184                56.3923

                    100                    101                    102
                      A                      A                      A
 Frequencies --   3539.9470              3618.5148              3664.4470
 Red. masses --      1.0750                 1.0944                 1.0810
 Frc consts  --      7.9366                 8.4431                 8.5527
 IR Inten    --     21.6663                41.7632                72.6051

 - Thermochemistry -
 -------------------
 Temperature   298.150 Kelvin.  Pressure   1.00000 Atm.
 Atom     1 has atomic number  6 and mass  12.00000

 Molecular mass:   296.09431 amu.
 Principal axes and moments of inertia in atomic units:
                           1         2         3
     Eigenvalues --  3812.010797765.753139437.05502
           X            0.99996  -0.00152  -0.00913
           Y            0.00173   0.99973   0.02308
           Z            0.00910  -0.02310   0.99969
 This molecule is an asymmetric top.
 Rotational symmetry number  1.
 Warning -- assumption of classical behavior for rotation
           may cause significant error
 Rotational temperatures (Kelvin)      0.02272     0.01115     0.00918
 Rotational constants (GHZ):           0.47344     0.23240     0.19124
 Zero-point vibrational energy     757500.7 (Joules/Mol)
                                  181.04702 (Kcal/Mol)
 Warning -- explicit consideration of  30 degrees of freedom as
           vibrations may cause significant error
 Vibrational temperatures:     35.51    38.02    53.01    68.86    83.90
          (Kelvin)            118.41   179.56   213.64   236.22   261.36
                              331.78   351.24   364.97   405.52   431.58
                              455.42   499.30   512.09   560.79   595.61
                              603.80   610.17   640.79   654.25   692.74
                              748.74   763.32   787.38   847.44   885.18
                              908.68   947.37   980.90  1010.04  1038.63
                             1097.00  1099.79  1139.28  1171.56  1195.78
                             1227.84  1268.24  1281.43  1301.09  1362.15
                             1376.40  1410.78  1419.56  1463.97  1501.79
                             1525.04  1545.65  1558.67  1590.20  1596.04
                             1614.43  1630.43  1641.38  1712.01  1732.49
                             1740.39  1775.17  1795.03  1827.10  1855.96
                             1869.33  1925.08  1947.92  1962.19  1976.33
                             1984.98  2010.89  2027.61  2089.06  2098.11
                             2127.69  2160.73  2168.95  2186.99  2216.59
                             2239.58  2257.41  2349.75  2372.28  2398.87
                             2450.94  4356.59  4382.54  4410.97  4437.79
                             4510.56  4518.44  4583.22  4594.40  4614.59
                             4625.78  4657.24  4718.44  5036.34  5093.19
                             5206.24  5272.32

 Zero-point correction=                           0.288517 (Hartree/Particle)
 Thermal correction to Energy=                    0.307210
 Thermal correction to Enthalpy=                  0.308155
 Thermal correction to Gibbs Free Energy=         0.239743
 Sum of electronic and zero-point Energies=          -1309.465350
 Sum of electronic and thermal Energies=             -1309.446656
 Sum of electronic and thermal Enthalpies=           -1309.445712
 Sum of electronic and thermal Free Energies=        -1309.514123

                     E (Thermal)             CV                S
                      KCal/Mol        Cal/Mol-Kelvin    Cal/Mol-Kelvin
 Total                  192.777             71.698            143.984
 Electronic               0.000              0.000              0.000
 Translational            0.889              2.981             42.954
 Rotational               0.889              2.981             33.990
 Vibrational            191.000             65.736             67.040
 Vibration     1          0.593              1.985              6.217
 Vibration     2          0.593              1.985              6.081
 Vibration     3          0.594              1.982              5.422
 Vibration     4          0.595              1.978              4.904
 Vibration     5          0.596              1.974              4.514
 Vibration     6          0.600              1.961              3.835
 Vibration     7          0.610              1.928              3.025
 Vibration     8          0.618              1.904              2.692
 Vibration     9          0.623              1.886              2.501
 Vibration    10          0.630              1.865              2.311
 Vibration    11          0.652              1.794              1.874
 Vibration    12          0.659              1.772              1.773
 Vibration    13          0.665              1.757              1.705
 Vibration    14          0.681              1.707              1.522
 Vibration    15          0.692              1.674              1.417
 Vibration    16          0.703              1.642              1.328
 Vibration    17          0.725              1.581              1.180
 Vibration    18          0.731              1.563              1.140
 Vibration    19          0.758              1.492              1.001
 Vibration    20          0.778              1.440              0.913
 Vibration    21          0.782              1.428              0.893
 Vibration    22          0.786              1.418              0.878
 Vibration    23          0.805              1.371              0.810
 Vibration    24          0.813              1.350              0.782
 Vibration    25          0.838              1.291              0.706
 Vibration    26          0.875              1.205              0.609
 Vibration    27          0.885              1.182              0.586
 Vibration    28          0.902              1.146              0.550
 Vibration    29          0.946              1.055              0.469
 Vibration    30          0.975              1.000              0.424

 Optimization completed.
    -- Stationary point found.
 Normal termination of Gaussian 16 at Sat Dec 12 17:59:44 2020.

 ----------------------------------------------------------------------
 # B3LYP/6-311++G(d,p) empiricaldispersion=gd3bj scf=xqc pop=npa geom=c
 heck
 ----------------------------------------------------------------------

 ---------------------------------------
 CID_62379838_JID_10633_Energie_neutraal
 ---------------------------------------
 Structure from the checkpoint file:  "JID_10633.chk"
 Charge =  0 Multiplicity = 1

 SCF Done:  E(RB3LYP) =  -1310.04498378     A.U. after   16 cycles
 Normal termination of Gaussian 16 at Sat Dec 12 18:09:35 2020.

 ----------------------------------------------------------------------
 # B3LYP/6-311++G(d,p) empiricaldispersion=gd3bj scf=xqc pop=npa geom=c
 heck
 ----------------------------------------------------------------------

 -------------------------------------
 CID_62379838_JID_10633_Energie_kation
 -------------------------------------
 Structure from the checkpoint file:  "JID_10633.chk"
 Charge =  1 Multiplicity = 2

 SCF Done:  E(UB3LYP) =  -1309.76099244     A.U. after   28 cycles
 Normal termination of Gaussian 16 at Sat Dec 12 18:34:09 2020.
 Gaussian 16:  ES64L-G16RevA.03 25-Dec-2016

 ----------------------------------------------------------------------
 # B3LYP/6-311++G(d,p) empiricaldispersion=gd3bj scf=xqc pop=npa geom=c
 heck
 ----------------------------------------------------------------------

 ------------------------------------
 CID_62379838_JID_10633_Energie_anion
 ------------------------------------
 Structure from the checkpoint file:  "JID_10633.chk"
 Charge = -1 Multiplicity = 2

                         Standard orientation:
 ---------------------------------------------------------------------
 Center     Atomic      Atomic             Coordinates (Angstroms)
 Number     Number       Type             X           Y           Z
 ---------------------------------------------------------------------
      1          6           0       -4.336282    1.641458    0.817304
      2          6           0       -3.709015    1.966450   -0.388823
      3          6           0       -2.848040    1.061942   -1.001566
      4          6           0       -2.599411   -0.182908   -0.406241
      5          6           0       -3.225382   -0.518637    0.797871
      6          6           0       -4.088638    0.400031    1.399378
      7          8           0       -1.730387   -0.992592   -1.079299
      8          6           0       -1.413371   -2.273125   -0.533010
      9          6           0       -0.279779   -2.833937   -1.379407
     10          6           0        0.957852   -1.929272   -1.458248
     11          7           0        1.803749   -1.842828   -0.263947
     12         16           0        1.562266   -0.715285    0.963579
     13          8           0        0.220309   -0.771205    1.556622
     14          8           0        2.741006   -0.914522    1.830040
     15          6           0        1.712335    0.794387    0.130970
     16          6           0        2.930583    1.414899   -0.165394
     17          7           0        2.589463    2.576918   -0.769115
     18          7           0        1.229171    2.765864   -0.877995
     19          6           0        0.704664    1.685486   -0.328397
     20          7           0        4.216918    0.976544    0.034745
     21          1           0       -5.006883    2.348612    1.295757
     22          1           0       -3.890155    2.930033   -0.856886
     23          1           0       -2.355154    1.295044   -1.940383
     24          1           0       -3.037296   -1.472537    1.274566
     25          1           0       -4.566633    0.134932    2.338444
     26          1           0       -1.104488   -2.167489    0.509164
     27          1           0       -2.294990   -2.927619   -0.583507
     28          1           0       -0.002051   -3.822927   -0.991133
     29          1           0       -0.642497   -2.984995   -2.404024
     30          1           0        1.608595   -2.282363   -2.266491
     31          1           0        0.655995   -0.912296   -1.719401
     32          1           0        2.098162   -2.726344    0.145914
     33          1           0        3.207793    3.280935   -1.142940
     34          1           0       -0.366799    1.561427   -0.256537
     35          1           0        4.897984    1.700122    0.232444
     36          1           0        4.246550    0.220443    0.716412
 ---------------------------------------------------------------------

 SCF Done:  E(UB3LYP) =  -1310.04040342     A.U. after   33 cycles
 SCF Done:  E(UB3LYP) =  -1310.04040342     a.u. after    1 cycles

 The electronic state is 2-A.
 Alpha  occ. eigenvalues --  -88.97747 -19.07235 -19.02473 -19.02268 -14.29215
 Alpha  occ. eigenvalues --  -14.24951 -14.24333 -14.23726 -10.17501 -10.15903
 Alpha  occ. eigenvalues --  -10.13793 -10.12414 -10.11277 -10.10405 -10.10378
 Alpha  occ. eigenvalues --  -10.09839 -10.09727 -10.09645 -10.09572 -10.09234
 Alpha  occ. eigenvalues --   -8.03795  -6.00073  -6.00043  -5.99926  -1.02650
 Alpha  occ. eigenvalues --   -0.98860  -0.95982  -0.91505  -0.83769  -0.83534
 Alpha  occ. eigenvalues --   -0.78025  -0.73498  -0.71272  -0.69769  -0.67625
 Alpha  occ. eigenvalues --   -0.66232  -0.61834  -0.59030  -0.54963  -0.53278
 Alpha  occ. eigenvalues --   -0.52694  -0.50821  -0.49690  -0.47371  -0.46476
 Alpha  occ. eigenvalues --   -0.44441  -0.41997  -0.41109  -0.40644  -0.39901
 Alpha  occ. eigenvalues --   -0.39817  -0.39125  -0.37653  -0.37289  -0.36175
 Alpha  occ. eigenvalues --   -0.35889  -0.35079  -0.34484  -0.33426  -0.33041
 Alpha  occ. eigenvalues --   -0.31140  -0.29489  -0.29113  -0.28620  -0.27462
 Alpha  occ. eigenvalues --   -0.25885  -0.25222  -0.24827  -0.24599  -0.23758
 Alpha  occ. eigenvalues --   -0.23205  -0.22008  -0.20694  -0.18937  -0.18271
 Alpha  occ. eigenvalues --   -0.16824  -0.14987  -0.13506   0.03661
 Alpha virt. eigenvalues --    0.05065   0.05862   0.05925   0.07116   0.07276
 Alpha virt. eigenvalues --    0.07500   0.08065   0.08322   0.08961   0.09964
 Alpha virt. eigenvalues --    0.10269   0.10353   0.10529   0.11513   0.11582

  Beta  occ. eigenvalues --  -88.97746 -19.07233 -19.02469 -19.02262 -14.29155
  Beta  occ. eigenvalues --  -14.24931 -14.24325 -14.23650 -10.17501 -10.15903
  Beta  occ. eigenvalues --  -10.13785 -10.12402 -10.11277 -10.10403 -10.10377
  Beta  occ. eigenvalues --  -10.09829 -10.09726 -10.09645 -10.09570 -10.09207
  Beta  occ. eigenvalues --   -8.03795  -6.00073  -6.00042  -5.99926  -1.02641
  Beta  occ. eigenvalues --   -0.98856  -0.95939  -0.91496  -0.83684  -0.83499
  Beta  occ. eigenvalues --   -0.78022  -0.73424  -0.71241  -0.69727  -0.67620
  Beta  occ. eigenvalues --   -0.66217  -0.61810  -0.58984  -0.54935  -0.53260
  Beta  occ. eigenvalues --   -0.52640  -0.50796  -0.49642  -0.47265  -0.46458
  Beta  occ. eigenvalues --   -0.44404  -0.41981  -0.41077  -0.40626  -0.39882
  Beta  occ. eigenvalues --   -0.39771  -0.39097  -0.37593  -0.37272  -0.36141
  Beta  occ. eigenvalues --   -0.35867  -0.35072  -0.34460  -0.33402  -0.33016
  Beta  occ. eigenvalues --   -0.31120  -0.29478  -0.29101  -0.28601  -0.27431
  Beta  occ. eigenvalues --   -0.25870  -0.25211  -0.24783  -0.24587  -0.23742
  Beta  occ. eigenvalues --   -0.23192  -0.21994  -0.20674  -0.18911  -0.18264
  Beta  occ. eigenvalues --   -0.16798  -0.14982  -0.13464
  Beta virt. eigenvalues --    0.05675   0.05864   0.06193   0.07169   0.07262
  Beta virt. eigenvalues --    0.07490   0.07937   0.08286   0.08951   0.09363
  Beta virt. eigenvalues --    0.10177   0.10319   0.10516   0.10898   0.11570

 Mulliken charges and spin densities:
               1          2
     1  C   -0.380165  -0.009311
     2  C   -0.126655  -0.047619
     3  C   -0.029983   0.178395
     4  C   -0.076595  -0.159890
     5  C    0.216617  -0.129917
     6  C   -0.367817   0.201385
     7  O   -0.018545  -0.000327
     8  C   -1.156830   1.096085
     9  C    1.542816  -2.242417
    10  C   -0.491079   0.015418
    11  N   -0.299290   0.079495
    12  S    1.249136  -0.805196
    13  O   -0.112026   0.005382
    14  O   -0.240180   0.006483
    15  C    0.476289  -0.960820
    16  C   -0.949175   0.806188
    17  N    0.242881  -0.384449
    18  N   -0.376948   0.231365
    19  C    0.088455  -0.286572
    20  N   -0.060455  -0.166014
    21  H    0.133357   0.004009
    22  H    0.160907   0.004543
    23  H    0.157757   0.030190
    24  H    0.102232   0.055368
    25  H    0.145136   0.022776
    26  H    0.187180  -0.018038
    27  H   -0.111416   0.292613
    28  H   -0.380717   0.567300
    29  H    0.028102   0.139325
    30  H   -0.330109   0.552093
    31  H    0.270305  -0.036285
    32  H    0.110793   0.189104
    33  H   -0.356829   0.720653
    34  H    0.249380  -0.008047
    35  H   -0.719362   1.001199
    36  H    0.222831   0.055531
 Sum of Mulliken charges =  -1.00000   1.00000

 Dipole moment (field-independent basis, Debye):
    X=            -10.2057    Y=             -1.8458    Z=              0.6301  Tot=             10.3904
 Quadrupole moment (field-independent basis, Debye-Ang):
   XX=           -206.8027   YY=           -186.1538   ZZ=           -157.7541
   XY=            -23.5263   XZ=             -2.0255   YZ=             -1.0782

 Summary of Natural Population Analysis:

                                       Natural Population
                Natural  -----------------------------------------------
    Atom  No    Charge         Core      Valence    Rydberg      Total
 -----------------------------------------------------------------------
      C    1   -0.12240      0.99957     2.11390    0.00893     3.12240
      C    2   -0.09490      0.99958     2.08710    0.00822     3.09490
      C    3   -0.12699      0.99953     2.11848    0.00898     3.12699
      C    4    0.16623      0.99938     1.82093    0.01346     2.83377
      C    5   -0.13708      0.99952     2.13007    0.00749     3.13708
      C    6   -0.09191      0.99958     2.08308    0.00924     3.09191
      O    7   -0.28048      0.99985     3.27081    0.00982     4.28048
      C    8   -0.02130      0.99955     2.00954    0.01221     3.02130
      C    9   -0.20266      0.99962     2.19354    0.00951     3.20266
      C   10   -0.09692      0.99960     2.08365    0.01367     3.09692
      N   11   -0.43570      0.99975     2.92388    0.01207     3.93570
      S   12    1.11368      4.99914     1.78416    0.10303     6.88632
      O   13   -0.46451      0.99990     3.45925    0.00536     4.46451
      O   14   -0.47469      0.99991     3.46985    0.00493     4.47469
      C   15   -0.25098      0.99931     2.23740    0.01427     3.25098
      C   16    0.20311      0.99948     1.78321    0.01420     2.79689
      N   17   -0.18161      0.99965     2.66851    0.01346     3.68161
      N   18   -0.15715      0.99974     2.64493    0.01249     3.65715
      C   19    0.00880      0.99957     1.97611    0.01551     2.99120
      N   20   -0.39030      0.99970     2.88153    0.00908     3.89030
      H   21    0.09873      0.00000     0.40036    0.00090     0.40127
      H   22    0.10028      0.00000     0.39888    0.00084     0.39972
      H   23    0.10966      0.00000     0.38928    0.00106     0.39034
      H   24    0.10777      0.00000     0.39087    0.00136     0.39223
      H   25    0.09931      0.00000     0.39982    0.00087     0.40069
      H   26    0.10313      0.00000     0.39480    0.00207     0.39687
      H   27    0.08445      0.00000     0.41432    0.00122     0.41555
      H   28    0.10309      0.00000     0.39478    0.00214     0.39691
      H   29    0.10227      0.00000     0.39642    0.00131     0.39773
      H   30    0.10136      0.00000     0.39752    0.00112     0.39864
      H   31    0.10890      0.00000     0.38906    0.00204     0.39110
      H   32    0.19672      0.00000     0.30108    0.00219     0.30328
      H   33    0.20762      0.00000     0.28146    0.01093     0.29238
      H   34    0.10956      0.00000     0.38859    0.00185     0.39044
      H   35    0.19908      0.00000     0.28323    0.01769     0.30092
      H   36    0.20584      0.00000     0.29196    0.00220     0.29416
 =======================================================================
   * Total *   -0.00000     23.99192    53.65237    0.35570    78.00000

 Normal termination of Gaussian 16 at Sat Dec 12 19:01:58 2020.
