 Gaussian 16, Revision A.03,

 -----------------------------------------------------------
 # opt freq B3LYP/6-31G(d) empiricaldispersion=gd3bj scf=xqc
 -----------------------------------------------------------

 --------------------------------
 CID_116862726_JID_10093_neutraal
 --------------------------------
 Symbolic Z-matrix:
 Charge =  0 Multiplicity = 1

 SCF Done:  E(RB3LYP) =  -836.017115821     A.U. after   16 cycles
 SCF Done:  E(RB3LYP) =  -836.024891707     A.U. after   13 cycles
 SCF Done:  E(RB3LYP) =  -836.027370985     A.U. after   13 cycles
 SCF Done:  E(RB3LYP) =  -836.028610978     A.U. after   13 cycles
 SCF Done:  E(RB3LYP) =  -836.028857726     A.U. after   12 cycles
 SCF Done:  E(RB3LYP) =  -836.029006469     A.U. after   11 cycles
 SCF Done:  E(RB3LYP) =  -836.029113856     A.U. after   11 cycles
 SCF Done:  E(RB3LYP) =  -836.029205372     A.U. after   11 cycles
 SCF Done:  E(RB3LYP) =  -836.029326362     A.U. after   11 cycles
 SCF Done:  E(RB3LYP) =  -836.029388918     A.U. after   11 cycles
 SCF Done:  E(RB3LYP) =  -836.029448767     A.U. after   11 cycles
 SCF Done:  E(RB3LYP) =  -836.029452993     A.U. after   11 cycles
 SCF Done:  E(RB3LYP) =  -836.029479920     A.U. after   10 cycles
 SCF Done:  E(RB3LYP) =  -836.029487262     A.U. after   10 cycles
 SCF Done:  E(RB3LYP) =  -836.029487610     A.U. after    9 cycles
 SCF Done:  E(RB3LYP) =  -836.029487796     A.U. after    8 cycles
 Optimization completed.
    -- Stationary point found.
 Normal termination of Gaussian 16 at Thu Dec 17 20:14:27 2020.

 --------------------------------------------------------------------
 #N Geom=AllCheck Guess=TCheck SCRF=Check GenChk RB3LYP/6-31G(d) Freq
 --------------------------------------------------------------------

 Structure from the checkpoint file:  "JID_10093.chk"
 --------------------------------
 CID_116862726_JID_10093_neutraal
 --------------------------------
 Charge =  0 Multiplicity = 1

 SCF Done:  E(RB3LYP) =  -836.029487796     A.U. after    1 cycles

  Exact polarizability: 359.748  13.943 216.636  -0.121   0.146  67.898
 Approx polarizability: 502.592  33.247 399.571   0.527   1.382 107.767

                      1                      2                      3
                      A                      A                      A
 Frequencies --     30.8884                43.8594                71.8078
 Red. masses --      4.6734                 4.7498                 7.3122
 Frc consts  --      0.0026                 0.0054                 0.0222
 IR Inten    --      2.2056                 0.8163                 1.9687

                      4                      5                      6
                      A                      A                      A
 Frequencies --     93.1870               112.9520               134.4800
 Red. masses --      1.1767                 3.8372                 4.8855
 Frc consts  --      0.0060                 0.0288                 0.0521
 IR Inten    --      0.1012                 0.0953                 2.8398

                      7                      8                      9
                      A                      A                      A
 Frequencies --    145.6605               187.4090               200.1578
 Red. masses --      6.7032                 3.7831                 5.2056
 Frc consts  --      0.0838                 0.0783                 0.1229
 IR Inten    --      3.1403                 0.1445                 0.9651

                     10                     11                     12
                      A                      A                      A
 Frequencies --    221.6458               233.8490               248.3405
 Red. masses --      4.9006                 4.7803                 4.9703
 Frc consts  --      0.1418                 0.1540                 0.1806
 IR Inten    --      6.5086                 1.0861                 0.3920

                     13                     14                     15
                      A                      A                      A
 Frequencies --    335.6905               337.6910               349.5187
 Red. masses --      1.2929                 4.2996                 3.4995
 Frc consts  --      0.0858                 0.2889                 0.2519
 IR Inten    --    328.6120                 6.4871                 5.9063

                     16                     17                     18
                      A                      A                      A
 Frequencies --    400.4412               411.3868               412.8864
 Red. masses --      5.2682                 3.4947                 4.2836
 Frc consts  --      0.4977                 0.3485                 0.4302
 IR Inten    --      1.9723                 5.5199                 1.0767

                     19                     20                     21
                      A                      A                      A
 Frequencies --    462.6708               491.5868               493.0949
 Red. masses --      5.2365                 1.4975                 2.2752
 Frc consts  --      0.6604                 0.2132                 0.3259
 IR Inten    --      1.0193                19.4064                22.5727

                     22                     23                     24
                      A                      A                      A
 Frequencies --    496.8970               514.1265               537.3231
 Red. masses --      3.8273                 5.4134                 6.6252
 Frc consts  --      0.5568                 0.8431                 1.1270
 IR Inten    --      7.7420                 3.1577                 0.5211

                     25                     26                     27
                      A                      A                      A
 Frequencies --    541.3251               574.6835               633.4126
 Red. masses --      3.2305                 6.8726                 5.9382
 Frc consts  --      0.5577                 1.3373                 1.4037
 IR Inten    --      0.4795                 5.6691                 3.1832

                     28                     29                     30
                      A                      A                      A
 Frequencies --    643.2413               661.5574               688.3485
 Red. masses --      3.8426                 7.0200                11.5557
 Frc consts  --      0.9368                 1.8102                 3.2260
 IR Inten    --      1.1357                 1.4452                 4.2461

                     31                     32                     33
                      A                      A                      A
 Frequencies --    718.7007               738.0318               781.2507
 Red. masses --      3.0103                 5.9045                 2.9921
 Frc consts  --      0.9161                 1.8949                 1.0760
 IR Inten    --      1.6593                 7.4102                 0.1361

                     34                     35                     36
                      A                      A                      A
 Frequencies --    799.6664               808.3143               827.5207
 Red. masses --      2.3874                 5.3003                 1.5249
 Frc consts  --      0.8995                 2.0404                 0.6152
 IR Inten    --      5.1122                 5.4842                17.2465

                     37                     38                     39
                      A                      A                      A
 Frequencies --    843.6810               850.1171               880.5070
 Red. masses --      1.5846                 1.9553                 5.0838
 Frc consts  --      0.6645                 0.8325                 2.3222
 IR Inten    --     48.1707                 5.2428                11.5103

                     40                     41                     42
                      A                      A                      A
 Frequencies --    907.1136               947.6551               949.2169
 Red. masses --      1.5131                 4.5158                 1.4177
 Frc consts  --      0.7336                 2.3894                 0.7526
 IR Inten    --     12.5625                 2.1913                 8.6687

                     43                     44                     45
                      A                      A                      A
 Frequencies --    973.9223               982.9466               988.1917
 Red. masses --      1.3401                 3.9238                 1.3078
 Frc consts  --      0.7489                 2.2336                 0.7524
 IR Inten    --      2.4591                 1.2063                 0.3378

                     46                     47                     48
                      A                      A                      A
 Frequencies --   1004.2562              1025.6941              1037.7812
 Red. masses --      6.1293                 3.6685                 1.5406
 Frc consts  --      3.6421                 2.2739                 0.9775
 IR Inten    --      4.4911                10.6458                 8.9174

                     49                     50                     51
                      A                      A                      A
 Frequencies --   1076.6271              1078.9681              1154.5533
 Red. masses --      1.5238                 1.6953                 1.8749
 Frc consts  --      1.0407                 1.1628                 1.4725
 IR Inten    --      4.6010                 3.9922                28.6017

                     52                     53                     54
                      A                      A                      A
 Frequencies --   1174.2056              1189.4783              1201.8508
 Red. masses --      1.8369                 1.2672                 1.6464
 Frc consts  --      1.4922                 1.0564                 1.4011
 IR Inten    --      0.8305                 8.1991                21.8125

                     55                     56                     57
                      A                      A                      A
 Frequencies --   1208.8407              1251.8153              1286.8505
 Red. masses --      1.4939                 3.7034                 1.6913
 Frc consts  --      1.2862                 3.4192                 1.6502
 IR Inten    --     13.7426                18.2851                 9.8643

                     58                     59                     60
                      A                      A                      A
 Frequencies --   1304.5162              1309.4222              1380.2256
 Red. masses --      1.8780                 6.0609                 2.0262
 Frc consts  --      1.8830                 6.1227                 2.2743
 IR Inten    --      3.6391                50.0471                 5.2247

                     61                     62                     63
                      A                      A                      A
 Frequencies --   1412.7307              1425.0281              1434.1433
 Red. masses --      4.2476                 3.6501                 4.7251
 Frc consts  --      4.9947                 4.3672                 5.7259
 IR Inten    --    223.9087                 0.7131                19.8557

                     64                     65                     66
                      A                      A                      A
 Frequencies --   1441.8457              1443.9862              1457.3708
 Red. masses --      2.3770                 1.8897                 4.5186
 Frc consts  --      2.9115                 2.3214                 5.6545
 IR Inten    --    170.6869                84.0917                45.6949

                     67                     68                     69
                      A                      A                      A
 Frequencies --   1491.6729              1512.8166              1521.5299
 Red. masses --      3.7996                 1.0444                 1.1933
 Frc consts  --      4.9812                 1.4082                 1.6276
 IR Inten    --      4.5037                 5.7699                10.8137

                     70                     71                     72
                      A                      A                      A
 Frequencies --   1536.8340              1560.1616              1597.7743
 Red. masses --      2.7977                 3.0287                 8.1074
 Frc consts  --      3.8931                 4.3436                12.1945
 IR Inten    --     74.1881                 1.4359               489.4989

                     73                     74                     75
                      A                      A                      A
 Frequencies --   1620.3231              1629.8414              1668.7262
 Red. masses --      3.7564                 5.4888                 5.5830
 Frc consts  --      5.8106                 8.5905                 9.1599
 IR Inten    --    191.0602                57.4257                25.1269

                     76                     77                     78
                      A                      A                      A
 Frequencies --   1676.6464              1691.6979              2366.1133
 Red. masses --      1.6198                 6.1633                12.6892
 Frc consts  --      2.6828                10.3923                41.8559
 IR Inten    --    465.8331                26.1769                 0.6516

                     79                     80                     81
                      A                      A                      A
 Frequencies --   3042.2307              3092.9296              3129.5451
 Red. masses --      1.0377                 1.1006                 1.1007
 Frc consts  --      5.6586                 6.2035                 6.3513
 IR Inten    --     43.7838                19.7329                16.0479

                     82                     83                     84
                      A                      A                      A
 Frequencies --   3174.7136              3178.0423              3184.8986
 Red. masses --      1.0899                 1.0866                 1.0895
 Frc consts  --      6.4724                 6.4658                 6.5115
 IR Inten    --     15.7354                 9.3969                23.2307

                     85                     86                     87
                      A                      A                      A
 Frequencies --   3196.9761              3222.0525              3230.3034
 Red. masses --      1.0953                 1.0902                 1.0932
 Frc consts  --      6.5956                 6.6684                 6.7212
 IR Inten    --     22.2493                 0.5524                 1.1488

                     88                     89                     90
                      A                      A                      A
 Frequencies --   3237.1977              3595.1753              3715.0082
 Red. masses --      1.0918                 1.0460                 1.1032
 Frc consts  --      6.7413                 7.9658                 8.9710
 IR Inten    --      4.6543                81.4252                37.8149

 - Thermochemistry -
 -------------------
 Temperature   298.150 Kelvin.  Pressure   1.00000 Atm.
 Atom     1 has atomic number  6 and mass  12.00000

 Molecular mass:   260.10620 amu.
 Principal axes and moments of inertia in atomic units:
                           1         2         3
     Eigenvalues --  2209.53809********************
           X            0.99992   0.01236  -0.00051
           Y           -0.01236   0.99992  -0.00140
           Z            0.00049   0.00141   1.00000
 This molecule is an asymmetric top.
 Rotational symmetry number  1.
 Warning -- assumption of classical behavior for rotation
           may cause significant error
 Rotational temperatures (Kelvin)      0.03920     0.00757     0.00635
 Rotational constants (GHZ):           0.81680     0.15779     0.13236
 Zero-point vibrational energy     651249.2 (Joules/Mol)
                                  155.65228 (Kcal/Mol)
 Warning -- explicit consideration of  26 degrees of freedom as
           vibrations may cause significant error
 Vibrational temperatures:     44.44    63.10   103.32   134.08   162.51
          (Kelvin)            193.49   209.57   269.64   287.98   318.90
                              336.46   357.31   482.98   485.86   502.88
                              576.15   591.89   594.05   665.68   707.28
                              709.45   714.92   739.71   773.09   778.85
                              826.84   911.34   925.48   951.83   990.38
                             1034.05  1061.86  1124.05  1150.54  1162.98
                             1190.62  1213.87  1223.13  1266.85  1305.13
                             1363.46  1365.71  1401.26  1414.24  1421.79
                             1444.90  1475.75  1493.14  1549.03  1552.39
                             1661.14  1689.42  1711.39  1729.20  1739.25
                             1801.08  1851.49  1876.91  1883.97  1985.84
                             2032.60  2050.30  2063.41  2074.49  2077.57
                             2096.83  2146.18  2176.61  2189.14  2211.16
                             2244.72  2298.84  2331.28  2344.98  2400.92
                             2412.32  2433.98  3404.31  4377.09  4450.04
                             4502.72  4567.70  4572.49  4582.36  4599.74
                             4635.81  4647.69  4657.61  5172.66  5345.07

 Zero-point correction=                           0.248048 (Hartree/Particle)
 Thermal correction to Energy=                    0.264448
 Thermal correction to Enthalpy=                  0.265392
 Thermal correction to Gibbs Free Energy=         0.203422
 Sum of electronic and zero-point Energies=           -835.781440
 Sum of electronic and thermal Energies=              -835.765040
 Sum of electronic and thermal Enthalpies=            -835.764096
 Sum of electronic and thermal Free Energies=         -835.826066

                     E (Thermal)             CV                S
                      KCal/Mol        Cal/Mol-Kelvin    Cal/Mol-Kelvin
 Total                  165.943             64.232            130.427
 Electronic               0.000              0.000              0.000
 Translational            0.889              2.981             42.567
 Rotational               0.889              2.981             34.199
 Vibrational            164.166             58.270             53.661
 Vibration     1          0.594              1.984              5.772
 Vibration     2          0.595              1.980              5.077
 Vibration     3          0.598              1.967              4.103
 Vibration     4          0.602              1.954              3.592
 Vibration     5          0.607              1.939              3.218
 Vibration     6          0.613              1.919              2.881
 Vibration     7          0.617              1.907              2.728
 Vibration     8          0.632              1.857              2.253
 Vibration     9          0.638              1.840              2.132
 Vibration    10          0.648              1.808              1.946
 Vibration    11          0.654              1.789              1.849
 Vibration    12          0.662              1.766              1.742
 Vibration    13          0.717              1.604              1.233
 Vibration    14          0.718              1.600              1.223
 Vibration    15          0.727              1.576              1.168
 Vibration    16          0.766              1.469              0.961
 Vibration    17          0.775              1.446              0.922
 Vibration    18          0.777              1.442              0.916
 Vibration    19          0.820              1.333              0.758
 Vibration    20          0.847              1.269              0.679
 Vibration    21          0.849              1.265              0.676
 Vibration    22          0.852              1.257              0.666
 Vibration    23          0.869              1.219              0.624
 Vibration    24          0.892              1.167              0.571
 Vibration    25          0.896              1.159              0.562
 Vibration    26          0.931              1.086              0.495

 Optimization completed.
    -- Stationary point found.
 Normal termination of Gaussian 16 at Thu Dec 17 20:27:56 2020.

 ----------------------------------------------------------------------
 # B3LYP/6-311++G(d,p) empiricaldispersion=gd3bj scf=xqc pop=npa geom=c
 heck
 ----------------------------------------------------------------------

 ----------------------------------------
 CID_116862726_JID_10093_Energie_neutraal
 ----------------------------------------
 Structure from the checkpoint file:  "JID_10093.chk"
 Charge =  0 Multiplicity = 1

 SCF Done:  E(RB3LYP) =  -836.243777241     A.U. after   16 cycles
 Normal termination of Gaussian 16 at Thu Dec 17 20:34:17 2020.

 ----------------------------------------------------------------------
 # B3LYP/6-311++G(d,p) empiricaldispersion=gd3bj scf=xqc pop=npa geom=c
 heck
 ----------------------------------------------------------------------

 --------------------------------------
 CID_116862726_JID_10093_Energie_kation
 --------------------------------------
 Structure from the checkpoint file:  "JID_10093.chk"
 Charge =  1 Multiplicity = 2

 SCF Done:  E(UB3LYP) =  -835.964302081     A.U. after   26 cycles
 Normal termination of Gaussian 16 at Thu Dec 17 20:48:45 2020.
 Gaussian 16:  ES64L-G16RevA.03 25-Dec-2016

 ----------------------------------------------------------------------
 # B3LYP/6-311++G(d,p) empiricaldispersion=gd3bj scf=xqc pop=npa geom=c
 heck
 ----------------------------------------------------------------------

 -------------------------------------
 CID_116862726_JID_10093_Energie_anion
 -------------------------------------
 Structure from the checkpoint file:  "JID_10093.chk"
 Charge = -1 Multiplicity = 2

                         Standard orientation:
 ---------------------------------------------------------------------
 Center     Atomic      Atomic             Coordinates (Angstroms)
 Number     Number       Type             X           Y           Z
 ---------------------------------------------------------------------
      1          6           0        6.362719    0.115846    0.001004
      2          6           0        4.860120    0.235849    0.001639
      3          6           0        4.045648   -0.877596   -0.003917
      4          6           0        2.632067   -0.767021   -0.003487
      5          6           0        2.037686    0.534758    0.002868
      6          6           0        2.891278    1.671114    0.008589
      7          6           0        4.256560    1.524844    0.007994
      8          6           0        0.629234    0.652541    0.003310
      9          6           0       -0.181558   -0.469675   -0.002281
     10          6           0        0.412376   -1.762237   -0.008824
     11          6           0        1.777885   -1.902231   -0.009437
     12          6           0       -1.652923   -0.325993   -0.001981
     13          7           0       -2.149498    0.923301   -0.003987
     14          6           0       -3.487847    1.017320   -0.004506
     15          6           0       -4.344664   -0.074325   -0.005031
     16          6           0       -3.717058   -1.338324   -0.000295
     17          7           0       -2.382661   -1.454090    0.004910
     18          7           0       -4.434338   -2.496898   -0.033731
     19          6           0       -4.042443    2.351862   -0.003339
     20          7           0       -4.517009    3.411833   -0.001273
     21          1           0        6.680954   -0.930829   -0.003824
     22          1           0        6.799083    0.605865   -0.878398
     23          1           0        6.799257    0.597827    0.884756
     24          1           0        4.488502   -1.871240   -0.008920
     25          1           0        2.442282    2.660964    0.013324
     26          1           0        4.895994    2.404260    0.012329
     27          1           0        0.170977    1.635681    0.007933
     28          1           0       -0.238093   -2.628577   -0.014161
     29          1           0        2.226112   -2.892645   -0.015027
     30          1           0       -5.421661    0.044218   -0.012819
     31          1           0       -5.412552   -2.486942    0.212178
     32          1           0       -3.920804   -3.347987    0.147359
 ---------------------------------------------------------------------

 SCF Done:  E(UB3LYP) =  -836.275181029     A.U. after   28 cycles

 The electronic state is 2-A.
 Alpha  occ. eigenvalues --  -14.22539 -14.18080 -14.17611 -14.15929 -10.13251
 Alpha  occ. eigenvalues --  -10.09957 -10.09472 -10.08098 -10.07893 -10.07285
 Alpha  occ. eigenvalues --  -10.06675 -10.06578 -10.06384 -10.06374 -10.06283
 Alpha  occ. eigenvalues --  -10.05724 -10.05259 -10.04875 -10.04113 -10.04001
 Alpha  occ. eigenvalues --   -0.86369  -0.81680  -0.77937  -0.76215  -0.73916
 Alpha  occ. eigenvalues --   -0.71692  -0.67072  -0.66618  -0.63971  -0.61268
 Alpha  occ. eigenvalues --   -0.58728  -0.55486  -0.53346  -0.50791  -0.48746
 Alpha  occ. eigenvalues --   -0.48081  -0.44251  -0.43731  -0.39513  -0.39266
 Alpha  occ. eigenvalues --   -0.37956  -0.36242  -0.34473  -0.33727  -0.33289
 Alpha  occ. eigenvalues --   -0.33142  -0.32540  -0.31599  -0.30938  -0.30068
 Alpha  occ. eigenvalues --   -0.29018  -0.28235  -0.27580  -0.25582  -0.25443
 Alpha  occ. eigenvalues --   -0.24338  -0.23385  -0.22818  -0.21715  -0.21111
 Alpha  occ. eigenvalues --   -0.20322  -0.17673  -0.17497  -0.16509  -0.13324
 Alpha  occ. eigenvalues --   -0.12497  -0.12211  -0.10104   0.02003
 Alpha virt. eigenvalues --    0.06088   0.06464   0.06838   0.08258   0.08323
 Alpha virt. eigenvalues --    0.08985   0.09696   0.09734   0.10776   0.11277
 Alpha virt. eigenvalues --    0.11831   0.12438   0.12618   0.12788   0.13849

  Beta  occ. eigenvalues --  -14.22550 -14.17900 -14.17743 -14.15511 -10.13330
  Beta  occ. eigenvalues --  -10.09732 -10.09222 -10.08110 -10.07906 -10.07131
  Beta  occ. eigenvalues --  -10.06728 -10.06497 -10.06404 -10.06326 -10.06266
  Beta  occ. eigenvalues --  -10.05747 -10.05235 -10.04843 -10.03813 -10.03785
  Beta  occ. eigenvalues --   -0.86055  -0.81609  -0.77650  -0.76081  -0.73474
  Beta  occ. eigenvalues --   -0.71509  -0.66713  -0.66437  -0.63689  -0.61136
  Beta  occ. eigenvalues --   -0.58575  -0.54989  -0.53013  -0.50735  -0.48593
  Beta  occ. eigenvalues --   -0.47938  -0.44099  -0.43619  -0.39418  -0.39188
  Beta  occ. eigenvalues --   -0.37831  -0.36114  -0.34209  -0.33608  -0.33127
  Beta  occ. eigenvalues --   -0.33027  -0.32373  -0.30896  -0.30634  -0.29998
  Beta  occ. eigenvalues --   -0.28988  -0.28089  -0.27227  -0.25380  -0.24998
  Beta  occ. eigenvalues --   -0.24057  -0.22707  -0.22597  -0.21670  -0.21005
  Beta  occ. eigenvalues --   -0.19986  -0.17256  -0.17109  -0.14995  -0.12527
  Beta  occ. eigenvalues --   -0.12256  -0.11635  -0.09185
  Beta virt. eigenvalues --    0.06449   0.06584   0.06837   0.07436   0.08304
  Beta virt. eigenvalues --    0.08680   0.08970   0.09681   0.09927   0.10763
  Beta virt. eigenvalues --    0.11262   0.12197   0.12474   0.12752   0.12966

 Mulliken charges and spin densities:
               1          2
     1  C   -0.291488  -0.010966
     2  C    0.767011   0.101017
     3  C   -0.524090  -0.032084
     4  C   -0.379761   0.053824
     5  C    0.023146  -0.034723
     6  C   -0.220914   0.086528
     7  C   -0.437122  -0.040219
     8  C   -0.308382   0.148401
     9  C    0.774216  -0.001740
    10  C   -0.579585   0.050419
    11  C   -0.549128  -0.005048
    12  C   -0.587295   0.111957
    13  N    0.110148  -0.077583
    14  C    1.198918   0.159103
    15  C   -0.288463   0.294668
    16  C    0.230426  -0.055741
    17  N   -0.124726   0.202037
    18  N   -0.310176  -0.003554
    19  C   -0.976636  -0.022827
    20  N   -0.315880   0.094452
    21  H    0.143749   0.000213
    22  H    0.135165   0.006471
    23  H    0.135089   0.006455
    24  H    0.033568   0.000819
    25  H    0.115171  -0.005283
    26  H    0.122460   0.002557
    27  H    0.174738  -0.008265
    28  H    0.170184  -0.002623
    29  H    0.120728   0.001655
    30  H    0.160779  -0.021717
    31  H    0.232262   0.003394
    32  H    0.245887  -0.001597
 Sum of Mulliken charges =  -1.00000   1.00000

 Dipole moment (field-independent basis, Debye):
    X=              5.1355    Y=             -5.9868    Z=              0.5743  Tot=              7.9085
 Quadrupole moment (field-independent basis, Debye-Ang):
   XX=           -170.3492   YY=           -141.5628   ZZ=           -127.2266
   XY=             30.8472   XZ=             -2.9887   YZ=             -1.9194

 Summary of Natural Population Analysis:

                                       Natural Population
                Natural  -----------------------------------------------
    Atom  No    Charge         Core      Valence    Rydberg      Total
 -----------------------------------------------------------------------
      C    1   -0.29120      0.99965     2.28705    0.00450     3.29120
      C    2   -0.00078      0.99953     1.99296    0.00829     3.00078
      C    3   -0.10586      0.99949     2.09848    0.00789     3.10586
      C    4   -0.01359      0.99950     2.00574    0.00835     3.01359
      C    5   -0.04124      0.99950     2.03397    0.00777     3.04124
      C    6   -0.06353      0.99956     2.05483    0.00914     3.06353
      C    7   -0.11850      0.99943     2.10981    0.00926     3.11850
      C    8   -0.02678      0.99943     2.01948    0.00787     3.02678
      C    9   -0.04441      0.99950     2.03437    0.01053     3.04441
      C   10   -0.08140      0.99956     2.07286    0.00898     3.08140
      C   11   -0.10500      0.99943     2.09582    0.00975     3.10500
      C   12    0.25608      0.99947     1.72706    0.01739     2.74392
      N   13   -0.27368      0.99966     2.76260    0.01141     3.77368
      C   14    0.08811      0.99932     1.89888    0.01369     2.91189
      C   15   -0.08956      0.99942     2.08060    0.00954     3.08956
      C   16    0.19479      0.99958     1.79118    0.01445     2.80521
      N   17   -0.22276      0.99963     2.71134    0.01179     3.72276
      N   18   -0.39863      0.99970     2.89008    0.00885     3.89863
      C   19    0.14323      0.99965     1.83644    0.02068     2.85677
      N   20   -0.16675      0.99978     2.65863    0.00834     3.66675
      H   21    0.09760      0.00000     0.40156    0.00084     0.40240
      H   22    0.09915      0.00000     0.39982    0.00103     0.40085
      H   23    0.09912      0.00000     0.39985    0.00103     0.40088
      H   24    0.09140      0.00000     0.40710    0.00150     0.40860
      H   25    0.09584      0.00000     0.40258    0.00158     0.40416
      H   26    0.09256      0.00000     0.40636    0.00108     0.40744
      H   27    0.10821      0.00000     0.39040    0.00139     0.39179
      H   28    0.10914      0.00000     0.38975    0.00110     0.39086
      H   29    0.09519      0.00000     0.40423    0.00058     0.40481
      H   30    0.09632      0.00000     0.40259    0.00110     0.40368
      H   31    0.18548      0.00000     0.31325    0.00128     0.31452
      H   32    0.19167      0.00000     0.30669    0.00163     0.30833
 =======================================================================
   * Total *    0.00024     19.99081    47.78636    0.22259    67.99976

 Normal termination of Gaussian 16 at Thu Dec 17 21:04:33 2020.
