 Gaussian 16, Revision A.03,

 -----------------------------------------------------------
 # opt freq B3LYP/6-31G(d) empiricaldispersion=gd3bj scf=xqc
 -----------------------------------------------------------

 -------------------------------
 CID_116220971_JID_8554_neutraal
 -------------------------------
 Symbolic Z-matrix:
 Charge =  0 Multiplicity = 1

 SCF Done:  E(RB3LYP) =  -1484.80306113     A.U. after   14 cycles
 SCF Done:  E(RB3LYP) =  -1484.81107085     A.U. after   12 cycles
 SCF Done:  E(RB3LYP) =  -1484.81455458     A.U. after   12 cycles
 SCF Done:  E(RB3LYP) =  -1484.81715437     A.U. after   13 cycles
 SCF Done:  E(RB3LYP) =  -1484.81755931     A.U. after   12 cycles
 SCF Done:  E(RB3LYP) =  -1484.81772478     A.U. after   11 cycles
 SCF Done:  E(RB3LYP) =  -1484.81776960     A.U. after   10 cycles
 SCF Done:  E(RB3LYP) =  -1484.81779343     A.U. after   10 cycles
 SCF Done:  E(RB3LYP) =  -1484.81780386     A.U. after   10 cycles
 SCF Done:  E(RB3LYP) =  -1484.81780818     A.U. after    9 cycles
 SCF Done:  E(RB3LYP) =  -1484.81780974     A.U. after    9 cycles
 SCF Done:  E(RB3LYP) =  -1484.81781056     A.U. after    8 cycles
 SCF Done:  E(RB3LYP) =  -1484.81781091     A.U. after    8 cycles
 SCF Done:  E(RB3LYP) =  -1484.81781095     A.U. after    6 cycles
 Optimization completed.
    -- Stationary point found.
 Normal termination of Gaussian 16 at Fri Dec 11 21:07:41 2020.

 --------------------------------------------------------------------
 #N Geom=AllCheck Guess=TCheck SCRF=Check GenChk RB3LYP/6-31G(d) Freq
 --------------------------------------------------------------------

 Structure from the checkpoint file:  "JID_8554.chk"
 -------------------------------
 CID_116220971_JID_8554_neutraal
 -------------------------------
 Charge =  0 Multiplicity = 1

 SCF Done:  E(RB3LYP) =  -1484.81781095     A.U. after    1 cycles

  Exact polarizability: 226.175  -4.822 201.714  23.278   7.502 126.910
 Approx polarizability: 311.538  -7.704 304.112  55.756  19.737 209.949

                      1                      2                      3
                      A                      A                      A
 Frequencies --     15.5546                24.1682                38.5580
 Red. masses --      5.2862                 5.8015                 3.3996
 Frc consts  --      0.0008                 0.0020                 0.0030
 IR Inten    --      0.0264                 0.1435                 0.0617

                      4                      5                      6
                      A                      A                      A
 Frequencies --     43.3533                51.7846                87.9417
 Red. masses --      5.4239                 4.4364                 3.7791
 Frc consts  --      0.0060                 0.0070                 0.0172
 IR Inten    --      0.2872                 3.2223                 1.9725

                      7                      8                      9
                      A                      A                      A
 Frequencies --    110.4033               130.2154               174.0666
 Red. masses --      2.4756                 4.2754                 4.4655
 Frc consts  --      0.0178                 0.0427                 0.0797
 IR Inten    --      0.9495                 2.0678                 2.2109

                     10                     11                     12
                      A                      A                      A
 Frequencies --    177.3586               204.9231               226.7425
 Red. masses --      3.5717                 2.5159                 3.4918
 Frc consts  --      0.0662                 0.0622                 0.1058
 IR Inten    --      1.5778                 7.4990                 7.0638

                     13                     14                     15
                      A                      A                      A
 Frequencies --    247.3621               265.8760               287.9629
 Red. masses --      1.6000                 3.4707                 2.6102
 Frc consts  --      0.0577                 0.1446                 0.1275
 IR Inten    --      1.7590                 0.5326                 2.9895

                     16                     17                     18
                      A                      A                      A
 Frequencies --    303.7244               324.5494               340.8573
 Red. masses --      8.9266                 2.2894                 2.6627
 Frc consts  --      0.4852                 0.1421                 0.1823
 IR Inten    --      3.8649                 2.8348                 5.5594

                     19                     20                     21
                      A                      A                      A
 Frequencies --    369.4113               419.3770               437.7775
 Red. masses --      3.6412                 1.4949                 2.4614
 Frc consts  --      0.2928                 0.1549                 0.2779
 IR Inten    --      0.8179                46.3456                 1.7774

                     22                     23                     24
                      A                      A                      A
 Frequencies --    441.3309               467.0552               483.2622
 Red. masses --      1.8914                 2.7258                 1.3118
 Frc consts  --      0.2171                 0.3503                 0.1805
 IR Inten    --     40.8596                19.1114                92.6090

                     25                     26                     27
                      A                      A                      A
 Frequencies --    518.2290               538.1251               551.9826
 Red. masses --      4.5564                 2.8198                 2.9390
 Frc consts  --      0.7210                 0.4811                 0.5276
 IR Inten    --      9.5897                 5.2412                 1.0804

                     28                     29                     30
                      A                      A                      A
 Frequencies --    618.1884               638.3510               653.7441
 Red. masses --      4.1856                 4.1683                 4.0299
 Frc consts  --      0.9424                 1.0008                 1.0148
 IR Inten    --      1.1312                 4.5949                 9.9619

                     31                     32                     33
                      A                      A                      A
 Frequencies --    668.1229               685.3608               717.6431
 Red. masses --      3.6052                 3.8589                 3.5425
 Frc consts  --      0.9482                 1.0680                 1.0749
 IR Inten    --      4.5148                 2.5575                 4.6213

                     34                     35                     36
                      A                      A                      A
 Frequencies --    731.5892               756.6405               775.5990
 Red. masses --      3.3018                 2.7898                 1.5104
 Frc consts  --      1.0412                 0.9410                 0.5353
 IR Inten    --      6.1991                10.1697                20.8543

                     37                     38                     39
                      A                      A                      A
 Frequencies --    798.4140               806.9558               854.3692
 Red. masses --      1.9545                 5.1611                 1.8528
 Frc consts  --      0.7341                 1.9801                 0.7968
 IR Inten    --     16.9831                25.4710                 1.2543

                     40                     41                     42
                      A                      A                      A
 Frequencies --    872.0781               887.9978               905.2326
 Red. masses --      2.8433                 2.2598                 1.4708
 Frc consts  --      1.2740                 1.0499                 0.7101
 IR Inten    --      4.3137                10.2473                 5.7984

                     43                     44                     45
                      A                      A                      A
 Frequencies --    941.1533               958.2372               988.1658
 Red. masses --      1.6873                 1.8712                 1.3969
 Frc consts  --      0.8806                 1.0123                 0.8037
 IR Inten    --     17.1734                12.6975                 0.6782

                     46                     47                     48
                      A                      A                      A
 Frequencies --    991.0449              1000.3921              1019.5017
 Red. masses --      3.5119                 2.8760                 2.1590
 Frc consts  --      2.0322                 1.6958                 1.3222
 IR Inten    --      4.2295                 3.9411                 2.0813

                     49                     50                     51
                      A                      A                      A
 Frequencies --   1024.8606              1069.9355              1092.6968
 Red. masses --      2.1051                 2.1908                 2.7162
 Frc consts  --      1.3027                 1.4776                 1.9108
 IR Inten    --      8.2106                 2.7288                 5.4299

                     52                     53                     54
                      A                      A                      A
 Frequencies --   1110.5349              1121.5252              1128.6645
 Red. masses --      2.3754                 1.7984                 2.4580
 Frc consts  --      1.7260                 1.3327                 1.8448
 IR Inten    --      7.3038                13.5054                22.1012

                     55                     56                     57
                      A                      A                      A
 Frequencies --   1163.1492              1168.2683              1183.0862
 Red. masses --      2.1602                 1.0724                 1.9637
 Frc consts  --      1.7220                 0.8623                 1.6194
 IR Inten    --     15.8138                 4.0248                 2.0177

                     58                     59                     60
                      A                      A                      A
 Frequencies --   1200.0210              1234.9618              1265.7689
 Red. masses --      1.2926                 1.2329                 1.3630
 Frc consts  --      1.0967                 1.1078                 1.2867
 IR Inten    --      7.5400                19.7623                 9.3710

                     61                     62                     63
                      A                      A                      A
 Frequencies --   1273.6963              1282.8823              1299.7215
 Red. masses --      1.2674                 2.0243                 1.5414
 Frc consts  --      1.2114                 1.9629                 1.5341
 IR Inten    --      8.6818                11.7375                23.6025

                     64                     65                     66
                      A                      A                      A
 Frequencies --   1313.4779              1321.3001              1336.9536
 Red. masses --      1.2926                 1.3416                 1.6053
 Frc consts  --      1.3139                 1.3799                 1.6906
 IR Inten    --      1.0528                32.4232                 6.9248

                     67                     68                     69
                      A                      A                      A
 Frequencies --   1342.4033              1351.0586              1356.9862
 Red. masses --      1.3638                 1.5357                 1.3739
 Frc consts  --      1.4479                 1.6516                 1.4906
 IR Inten    --     24.3776                29.9500                13.2536

                     70                     71                     72
                      A                      A                      A
 Frequencies --   1376.2796              1395.3408              1408.8302
 Red. masses --      1.2988                 1.3741                 1.3620
 Frc consts  --      1.4495                 1.5763                 1.5927
 IR Inten    --      6.8972                20.9111                74.3968

                     73                     74                     75
                      A                      A                      A
 Frequencies --   1414.4428              1440.6557              1461.4899
 Red. masses --      1.2898                 1.3140                 1.6665
 Frc consts  --      1.5203                 1.6068                 2.0973
 IR Inten    --     28.3499                49.3490                46.8669

                     76                     77                     78
                      A                      A                      A
 Frequencies --   1482.3441              1487.6390              1489.8036
 Red. masses --      1.0957                 1.1441                 1.1111
 Frc consts  --      1.4185                 1.4917                 1.4530
 IR Inten    --      4.6707                12.5001                25.8962

                     79                     80                     81
                      A                      A                      A
 Frequencies --   1494.8777              1498.6752              1514.1687
 Red. masses --      1.1007                 1.1520                 1.6806
 Frc consts  --      1.4493                 1.5244                 2.2701
 IR Inten    --      8.2987                28.0819                25.5505

                     82                     83                     84
                      A                      A                      A
 Frequencies --   1518.1579              1531.5350              1539.4398
 Red. masses --      1.0992                 1.0624                 1.0649
 Frc consts  --      1.4927                 1.4682                 1.4869
 IR Inten    --      0.8960                 3.7811                 9.0414

                     85                     86                     87
                      A                      A                      A
 Frequencies --   1555.5282              1578.6041              1646.3057
 Red. masses --      3.1473                 3.2351                 5.0106
 Frc consts  --      4.4869                 4.7499                 8.0013
 IR Inten    --    112.6629               519.2951               518.9120

                     88                     89                     90
                      A                      A                      A
 Frequencies --   1650.2252              3041.8571              3044.8704
 Red. masses --      4.5506                 1.0383                 1.0660
 Frc consts  --      7.3014                 5.6603                 5.8229
 IR Inten    --    429.5424                31.0259                22.8241

                     91                     92                     93
                      A                      A                      A
 Frequencies --   3061.9086              3064.9340              3070.6361
 Red. masses --      1.0639                 1.0582                 1.0593
 Frc consts  --      5.8766                 5.8569                 5.8848
 IR Inten    --     42.0678                15.5121                26.4288

                     94                     95                     96
                      A                      A                      A
 Frequencies --   3080.1042              3090.8698              3098.5004
 Red. masses --      1.0595                 1.0951                 1.0819
 Frc consts  --      5.9220                 6.1638                 6.1200
 IR Inten    --     15.3939                 2.8286                 0.7531

                     97                     98                     99
                      A                      A                      A
 Frequencies --   3106.4600              3110.1315              3113.1927
 Red. masses --      1.0617                 1.0998                 1.1052
 Frc consts  --      6.0364                 6.2678                 6.3113
 IR Inten    --     19.5981                37.5007                 2.9090

                    100                    101                    102
                      A                      A                      A
 Frequencies --   3117.7775              3119.6291              3124.9174
 Red. masses --      1.1025                 1.1027                 1.1068
 Frc consts  --      6.3142                 6.3227                 6.3679
 IR Inten    --     46.5116                44.3060                18.5246

                    103                    104                    105
                      A                      A                      A
 Frequencies --   3131.2122              3157.5643              3165.5811
 Red. masses --      1.1070                 1.1066                 1.0898
 Frc consts  --      6.3947                 6.5005                 6.4346
 IR Inten    --      5.8566                11.3859                40.4525

                    106                    107                    108
                      A                      A                      A
 Frequencies --   3215.5787              3634.7736              3642.0407
 Red. masses --      1.0939                 1.0772                 1.0766
 Frc consts  --      6.6639                 8.3847                 8.4142
 IR Inten    --     10.6729                37.3459                44.5519

 - Thermochemistry -
 -------------------
 Temperature   298.150 Kelvin.  Pressure   1.00000 Atm.
 Atom     1 has atomic number  6 and mass  12.00000

 Molecular mass:   284.11294 amu.
 Principal axes and moments of inertia in atomic units:
                           1         2         3
     Eigenvalues --  3230.793449419.64505**********
           X            0.99983   0.01811  -0.00175
           Y           -0.01812   0.99981  -0.00669
           Z            0.00163   0.00672   0.99998
 This molecule is an asymmetric top.
 Rotational symmetry number  1.
 Warning -- assumption of classical behavior for rotation
           may cause significant error
 Rotational temperatures (Kelvin)      0.02681     0.00920     0.00743
 Rotational constants (GHZ):           0.55861     0.19159     0.15484
 Zero-point vibrational energy     848568.5 (Joules/Mol)
                                  202.81273 (Kcal/Mol)
 Warning -- explicit consideration of  28 degrees of freedom as
           vibrations may cause significant error
 Vibrational temperatures:     22.38    34.77    55.48    62.38    74.51
          (Kelvin)            126.53   158.85   187.35   250.44   255.18
                              294.84   326.23   355.90   382.54   414.31
                              436.99   466.95   490.42   531.50   603.39
                              629.86   634.98   671.99   695.31   745.62
                              774.24   794.18   889.44   918.44   940.59
                              961.28   986.08  1032.53  1052.59  1088.64
                             1115.91  1148.74  1161.03  1229.25  1254.73
                             1277.63  1302.43  1354.11  1378.69  1421.75
                             1425.89  1439.34  1466.84  1474.55  1539.40
                             1572.15  1597.81  1613.62  1623.90  1673.51
                             1680.88  1702.20  1726.56  1776.83  1821.16
                             1832.56  1845.78  1870.01  1889.80  1901.06
                             1923.58  1931.42  1943.87  1952.40  1980.16
                             2007.58  2026.99  2035.07  2072.78  2102.76
                             2132.76  2140.38  2143.50  2150.80  2156.26
                             2178.55  2184.29  2203.54  2214.91  2238.06
                             2271.26  2368.67  2374.31  4376.55  4380.89
                             4405.40  4409.76  4417.96  4431.58  4447.07
                             4458.05  4469.50  4474.79  4479.19  4485.79
                             4488.45  4496.06  4505.12  4543.03  4554.57
                             4626.50  5229.63  5240.08

 Zero-point correction=                           0.323203 (Hartree/Particle)
 Thermal correction to Energy=                    0.341751
 Thermal correction to Enthalpy=                  0.342695
 Thermal correction to Gibbs Free Energy=         0.273597
 Sum of electronic and zero-point Energies=          -1484.494608
 Sum of electronic and thermal Energies=             -1484.476060
 Sum of electronic and thermal Enthalpies=           -1484.475116
 Sum of electronic and thermal Free Energies=        -1484.544214

                     E (Thermal)             CV                S
                      KCal/Mol        Cal/Mol-Kelvin    Cal/Mol-Kelvin
 Total                  214.452             70.080            145.430
 Electronic               0.000              0.000              0.000
 Translational            0.889              2.981             42.831
 Rotational               0.889              2.981             34.227
 Vibrational            212.675             64.118             68.372
 Vibration     1          0.593              1.986              7.133
 Vibration     2          0.593              1.985              6.258
 Vibration     3          0.594              1.981              5.332
 Vibration     4          0.595              1.980              5.100
 Vibration     5          0.596              1.977              4.748
 Vibration     6          0.601              1.958              3.705
 Vibration     7          0.606              1.941              3.262
 Vibration     8          0.612              1.923              2.943
 Vibration     9          0.627              1.874              2.391
 Vibration    10          0.628              1.870              2.356
 Vibration    11          0.640              1.833              2.088
 Vibration    12          0.650              1.800              1.905
 Vibration    13          0.661              1.767              1.749
 Vibration    14          0.672              1.736              1.623
 Vibration    15          0.685              1.696              1.486
 Vibration    16          0.695              1.667              1.396
 Vibration    17          0.709              1.626              1.287
 Vibration    18          0.720              1.594              1.208
 Vibration    19          0.742              1.535              1.082
 Vibration    20          0.782              1.428              0.894
 Vibration    21          0.798              1.388              0.834
 Vibration    22          0.801              1.380              0.822
 Vibration    23          0.824              1.323              0.746
 Vibration    24          0.839              1.287              0.701
 Vibration    25          0.873              1.210              0.614
 Vibration    26          0.893              1.166              0.569
 Vibration    27          0.907              1.135              0.540
 Vibration    28          0.978              0.993              0.419

                           ! Non-Optimized Parameters !
 Normal termination of Gaussian 16 at Fri Dec 11 21:25:08 2020.

 ----------------------------------------------------------------------
 # B3LYP/6-311++G(d,p) empiricaldispersion=gd3bj scf=xqc pop=npa geom=c
 heck
 ----------------------------------------------------------------------

 ---------------------------------------
 CID_116220971_JID_8554_Energie_neutraal
 ---------------------------------------
 Structure from the checkpoint file:  "JID_8554.chk"
 Charge =  0 Multiplicity = 1

 SCF Done:  E(RB3LYP) =  -1485.06149839     A.U. after   14 cycles
 Normal termination of Gaussian 16 at Fri Dec 11 21:33:17 2020.

 ----------------------------------------------------------------------
 # B3LYP/6-311++G(d,p) empiricaldispersion=gd3bj scf=xqc pop=npa geom=c
 heck
 ----------------------------------------------------------------------

 -------------------------------------
 CID_116220971_JID_8554_Energie_kation
 -------------------------------------
 Structure from the checkpoint file:  "JID_8554.chk"
 Charge =  1 Multiplicity = 2

 SCF Done:  E(UB3LYP) =  -1484.79256617     A.U. after   22 cycles
 Normal termination of Gaussian 16 at Fri Dec 11 21:50:48 2020.
 Gaussian 16:  ES64L-G16RevA.03 25-Dec-2016

 ----------------------------------------------------------------------
 # B3LYP/6-311++G(d,p) empiricaldispersion=gd3bj scf=xqc pop=npa geom=c
 heck
 ----------------------------------------------------------------------

 ------------------------------------
 CID_116220971_JID_8554_Energie_anion
 ------------------------------------
 Structure from the checkpoint file:  "JID_8554.chk"
 Charge = -1 Multiplicity = 2

                         Standard orientation:
 ---------------------------------------------------------------------
 Center     Atomic      Atomic             Coordinates (Angstroms)
 Number     Number       Type             X           Y           Z
 ---------------------------------------------------------------------
      1          6           0       -4.770089   -2.256572    0.881977
      2          6           0       -3.293782   -2.301552    0.484680
      3          6           0       -3.025925   -1.726655   -0.913689
      4          7           0       -3.415571   -0.334984   -1.070796
      5          6           0       -2.746150    0.711042   -0.509112
      6          7           0       -3.354902    1.912495   -0.594032
      7          6           0       -2.665313    2.929403   -0.063534
      8          6           0       -1.424235    2.799134    0.537748
      9          6           0       -0.891503    1.492146    0.574146
     10          7           0       -1.548854    0.449008    0.046934
     11          7           0        0.312741    1.231834    1.165241
     12          6           0        0.963678   -0.064385    1.100346
     13          6           0        1.454331   -0.440702   -0.311450
     14          6           0        2.216041    0.675890   -1.026671
     15         16           0        3.725882    1.242074   -0.152150
     16          6           0        4.665160   -0.334528   -0.164215
     17          6           0        3.951206   -1.479705    0.547877
     18         16           0        2.400560   -2.019899   -0.276008
     19          1           0       -5.141372   -1.225666    0.897465
     20          1           0       -4.926076   -2.679444    1.880168
     21          1           0       -5.389948   -2.826774    0.177917
     22          1           0       -2.690488   -1.740396    1.206852
     23          1           0       -2.929792   -3.337689    0.502213
     24          1           0       -1.960673   -1.810430   -1.147661
     25          1           0       -3.576371   -2.299788   -1.668858
     26          1           0       -4.353916   -0.110875   -1.367432
     27          1           0       -3.141906    3.907000   -0.124807
     28          1           0       -0.900912    3.645378    0.968912
     29          1           0        0.883490    2.025097    1.417714
     30          1           0        1.803063   -0.029235    1.796516
     31          1           0        0.267717   -0.834636    1.439043
     32          1           0        0.573685   -0.678585   -0.916006
     33          1           0        2.485205    0.358215   -2.037943
     34          1           0        1.580479    1.562586   -1.109413
     35          1           0        5.610427   -0.110024    0.341641
     36          1           0        4.889092   -0.608089   -1.200389
     37          1           0        3.755317   -1.217981    1.591847
     38          1           0        4.585509   -2.373032    0.542715
 ---------------------------------------------------------------------

 SCF Done:  E(UB3LYP) =  -1485.04961604     A.U. after   33 cycles
 SCF Done:  E(UB3LYP) =  -1485.04961604     a.u. after    1 cycles

 The electronic state is 2-A.
 Alpha  occ. eigenvalues --  -88.75521 -88.75393 -14.25119 -14.24146 -14.21097
 Alpha  occ. eigenvalues --  -14.20790 -10.18160 -10.16974 -10.12652 -10.12287
 Alpha  occ. eigenvalues --  -10.12158 -10.11868 -10.11803 -10.11733 -10.11699
 Alpha  occ. eigenvalues --  -10.08059 -10.08021 -10.07494  -7.84149  -7.84013
 Alpha  occ. eigenvalues --   -5.80533  -5.80402  -5.80188  -5.80047  -5.79512
 Alpha  occ. eigenvalues --   -5.79379  -0.91760  -0.87111  -0.82349  -0.78519
 Alpha  occ. eigenvalues --   -0.76035  -0.70623  -0.69523  -0.67795  -0.67200
 Alpha  occ. eigenvalues --   -0.61836  -0.60267  -0.56551  -0.55114  -0.54729
 Alpha  occ. eigenvalues --   -0.52959  -0.50761  -0.47540  -0.46049  -0.43933
 Alpha  occ. eigenvalues --   -0.40464  -0.40247  -0.38998  -0.38670  -0.38141
 Alpha  occ. eigenvalues --   -0.37246  -0.36987  -0.36202  -0.34773  -0.34351
 Alpha  occ. eigenvalues --   -0.33866  -0.32491  -0.32233  -0.30873  -0.30782
 Alpha  occ. eigenvalues --   -0.29776  -0.29161  -0.27810  -0.26480  -0.25571
 Alpha  occ. eigenvalues --   -0.25448  -0.24167  -0.23934  -0.22400  -0.22005
 Alpha  occ. eigenvalues --   -0.21691  -0.16683  -0.16232  -0.15127  -0.13948
 Alpha  occ. eigenvalues --   -0.12639   0.03831
 Alpha virt. eigenvalues --    0.05057   0.05582   0.06422   0.07041   0.07327
 Alpha virt. eigenvalues --    0.07499   0.07959   0.08086   0.08369   0.08585
 Alpha virt. eigenvalues --    0.09567   0.09697   0.10283   0.10482   0.10973

  Beta  occ. eigenvalues --  -88.75516 -88.75391 -14.25107 -14.24140 -14.21083
  Beta  occ. eigenvalues --  -14.20790 -10.18157 -10.16975 -10.12641 -10.12287
  Beta  occ. eigenvalues --  -10.12147 -10.11860 -10.11775 -10.11721 -10.11665
  Beta  occ. eigenvalues --  -10.08043 -10.08012 -10.07468  -7.84143  -7.84011
  Beta  occ. eigenvalues --   -5.80529  -5.80399  -5.80182  -5.80044  -5.79506
  Beta  occ. eigenvalues --   -5.79376  -0.91745  -0.87091  -0.82334  -0.78500
  Beta  occ. eigenvalues --   -0.76010  -0.70596  -0.69494  -0.67766  -0.67174
  Beta  occ. eigenvalues --   -0.61805  -0.60233  -0.56523  -0.55073  -0.54697
  Beta  occ. eigenvalues --   -0.52909  -0.50718  -0.47504  -0.46010  -0.43906
  Beta  occ. eigenvalues --   -0.40429  -0.40225  -0.38967  -0.38643  -0.38104
  Beta  occ. eigenvalues --   -0.37213  -0.36955  -0.36179  -0.34747  -0.34322
  Beta  occ. eigenvalues --   -0.33825  -0.32461  -0.32200  -0.30846  -0.30757
  Beta  occ. eigenvalues --   -0.29746  -0.29135  -0.27788  -0.26451  -0.25551
  Beta  occ. eigenvalues --   -0.25421  -0.24126  -0.23918  -0.22382  -0.21978
  Beta  occ. eigenvalues --   -0.21664  -0.16673  -0.16208  -0.15104  -0.13930
  Beta  occ. eigenvalues --   -0.12625
  Beta virt. eigenvalues --    0.05628   0.06196   0.06416   0.06515   0.07211
  Beta virt. eigenvalues --    0.07514   0.07858   0.08216   0.08397   0.08464
  Beta virt. eigenvalues --    0.08950   0.09840   0.09989   0.10370   0.10526

 Mulliken charges and spin densities:
               1          2
     1  C    0.438726  -1.109757
     2  C   -0.403234   0.420854
     3  C    0.166854  -0.386893
     4  N   -0.146439  -0.001013
     5  C   -0.400397  -0.054251
     6  N   -0.170564   0.042641
     7  C    0.588408  -0.812653
     8  C   -0.535259   0.594559
     9  C    0.742349  -0.893313
    10  N   -0.218595   0.081602
    11  N   -0.083770   0.088196
    12  C   -0.412212  -0.570400
    13  C    0.579762   0.517889
    14  C   -0.546534  -0.519115
    15  S   -0.022242   0.205906
    16  C   -0.007852  -0.610488
    17  C    0.234350  -0.606875
    18  S   -0.036105  -0.079986
    19  H    0.002987   0.164919
    20  H   -0.134727   0.268306
    21  H   -0.144043   0.278818
    22  H    0.208425  -0.041104
    23  H   -0.113510   0.251261
    24  H    0.169695  -0.016013
    25  H   -0.263235   0.438550
    26  H    0.182603   0.132788
    27  H   -0.035495   0.213040
    28  H   -0.617783   0.780221
    29  H    0.162400   0.131728
    30  H   -0.226165   0.411066
    31  H    0.127032   0.029773
    32  H    0.394132  -0.054616
    33  H    0.061903   0.166454
    34  H    0.299343  -0.087554
    35  H   -0.655088   0.881790
    36  H    0.225679  -0.060211
    37  H    0.161334   0.002678
    38  H   -0.572733   0.801201
 Sum of Mulliken charges =  -1.00000   1.00000

 Dipole moment (field-independent basis, Debye):
    X=             -1.7595    Y=              1.1713    Z=             -1.9298  Tot=              2.8622
 Quadrupole moment (field-independent basis, Debye-Ang):
   XX=           -243.5906   YY=           -183.3678   ZZ=           -155.6488
   XY=              0.8794   XZ=             -8.3574   YZ=             -0.2813

 Summary of Natural Population Analysis:

                                       Natural Population
                Natural  -----------------------------------------------
    Atom  No    Charge         Core      Valence    Rydberg      Total
 -----------------------------------------------------------------------
      C    1   -0.28792      0.99967     2.28393    0.00432     3.28792
      C    2   -0.19884      0.99964     2.19163    0.00757     3.19884
      C    3   -0.08763      0.99962     2.07643    0.01158     3.08763
      N    4   -0.30688      0.99966     2.79680    0.01042     3.80688
      C    5    0.30921      0.99960     1.67344    0.01775     2.69079
      N    6   -0.29096      0.99968     2.78055    0.01072     3.79096
      C    7    0.05277      0.99959     1.93364    0.01399     2.94723
      C    8   -0.18808      0.99952     2.17950    0.00907     3.18808
      C    9    0.22181      0.99954     1.76329    0.01535     2.77819
      N   10   -0.30695      0.99964     2.79900    0.00831     3.80695
      N   11   -0.30365      0.99967     2.79307    0.01091     3.80365
      C   12   -0.09810      0.99957     2.08361    0.01491     3.09810
      C   13   -0.18065      0.99953     2.16879    0.01233     3.18065
      C   14   -0.25649      0.99954     2.24660    0.01035     3.25649
      S   15    0.08476      4.99964     2.89771    0.01789     7.91524
      C   16   -0.25621      0.99958     2.24370    0.01293     3.25621
      C   17   -0.25927      0.99957     2.24650    0.01320     3.25927
      S   18    0.09432      4.99961     2.88840    0.01766     7.90568
      H   19    0.09800      0.00000     0.40075    0.00125     0.40200
      H   20    0.09950      0.00000     0.39958    0.00092     0.40050
      H   21    0.09474      0.00000     0.40380    0.00146     0.40526
      H   22    0.10252      0.00000     0.39596    0.00152     0.39748
      H   23    0.09581      0.00000     0.40304    0.00115     0.40419
      H   24    0.10247      0.00000     0.39602    0.00151     0.39753
      H   25    0.09444      0.00000     0.40456    0.00100     0.40556
      H   26    0.19594      0.00000     0.30132    0.00274     0.30406
      H   27    0.08987      0.00000     0.40903    0.00110     0.41013
      H   28    0.10779      0.00000     0.39071    0.00150     0.39221
      H   29    0.19543      0.00000     0.30165    0.00291     0.30457
      H   30    0.10466      0.00000     0.39380    0.00154     0.39534
      H   31    0.10846      0.00000     0.38997    0.00157     0.39154
      H   32    0.11896      0.00000     0.37942    0.00162     0.38104
      H   33    0.10660      0.00000     0.39210    0.00130     0.39340
      H   34    0.11256      0.00000     0.38624    0.00121     0.38744
      H   35    0.11295      0.00000     0.38448    0.00257     0.38705
      H   36    0.10164      0.00000     0.39682    0.00154     0.39836
      H   37    0.10338      0.00000     0.39465    0.00197     0.39662
      H   38    0.11301      0.00000     0.38487    0.00212     0.38699
 =======================================================================
   * Total *    0.00000     25.99286    49.75537    0.25177    76.00000

 Normal termination of Gaussian 16 at Fri Dec 11 22:17:53 2020.
