 Gaussian 16, Revision A.03,

 -----------------------------------------------------------
 # opt freq B3LYP/6-31G(d) empiricaldispersion=gd3bj scf=xqc
 -----------------------------------------------------------

 ------------------------------
 CID_59332020_JID_5416_neutraal
 ------------------------------
 Symbolic Z-matrix:
 Charge =  0 Multiplicity = 1

 SCF Done:  E(RB3LYP) =  -994.563056940     A.U. after   15 cycles
 SCF Done:  E(RB3LYP) =  -994.566565469     A.U. after   12 cycles
 SCF Done:  E(RB3LYP) =  -994.566975557     A.U. after   12 cycles
 SCF Done:  E(RB3LYP) =  -994.567158836     A.U. after   14 cycles
 SCF Done:  E(RB3LYP) =  -994.567884455     A.U. after   11 cycles
 SCF Done:  E(RB3LYP) =  -994.568120715     A.U. after   11 cycles
 SCF Done:  E(RB3LYP) =  -994.568168426     A.U. after   12 cycles
 SCF Done:  E(RB3LYP) =  -994.568213228     A.U. after   10 cycles
 SCF Done:  E(RB3LYP) =  -994.568221992     A.U. after   10 cycles
 SCF Done:  E(RB3LYP) =  -994.568230470     A.U. after   10 cycles
 SCF Done:  E(RB3LYP) =  -994.568267585     A.U. after   10 cycles
 SCF Done:  E(RB3LYP) =  -994.568271060     A.U. after   10 cycles
 SCF Done:  E(RB3LYP) =  -994.568272117     A.U. after    9 cycles
 SCF Done:  E(RB3LYP) =  -994.568272283     A.U. after    9 cycles
 SCF Done:  E(RB3LYP) =  -994.568272336     A.U. after    9 cycles
 Optimization completed.
    -- Stationary point found.
 Normal termination of Gaussian 16 at Thu Dec 10 15:58:25 2020.

 --------------------------------------------------------------------
 #N Geom=AllCheck Guess=TCheck SCRF=Check GenChk RB3LYP/6-31G(d) Freq
 --------------------------------------------------------------------

 Structure from the checkpoint file:  "JID_5416.chk"
 ------------------------------
 CID_59332020_JID_5416_neutraal
 ------------------------------
 Charge =  0 Multiplicity = 1

 SCF Done:  E(RB3LYP) =  -994.568272336     A.U. after    1 cycles

  Exact polarizability: 222.583   8.755 153.084  -0.000   0.000  84.887
 Approx polarizability: 292.663  14.708 272.984  -0.001   0.000 125.510

                      1                      2                      3
                      A                      A                      A
 Frequencies --     10.8911                37.5282                55.4155
 Red. masses --      2.9766                 3.5141                 3.9771
 Frc consts  --      0.0002                 0.0029                 0.0072
 IR Inten    --      0.0040                 5.5254                 0.9827

                      4                      5                      6
                      A                      A                      A
 Frequencies --    106.2407               117.7334               162.3032
 Red. masses --      5.0323                 4.2040                 4.2464
 Frc consts  --      0.0335                 0.0343                 0.0659
 IR Inten    --      0.0003                 0.6785                 1.7053

                      7                      8                      9
                      A                      A                      A
 Frequencies --    184.4378               185.2264               234.2729
 Red. masses --      3.4339                 2.5690                 1.0966
 Frc consts  --      0.0688                 0.0519                 0.0355
 IR Inten    --      3.7185                 0.4458                 0.0338

                     10                     11                     12
                      A                      A                      A
 Frequencies --    237.8495               256.7006               269.1731
 Red. masses --      1.1586                 1.0812                 4.5706
 Frc consts  --      0.0386                 0.0420                 0.1951
 IR Inten    --      0.1399                 0.3372                 7.6621

                     13                     14                     15
                      A                      A                      A
 Frequencies --    278.2406               303.4690               346.0764
 Red. masses --      3.4221                 3.0995                 5.8139
 Frc consts  --      0.1561                 0.1682                 0.4103
 IR Inten    --      0.1220                 1.5859                 0.3212

                     16                     17                     18
                      A                      A                      A
 Frequencies --    395.1395               417.1337               440.1668
 Red. masses --      4.3256                 3.2692                 3.2947
 Frc consts  --      0.3979                 0.3352                 0.3761
 IR Inten    --      5.3368                 1.7614                 1.0607

                     19                     20                     21
                      A                      A                      A
 Frequencies --    449.2017               519.5208               531.6630
 Red. masses --      2.8838                 4.6495                 4.5693
 Frc consts  --      0.3428                 0.7394                 0.7610
 IR Inten    --      2.5431                 0.6017                11.7347

                     22                     23                     24
                      A                      A                      A
 Frequencies --    595.5508               676.1848               677.5731
 Red. masses --      3.4339                 5.5169                 6.5832
 Frc consts  --      0.7176                 1.4862                 1.7807
 IR Inten    --      0.6659                25.0973                 0.2034

                     25                     26                     27
                      A                      A                      A
 Frequencies --    690.4047               728.6176               760.5273
 Red. masses --      4.6327                 6.2781                 4.9098
 Frc consts  --      1.3010                 1.9637                 1.6732
 IR Inten    --      0.9460                 2.3715                13.9720

                     28                     29                     30
                      A                      A                      A
 Frequencies --    798.4087               827.3632               839.5623
 Red. masses --      5.2552                 1.4069                 4.3999
 Frc consts  --      1.9737                 0.5674                 1.8273
 IR Inten    --     19.0610                19.6419                 0.8489

                     31                     32                     33
                      A                      A                      A
 Frequencies --    885.5332               903.5940               943.8080
 Red. masses --      3.3359                 1.3923                 1.2884
 Frc consts  --      1.5413                 0.6698                 0.6762
 IR Inten    --      1.5484                 4.6979                 0.5243

                     34                     35                     36
                      A                      A                      A
 Frequencies --    955.8547               959.2123               981.7950
 Red. masses --      1.3021                 1.3445                 2.9904
 Frc consts  --      0.7009                 0.7289                 1.6983
 IR Inten    --      0.0160                 0.0705                 0.0956

                     37                     38                     39
                      A                      A                      A
 Frequencies --    992.6437              1009.1505              1030.8306
 Red. masses --      1.1839                 1.4045                 1.7533
 Frc consts  --      0.6873                 0.8427                 1.0977
 IR Inten    --      5.3493                 4.5896                 0.0624

                     40                     41                     42
                      A                      A                      A
 Frequencies --   1087.9143              1091.4736              1151.7330
 Red. masses --      2.0554                 1.9707                 2.2649
 Frc consts  --      1.4333                 1.3832                 1.7701
 IR Inten    --      0.0395                27.6146                15.5551

                     43                     44                     45
                      A                      A                      A
 Frequencies --   1155.5737              1184.2127              1207.4763
 Red. masses --      2.2081                 1.9042                 1.0865
 Frc consts  --      1.7372                 1.5733                 0.9333
 IR Inten    --     10.7416                 6.2261                 1.6703

                     46                     47                     48
                      A                      A                      A
 Frequencies --   1223.0703              1236.9926              1247.0396
 Red. masses --      1.9958                 1.9506                 3.0047
 Frc consts  --      1.7590                 1.7585                 2.7530
 IR Inten    --      1.5867                85.9349                 6.6974

                     49                     50                     51
                      A                      A                      A
 Frequencies --   1281.2327              1309.6341              1368.5033
 Red. masses --      4.7032                 1.5845                 5.5900
 Frc consts  --      4.5489                 1.6012                 6.1681
 IR Inten    --     97.4653                33.8985                38.3193

                     52                     53                     54
                      A                      A                      A
 Frequencies --   1383.0430              1389.5639              1401.6533
 Red. masses --      1.3156                 1.1742                 1.6931
 Frc consts  --      1.4826                 1.3359                 1.9599
 IR Inten    --      3.0021                 7.5473                56.3868

                     55                     56                     57
                      A                      A                      A
 Frequencies --   1426.9865              1443.2261              1455.1155
 Red. masses --      1.2711                 1.3330                 1.7976
 Frc consts  --      1.5250                 1.6359                 2.2426
 IR Inten    --      8.6295                14.9787               120.5528

                     58                     59                     60
                      A                      A                      A
 Frequencies --   1473.5140              1499.2707              1515.4415
 Red. masses --      3.6900                 1.0510                 1.0437
 Frc consts  --      4.7205                 1.3919                 1.4123
 IR Inten    --     30.3893                 9.3593                 1.0468

                     61                     62                     63
                      A                      A                      A
 Frequencies --   1516.2240              1521.9235              1523.5520
 Red. masses --      1.1609                 1.0516                 1.8779
 Frc consts  --      1.5724                 1.4351                 2.5683
 IR Inten    --     58.7049                 0.4449                36.5336

                     64                     65                     66
                      A                      A                      A
 Frequencies --   1530.7735              1533.1506              1541.3015
 Red. masses --      1.0520                 1.1508                 1.0754
 Frc consts  --      1.4525                 1.5937                 1.5052
 IR Inten    --      9.6326                 0.6748                 7.0329

                     67                     68                     69
                      A                      A                      A
 Frequencies --   1638.1127              1671.1306              1796.9621
 Red. masses --      7.3771                 7.0197                12.5187
 Frc consts  --     11.6634                11.5502                23.8171
 IR Inten    --      0.6630                21.8504               309.9708

                     70                     71                     72
                      A                      A                      A
 Frequencies --   3024.4932              3044.9480              3051.5498
 Red. masses --      1.0563                 1.0613                 1.0786
 Frc consts  --      5.6929                 5.7978                 5.9178
 IR Inten    --     29.0448                 0.0386                41.9681

                     73                     74                     75
                      A                      A                      A
 Frequencies --   3051.9396              3067.4411              3092.7054
 Red. masses --      1.0381                 1.0300                 1.0862
 Frc consts  --      5.6971                 5.7100                 6.1215
 IR Inten    --     32.3340                17.0525                 3.5874

                     76                     77                     78
                      A                      A                      A
 Frequencies --   3111.3498              3123.5935              3131.4734
 Red. masses --      1.1010                 1.0974                 1.1033
 Frc consts  --      6.2796                 6.3084                 6.3745
 IR Inten    --      1.9096                62.9336                15.4832

                     79                     80                     81
                      A                      A                      A
 Frequencies --   3133.6829              3152.1833              3162.9725
 Red. masses --      1.1031                 1.1083                 1.1042
 Frc consts  --      6.3823                 6.4883                 6.5084
 IR Inten    --     36.0183                 7.5585                 5.1002

                     82                     83                     84
                      A                      A                      A
 Frequencies --   3184.8282              3200.6788              3237.1161
 Red. masses --      1.0873                 1.0947                 1.0897
 Frc consts  --      6.4976                 6.6072                 6.7278
 IR Inten    --      6.2229                16.6741                 1.7901

 - Thermochemistry -
 -------------------
 Temperature   298.150 Kelvin.  Pressure   1.00000 Atm.
 Atom     1 has atomic number  6 and mass  12.00000

 Molecular mass:   221.08744 amu.
 Principal axes and moments of inertia in atomic units:
                           1         2         3
     Eigenvalues --  1330.947746905.831797820.14144
           X            0.99989   0.01475  -0.00000
           Y           -0.01475   0.99989  -0.00000
           Z            0.00000   0.00000   1.00000
 This molecule is an asymmetric top.
 Rotational symmetry number  1.
 Warning -- assumption of classical behavior for rotation
           may cause significant error
 Rotational temperatures (Kelvin)      0.06508     0.01254     0.01108
 Rotational constants (GHZ):           1.35598     0.26134     0.23078
 Zero-point vibrational energy     654188.4 (Joules/Mol)
                                  156.35477 (Kcal/Mol)
 Warning -- explicit consideration of  22 degrees of freedom as
           vibrations may cause significant error
 Vibrational temperatures:     15.67    53.99    79.73   152.86   169.39
          (Kelvin)            233.52   265.36   266.50   337.07   342.21
                              369.33   387.28   400.33   436.62   497.93
                              568.52   600.16   633.30   646.30   747.47
                              764.94   856.86   972.88   974.88   993.34
                             1048.32  1094.23  1148.73  1190.39  1207.94
                             1274.08  1300.07  1357.93  1375.26  1380.09
                             1412.58  1428.19  1451.94  1483.14  1565.27
                             1570.39  1657.09  1662.61  1703.82  1737.29
                             1759.73  1779.76  1794.21  1843.41  1884.27
                             1968.97  1989.89  1999.27  2016.67  2053.12
                             2076.48  2093.59  2120.06  2157.12  2180.38
                             2181.51  2189.71  2192.05  2202.44  2205.86
                             2217.59  2356.88  2404.38  2585.43  4351.57
                             4381.00  4390.50  4391.06  4413.36  4449.71
                             4476.54  4494.15  4505.49  4508.67  4535.29
                             4550.81  4582.26  4605.06  4657.49

 Zero-point correction=                           0.249167 (Hartree/Particle)
 Thermal correction to Energy=                    0.264168
 Thermal correction to Enthalpy=                  0.265112
 Thermal correction to Gibbs Free Energy=         0.205180
 Sum of electronic and zero-point Energies=           -994.319105
 Sum of electronic and thermal Energies=              -994.304104
 Sum of electronic and thermal Enthalpies=            -994.303160
 Sum of electronic and thermal Free Energies=         -994.363092

                     E (Thermal)             CV                S
                      KCal/Mol        Cal/Mol-Kelvin    Cal/Mol-Kelvin
 Total                  165.768             56.027            126.138
 Electronic               0.000              0.000              0.000
 Translational            0.889              2.981             42.083
 Rotational               0.889              2.981             32.641
 Vibrational            163.991             50.065             51.414
 Vibration     1          0.593              1.987              7.841
 Vibration     2          0.594              1.982              5.385
 Vibration     3          0.596              1.975              4.614
 Vibration     4          0.605              1.944              3.336
 Vibration     5          0.608              1.935              3.137
 Vibration     6          0.622              1.889              2.523
 Vibration     7          0.631              1.861              2.283
 Vibration     8          0.631              1.860              2.275
 Vibration     9          0.654              1.788              1.846
 Vibration    10          0.656              1.783              1.819
 Vibration    11          0.666              1.751              1.684
 Vibration    12          0.674              1.730              1.602
 Vibration    13          0.679              1.714              1.544
 Vibration    14          0.695              1.667              1.398
 Vibration    15          0.724              1.583              1.184
 Vibration    16          0.762              1.481              0.981
 Vibration    17          0.780              1.433              0.902
 Vibration    18          0.800              1.383              0.826
 Vibration    19          0.808              1.363              0.798
 Vibration    20          0.875              1.207              0.611
 Vibration    21          0.887              1.180              0.584
 Vibration    22          0.953              1.041              0.457

 Optimization completed.
    -- Stationary point found.
 Normal termination of Gaussian 16 at Thu Dec 10 16:06:58 2020.

 ----------------------------------------------------------------------
 # B3LYP/6-311++G(d,p) empiricaldispersion=gd3bj scf=xqc pop=npa geom=c
 heck
 ----------------------------------------------------------------------

 --------------------------------------
 CID_59332020_JID_5416_Energie_neutraal
 --------------------------------------
 Structure from the checkpoint file:  "JID_5416.chk"
 Charge =  0 Multiplicity = 1

 SCF Done:  E(RB3LYP) =  -994.754087075     A.U. after   15 cycles
 Normal termination of Gaussian 16 at Thu Dec 10 16:12:25 2020.

 ----------------------------------------------------------------------
 # B3LYP/6-311++G(d,p) empiricaldispersion=gd3bj scf=xqc pop=npa geom=c
 heck
 ----------------------------------------------------------------------

 ------------------------------------
 CID_59332020_JID_5416_Energie_kation
 ------------------------------------
 Structure from the checkpoint file:  "JID_5416.chk"
 Charge =  1 Multiplicity = 2

 SCF Done:  E(UB3LYP) =  -994.468501146     A.U. after   27 cycles
 Normal termination of Gaussian 16 at Thu Dec 10 16:27:11 2020.
 Gaussian 16:  ES64L-G16RevA.03 25-Dec-2016

 ----------------------------------------------------------------------
 # B3LYP/6-311++G(d,p) empiricaldispersion=gd3bj scf=xqc pop=npa geom=c
 heck
 ----------------------------------------------------------------------

 -----------------------------------
 CID_59332020_JID_5416_Energie_anion
 -----------------------------------
 Structure from the checkpoint file:  "JID_5416.chk"
 Charge = -1 Multiplicity = 2

                         Standard orientation:
 ---------------------------------------------------------------------
 Center     Atomic      Atomic             Coordinates (Angstroms)
 Number     Number       Type             X           Y           Z
 ---------------------------------------------------------------------
      1          6           0        4.289409   -0.082663   -1.271567
      2          6           0        3.560176   -0.531389    0.000056
      3          6           0        4.289139   -0.082533    1.271785
      4          7           0        2.170992   -0.088910   -0.000145
      5          6           0        1.754894    1.308893   -0.000044
      6          6           0        0.249570    1.205329   -0.000037
      7          6           0       -0.114885   -0.137064   -0.000063
      8          6           0        1.112818   -0.977633   -0.000095
      9          8           0        1.193409   -2.199134   -0.000068
     10          6           0       -1.440757   -0.554464   -0.000063
     11          6           0       -2.436912    0.428013    0.000018
     12          6           0       -2.072437    1.790858    0.000029
     13          6           0       -0.736409    2.187732   -0.000014
     14         16           0       -4.182510    0.078138   -0.000066
     15          6           0       -4.229664   -1.741872    0.000178
     16          1           0        4.384610    1.009060   -1.315897
     17          1           0        3.752739   -0.418977   -2.164222
     18          1           0        5.300371   -0.503268   -1.297494
     19          1           0        3.487545   -1.623173    0.000107
     20          1           0        4.384516    1.009179    1.315957
     21          1           0        3.752210   -0.418604    2.164380
     22          1           0        5.300028   -0.503295    1.298041
     23          1           0        2.133232    1.838869    0.885194
     24          1           0        2.133221    1.838986   -0.885218
     25          1           0       -1.660579   -1.615193   -0.000141
     26          1           0       -2.853606    2.546145    0.000089
     27          1           0       -0.485241    3.245122    0.000010
     28          1           0       -3.757211   -2.153567   -0.895418
     29          1           0       -3.757317   -2.153247    0.895976
     30          1           0       -5.288223   -2.012050    0.000160
 ---------------------------------------------------------------------

 SCF Done:  E(UB3LYP) =  -994.745231243     A.U. after   33 cycles
 SCF Done:  E(UB3LYP) =  -994.746746623     a.u. after    7 cycles

 The electronic state is 2-A.
 Alpha  occ. eigenvalues --  -88.75144 -18.95386 -14.20983 -10.13032 -10.10923
 Alpha  occ. eigenvalues --  -10.09854 -10.09831 -10.09355 -10.06013 -10.05708
 Alpha  occ. eigenvalues --  -10.05670 -10.05489 -10.05378 -10.05134 -10.04206
 Alpha  occ. eigenvalues --   -7.83753  -5.80163  -5.79756  -5.79136  -0.90610
 Alpha  occ. eigenvalues --   -0.82726  -0.75090  -0.70812  -0.67936  -0.63719
 Alpha  occ. eigenvalues --   -0.63074  -0.58963  -0.58567  -0.55381  -0.52272
 Alpha  occ. eigenvalues --   -0.47334  -0.46284  -0.42891  -0.38218  -0.37346
 Alpha  occ. eigenvalues --   -0.36320  -0.36247  -0.34406  -0.34209  -0.33373
 Alpha  occ. eigenvalues --   -0.33015  -0.31713  -0.30974  -0.29066  -0.28611
 Alpha  occ. eigenvalues --   -0.28416  -0.26943  -0.26628  -0.25582  -0.25474
 Alpha  occ. eigenvalues --   -0.24177  -0.23336  -0.22818  -0.22120  -0.17640
 Alpha  occ. eigenvalues --   -0.14396  -0.13007  -0.12336  -0.10501   0.04760
 Alpha virt. eigenvalues --    0.06454   0.06700   0.08021   0.08564   0.09060
 Alpha virt. eigenvalues --    0.09834   0.09915   0.10658   0.11078   0.11341
 Alpha virt. eigenvalues --    0.11908   0.12286   0.12788   0.12984   0.13386

  Beta  occ. eigenvalues --  -88.75146 -18.95265 -14.20906 -10.12933 -10.10920
  Beta  occ. eigenvalues --  -10.09844 -10.09832 -10.09410 -10.05980 -10.05655
  Beta  occ. eigenvalues --  -10.05645 -10.05451 -10.05249 -10.04872 -10.04036
  Beta  occ. eigenvalues --   -7.83755  -5.80164  -5.79756  -5.79143  -0.90382
  Beta  occ. eigenvalues --   -0.82568  -0.74875  -0.70739  -0.67845  -0.63449
  Beta  occ. eigenvalues --   -0.62820  -0.58863  -0.58504  -0.55202  -0.51999
  Beta  occ. eigenvalues --   -0.47175  -0.46095  -0.42780  -0.38150  -0.37217
  Beta  occ. eigenvalues --   -0.36144  -0.36007  -0.34393  -0.34148  -0.33289
  Beta  occ. eigenvalues --   -0.32927  -0.31599  -0.30894  -0.28927  -0.28559
  Beta  occ. eigenvalues --   -0.28307  -0.26539  -0.26349  -0.25479  -0.25150
  Beta  occ. eigenvalues --   -0.23826  -0.23277  -0.22742  -0.22084  -0.17361
  Beta  occ. eigenvalues --   -0.13252  -0.12848  -0.11725  -0.09977
  Beta virt. eigenvalues --    0.06654   0.07138   0.08234   0.08880   0.09076
  Beta virt. eigenvalues --    0.09374   0.09926   0.10091   0.10796   0.11257
  Beta virt. eigenvalues --    0.11366   0.12329   0.12339   0.12869   0.13187

 Mulliken charges and spin densities:
               1          2
     1  C    1.155508  -1.649712
     2  C   -2.040917   2.067432
     3  C    0.801033  -1.294395
     4  N    0.321148  -0.049214
     5  C   -1.046548   0.091672
     6  C    0.864804  -0.473232
     7  C    1.306077   0.100484
     8  C    0.201059  -0.204570
     9  O   -0.416474   0.046314
    10  C   -0.434164   0.067859
    11  C    0.579922  -0.171416
    12  C   -0.077170   0.085839
    13  C   -0.641103  -0.088839
    14  S   -0.912425  -0.007502
    15  C   -0.484154  -0.019813
    16  H   -0.311262   0.450007
    17  H    0.056124   0.105315
    18  H   -0.398913   0.541672
    19  H    0.072624   0.102909
    20  H   -0.284649   0.424924
    21  H    0.108756   0.050189
    22  H   -0.158909   0.295127
    23  H   -0.023937   0.200194
    24  H    0.053965   0.115432
    25  H    0.132691   0.008340
    26  H    0.131828  -0.009483
    27  H   -0.073408   0.203479
    28  H    0.172475   0.011738
    29  H    0.184075  -0.000977
    30  H    0.161946   0.000227
 Sum of Mulliken charges =  -1.00000   1.00000

 Dipole moment (field-independent basis, Debye):
    X=             -6.9820    Y=             -0.4495    Z=              0.6584  Tot=              7.0273
 Quadrupole moment (field-independent basis, Debye-Ang):
   XX=           -176.4509   YY=           -126.3237   ZZ=           -118.8354
   XY=              5.0284   XZ=              4.5799   YZ=             -0.9253

 Summary of Natural Population Analysis:

                                       Natural Population
                Natural  -----------------------------------------------
    Atom  No    Charge         Core      Valence    Rydberg      Total
 -----------------------------------------------------------------------
      C    1   -0.28841      0.99965     2.28332    0.00544     3.28841
      C    2   -0.01153      0.99961     2.00027    0.01165     3.01153
      C    3   -0.28754      0.99965     2.28258    0.00531     3.28754
      N    4   -0.24777      0.99964     2.73742    0.01071     3.74777
      C    5   -0.08520      0.99959     2.07646    0.00915     3.08520
      C    6   -0.00407      0.99947     1.99600    0.00860     3.00407
      C    7   -0.03162      0.99941     2.02153    0.01068     3.03162
      C    8    0.35325      0.99959     1.62504    0.02213     2.64675
      O    9   -0.32410      0.99988     3.31910    0.00512     4.32410
      C   10   -0.08194      0.99946     2.07316    0.00932     3.08194
      C   11   -0.10127      0.99943     2.09177    0.01007     3.10127
      C   12   -0.05910      0.99952     2.04961    0.00997     3.05910
      C   13   -0.09605      0.99952     2.08663    0.00990     3.09605
      S   14    0.11305      4.99954     2.86533    0.02207     7.88695
      C   15   -0.35403      0.99962     2.34937    0.00503     3.35403
      H   16    0.09640      0.00000     0.40234    0.00126     0.40360
      H   17    0.10211      0.00000     0.39691    0.00098     0.39789
      H   18    0.10015      0.00000     0.39860    0.00125     0.39985
      H   19    0.11002      0.00000     0.38770    0.00228     0.38998
      H   20    0.09704      0.00000     0.40183    0.00114     0.40296
      H   21    0.10141      0.00000     0.39771    0.00089     0.39859
      H   22    0.09809      0.00000     0.40112    0.00079     0.40191
      H   23    0.09965      0.00000     0.39880    0.00156     0.40035
      H   24    0.09820      0.00000     0.40056    0.00124     0.40180
      H   25    0.10367      0.00000     0.39488    0.00146     0.39633
      H   26    0.09337      0.00000     0.40541    0.00121     0.40663
      H   27    0.09528      0.00000     0.40342    0.00130     0.40472
      H   28    0.10387      0.00000     0.39467    0.00146     0.39613
      H   29    0.10338      0.00000     0.39516    0.00146     0.39662
      H   30    0.10369      0.00000     0.39543    0.00088     0.39631
 =======================================================================
   * Total *    0.00000     18.99357    39.83211    0.17432    59.00000

 Normal termination of Gaussian 16 at Thu Dec 10 17:17:27 2020.
