 Gaussian 16, Revision A.03,

 -----------------------------------------------------------
 # opt freq B3LYP/6-31G(d) empiricaldispersion=gd3bj scf=xqc
 -----------------------------------------------------------

 ------------------------------
 CID_84773598_JID_4107_neutraal
 ------------------------------
 Symbolic Z-matrix:
 Charge =  0 Multiplicity = 1

 SCF Done:  E(RB3LYP) =  -634.633808145     A.U. after   13 cycles
 SCF Done:  E(RB3LYP) =  -634.636790497     A.U. after   11 cycles
 SCF Done:  E(RB3LYP) =  -634.637047978     A.U. after   11 cycles
 SCF Done:  E(RB3LYP) =  -634.637125671     A.U. after   10 cycles
 SCF Done:  E(RB3LYP) =  -634.637169953     A.U. after   10 cycles
 SCF Done:  E(RB3LYP) =  -634.637184924     A.U. after   11 cycles
 SCF Done:  E(RB3LYP) =  -634.637262646     A.U. after   10 cycles
 SCF Done:  E(RB3LYP) =  -634.637465583     A.U. after   12 cycles
 SCF Done:  E(RB3LYP) =  -634.637581055     A.U. after   10 cycles
 SCF Done:  E(RB3LYP) =  -634.637652786     A.U. after   11 cycles
 SCF Done:  E(RB3LYP) =  -634.637803767     A.U. after    9 cycles
 SCF Done:  E(RB3LYP) =  -634.637806936     A.U. after   10 cycles
 SCF Done:  E(RB3LYP) =  -634.637807019     A.U. after    7 cycles
 SCF Done:  E(RB3LYP) =  -634.637807076     A.U. after    8 cycles
 SCF Done:  E(RB3LYP) =  -634.637807091     A.U. after    7 cycles
 Optimization completed.
    -- Stationary point found.
 Normal termination of Gaussian 16 at Thu Dec 10 09:21:41 2020.

 --------------------------------------------------------------------
 #N Geom=AllCheck Guess=TCheck SCRF=Check GenChk RB3LYP/6-31G(d) Freq
 --------------------------------------------------------------------

 Structure from the checkpoint file:  "JID_4107.chk"
 ------------------------------
 CID_84773598_JID_4107_neutraal
 ------------------------------
 Charge =  0 Multiplicity = 1

 SCF Done:  E(RB3LYP) =  -634.637807091     A.U. after    1 cycles

  Exact polarizability: 174.452  -0.217 142.422   4.996  -4.333  79.989
 Approx polarizability: 233.478  -5.961 217.869  12.789 -11.816 118.813

                      1                      2                      3
                      A                      A                      A
 Frequencies --     37.5425                68.5499                76.1012
 Red. masses --      3.0960                 2.6497                 1.9997
 Frc consts  --      0.0026                 0.0073                 0.0068
 IR Inten    --      0.6826                 0.4291                 2.6750

                      4                      5                      6
                      A                      A                      A
 Frequencies --     95.5548                98.6336               111.6034
 Red. masses --      2.9206                 3.3223                 3.5157
 Frc consts  --      0.0157                 0.0190                 0.0258
 IR Inten    --      1.5298                 1.8777                 0.7646

                      7                      8                      9
                      A                      A                      A
 Frequencies --    175.3110               203.4798               223.5982
 Red. masses --      3.4281                 1.6310                 1.8877
 Frc consts  --      0.0621                 0.0398                 0.0556
 IR Inten    --      1.2666                 0.4782                 0.0374

                     10                     11                     12
                      A                      A                      A
 Frequencies --    236.8923               256.9547               266.2913
 Red. masses --      2.1185                 1.1511                 1.7907
 Frc consts  --      0.0700                 0.0448                 0.0748
 IR Inten    --      0.6738                 0.7869                 4.2331

                     13                     14                     15
                      A                      A                      A
 Frequencies --    288.3279               303.8954               318.4750
 Red. masses --      3.8866                 2.0123                 1.9861
 Frc consts  --      0.1904                 0.1095                 0.1187
 IR Inten    --      1.6353                14.5103                30.3486

                     16                     17                     18
                      A                      A                      A
 Frequencies --    329.1398               339.6381               423.1746
 Red. masses --      2.8978                 1.4307                 4.9222
 Frc consts  --      0.1850                 0.0972                 0.5193
 IR Inten    --      8.0339                53.4739                 1.9351

                     19                     20                     21
                      A                      A                      A
 Frequencies --    464.5180               468.7412               517.0668
 Red. masses --      4.4113                 3.4221                 3.7756
 Frc consts  --      0.5608                 0.4430                 0.5947
 IR Inten    --      4.7874                 6.9864                 1.5514

                     22                     23                     24
                      A                      A                      A
 Frequencies --    539.4485               618.0261               669.3986
 Red. masses --      4.4523                 4.0071                 5.6015
 Frc consts  --      0.7634                 0.9018                 1.4788
 IR Inten    --      8.7695                12.7318                 5.1650

                     25                     26                     27
                      A                      A                      A
 Frequencies --    698.6888               729.1409               771.3680
 Red. masses --      4.1554                 2.8665                 5.0097
 Frc consts  --      1.1952                 0.8979                 1.7563
 IR Inten    --      0.6760                 1.1162                 2.9582

                     28                     29                     30
                      A                      A                      A
 Frequencies --    794.1808               801.2456               821.9001
 Red. masses --      1.8050                 1.2410                 1.2956
 Frc consts  --      0.6707                 0.4694                 0.5156
 IR Inten    --     29.5565                 4.1769                56.2949

                     31                     32                     33
                      A                      A                      A
 Frequencies --    873.1805               947.5633               977.5919
 Red. masses --      2.9137                 1.3000                 2.3997
 Frc consts  --      1.3089                 0.6877                 1.3512
 IR Inten    --     34.8864                11.4987                 2.7104

                     34                     35                     36
                      A                      A                      A
 Frequencies --    993.0948              1014.6017              1064.1987
 Red. masses --      2.2920                 1.4419                 5.4587
 Frc consts  --      1.3318                 0.8745                 3.6424
 IR Inten    --      2.2945                14.6820                33.8412

                     37                     38                     39
                      A                      A                      A
 Frequencies --   1089.9715              1101.0950              1136.3520
 Red. masses --      1.7245                 1.6842                 3.5806
 Frc consts  --      1.2071                 1.2031                 2.7242
 IR Inten    --     34.3648                 4.9722                22.4590

                     40                     41                     42
                      A                      A                      A
 Frequencies --   1150.9537              1172.6944              1186.9727
 Red. masses --      2.1607                 1.6020                 1.2721
 Frc consts  --      1.6864                 1.2980                 1.0560
 IR Inten    --     62.3786                32.4675                 0.8386

                     43                     44                     45
                      A                      A                      A
 Frequencies --   1197.0584              1204.0990              1219.7357
 Red. masses --      1.8058                 1.7104                 1.3741
 Frc consts  --      1.5245                 1.4610                 1.2044
 IR Inten    --     58.9720                66.1925                 6.3130

                     46                     47                     48
                      A                      A                      A
 Frequencies --   1244.9500              1247.0987              1286.7355
 Red. masses --      2.5624                 1.7075                 1.3599
 Frc consts  --      2.3399                 1.5646                 1.3266
 IR Inten    --    159.7233                 9.5539                41.7307

                     49                     50                     51
                      A                      A                      A
 Frequencies --   1299.6083              1331.7188              1343.6125
 Red. masses --      1.3443                 1.5702                 2.9606
 Frc consts  --      1.3377                 1.6408                 3.1490
 IR Inten    --      3.1755                65.3680               108.1251

                     52                     53                     54
                      A                      A                      A
 Frequencies --   1374.3878              1390.0690              1418.3414
 Red. masses --      1.5717                 3.2326                 1.6307
 Frc consts  --      1.7491                 3.6803                 1.9328
 IR Inten    --     32.9295                24.8176                18.0604

                     55                     56                     57
                      A                      A                      A
 Frequencies --   1430.6971              1467.7303              1483.3964
 Red. masses --      1.2335                 3.0089                 1.2186
 Frc consts  --      1.4876                 3.8190                 1.5799
 IR Inten    --      1.8936                51.7614                 1.8491

                     58                     59                     60
                      A                      A                      A
 Frequencies --   1502.6054              1504.4464              1514.7385
 Red. masses --      1.2346                 1.2859                 1.1373
 Frc consts  --      1.6423                 1.7148                 1.5375
 IR Inten    --     31.3382                20.7514                 9.1796

                     61                     62                     63
                      A                      A                      A
 Frequencies --   1518.2982              1520.6933              1527.0755
 Red. masses --      1.0572                 1.0485                 1.0505
 Frc consts  --      1.4359                 1.4285                 1.4434
 IR Inten    --      7.5625                 5.2196                12.3595

                     64                     65                     66
                      A                      A                      A
 Frequencies --   1535.8400              1539.3319              1540.4916
 Red. masses --      1.0869                 1.0718                 1.0714
 Frc consts  --      1.5106                 1.4963                 1.4981
 IR Inten    --     54.4207                 9.0594                 1.8125

                     67                     68                     69
                      A                      A                      A
 Frequencies --   1548.3460              1567.6153              1657.9935
 Red. masses --      1.0602                 2.7141                 7.1569
 Frc consts  --      1.4975                 3.9296                11.5916
 IR Inten    --      3.7492                94.4712                36.2231

                     70                     71                     72
                      A                      A                      A
 Frequencies --   1678.2348              2951.0552              2970.7352
 Red. masses --      6.3950                 1.0610                 1.0710
 Frc consts  --     10.6120                 5.4440                 5.5689
 IR Inten    --     68.8337               107.3159                61.6569

                     73                     74                     75
                      A                      A                      A
 Frequencies --   3019.6600              3020.6123              3049.3295
 Red. masses --      1.0872                 1.0364                 1.0383
 Frc consts  --      5.8406                 5.5716                 5.6886
 IR Inten    --     41.2297                56.0517                41.0743

                     76                     77                     78
                      A                      A                      A
 Frequencies --   3050.5521              3072.2957              3077.5596
 Red. masses --      1.0570                 1.0728                 1.1064
 Frc consts  --      5.7954                 5.9661                 6.1741
 IR Inten    --     32.6601                45.3510                45.4030

                     79                     80                     81
                      A                      A                      A
 Frequencies --   3086.9570              3114.7575              3119.6845
 Red. masses --      1.1037                 1.1021                 1.1023
 Frc consts  --      6.1965                 6.2998                 6.3210
 IR Inten    --      9.9183                49.7613                36.1519

                     82                     83                     84
                      A                      A                      A
 Frequencies --   3134.4476              3156.0076              3198.3137
 Red. masses --      1.1024                 1.0991                 1.0890
 Frc consts  --      6.3814                 6.4502                 6.5633
 IR Inten    --     30.8059                25.9796                17.5816

                     85                     86                     87
                      A                      A                      A
 Frequencies --   3202.8953              3483.5082              3756.5373
 Red. masses --      1.0895                 1.0739                 1.0659
 Frc consts  --      6.5852                 7.6783                 8.8622
 IR Inten    --      1.1381                 0.7131                34.1093

 - Thermochemistry -
 -------------------
 Temperature   298.150 Kelvin.  Pressure   1.00000 Atm.
 Atom     1 has atomic number  6 and mass  12.00000

 Molecular mass:   195.12593 amu.
 Principal axes and moments of inertia in atomic units:
                           1         2         3
     Eigenvalues --  1759.110724410.620695917.43790
           X            0.99996   0.00753  -0.00368
           Y           -0.00750   0.99994   0.00753
           Z            0.00374  -0.00750   0.99996
 This molecule is an asymmetric top.
 Rotational symmetry number  1.
 Warning -- assumption of classical behavior for rotation
           may cause significant error
 Rotational temperatures (Kelvin)      0.04924     0.01964     0.01464
 Rotational constants (GHZ):           1.02594     0.40918     0.30499
 Zero-point vibrational energy     705886.5 (Joules/Mol)
                                  168.71093 (Kcal/Mol)
 Warning -- explicit consideration of  23 degrees of freedom as
           vibrations may cause significant error
 Vibrational temperatures:     54.02    98.63   109.49   137.48   141.91
          (Kelvin)            160.57   252.23   292.76   321.71   340.84
                              369.70   383.13   414.84   437.24   458.21
                              473.56   488.66   608.85   668.34   674.41
                              743.94   776.15   889.20   963.12  1005.26
                             1049.07  1109.83  1142.65  1152.81  1182.53
                             1256.31  1363.33  1406.54  1428.84  1459.79
                             1531.14  1568.23  1584.23  1634.96  1655.97
                             1687.25  1707.79  1722.30  1732.43  1754.93
                             1791.21  1794.30  1851.33  1869.85  1916.05
                             1933.16  1977.44  2000.00  2040.68  2058.45
                             2111.74  2134.28  2161.91  2164.56  2179.37
                             2184.49  2187.94  2197.12  2209.73  2214.76
                             2216.42  2227.72  2255.45  2385.48  2414.61
                             4245.91  4274.23  4344.62  4345.99  4387.30
                             4389.06  4420.35  4427.92  4441.44  4481.44
                             4488.53  4509.77  4540.79  4601.66  4608.25
                             5011.99  5404.82

 Zero-point correction=                           0.268858 (Hartree/Particle)
 Thermal correction to Energy=                    0.284046
 Thermal correction to Enthalpy=                  0.284991
 Thermal correction to Gibbs Free Energy=         0.226472
 Sum of electronic and zero-point Energies=           -634.368949
 Sum of electronic and thermal Energies=              -634.353761
 Sum of electronic and thermal Enthalpies=            -634.352816
 Sum of electronic and thermal Free Energies=         -634.411335

                     E (Thermal)             CV                S
                      KCal/Mol        Cal/Mol-Kelvin    Cal/Mol-Kelvin
 Total                  178.242             56.135            123.163
 Electronic               0.000              0.000              0.000
 Translational            0.889              2.981             41.711
 Rotational               0.889              2.981             32.196
 Vibrational            176.464             50.173             49.257
 Vibration     1          0.594              1.982              5.385
 Vibration     2          0.598              1.969              4.195
 Vibration     3          0.599              1.965              3.989
 Vibration     4          0.603              1.952              3.543
 Vibration     5          0.604              1.950              3.481
 Vibration     6          0.607              1.940              3.241
 Vibration     7          0.627              1.873              2.378
 Vibration     8          0.639              1.835              2.101
 Vibration     9          0.649              1.805              1.930
 Vibration    10          0.656              1.784              1.826
 Vibration    11          0.667              1.751              1.682
 Vibration    12          0.672              1.735              1.620
 Vibration    13          0.685              1.695              1.484
 Vibration    14          0.695              1.666              1.395
 Vibration    15          0.705              1.638              1.318
 Vibration    16          0.712              1.617              1.264
 Vibration    17          0.720              1.596              1.214
 Vibration    18          0.785              1.420              0.881
 Vibration    19          0.822              1.329              0.753
 Vibration    20          0.826              1.319              0.741
 Vibration    21          0.872              1.212              0.617
 Vibration    22          0.895              1.163              0.566
 Vibration    23          0.978              0.994              0.420

 Optimization completed.
    -- Stationary point found.
 Normal termination of Gaussian 16 at Thu Dec 10 09:29:42 2020.

 ----------------------------------------------------------------------
 # B3LYP/6-311++G(d,p) empiricaldispersion=gd3bj scf=xqc pop=npa geom=c
 heck
 ----------------------------------------------------------------------

 --------------------------------------
 CID_84773598_JID_4107_Energie_neutraal
 --------------------------------------
 Structure from the checkpoint file:  "JID_4107.chk"
 Charge =  0 Multiplicity = 1

 SCF Done:  E(RB3LYP) =  -634.824107347     A.U. after   14 cycles
 Normal termination of Gaussian 16 at Thu Dec 10 09:32:51 2020.

 ----------------------------------------------------------------------
 # B3LYP/6-311++G(d,p) empiricaldispersion=gd3bj scf=xqc pop=npa geom=c
 heck
 ----------------------------------------------------------------------

 ------------------------------------
 CID_84773598_JID_4107_Energie_kation
 ------------------------------------
 Structure from the checkpoint file:  "JID_4107.chk"
 Charge =  1 Multiplicity = 2

 SCF Done:  E(UB3LYP) =  -634.554177493     A.U. after   22 cycles
 Normal termination of Gaussian 16 at Thu Dec 10 09:40:02 2020.
 Gaussian 16:  ES64L-G16RevA.03 25-Dec-2016

 ----------------------------------------------------------------------
 # B3LYP/6-311++G(d,p) empiricaldispersion=gd3bj scf=xqc pop=npa geom=c
 heck
 ----------------------------------------------------------------------

 -----------------------------------
 CID_84773598_JID_4107_Energie_anion
 -----------------------------------
 Structure from the checkpoint file:  "JID_4107.chk"
 Charge = -1 Multiplicity = 2

                         Standard orientation:
 ---------------------------------------------------------------------
 Center     Atomic      Atomic             Coordinates (Angstroms)
 Number     Number       Type             X           Y           Z
 ---------------------------------------------------------------------
      1          6           0       -2.353397    2.675532    0.888715
      2          6           0       -1.665774    2.196207   -0.400192
      3          6           0       -0.925069    0.892522   -0.218924
      4          6           0        0.459755    0.853334   -0.066225
      5          6           0        1.179478   -0.330083    0.129162
      6          6           0        0.452591   -1.523247    0.182549
      7          6           0       -0.938415   -1.530857    0.034029
      8          6           0       -1.621056   -0.328650   -0.165186
      9          8           0       -2.979720   -0.248964   -0.320266
     10          6           0       -3.729655   -1.448370   -0.293689
     11          8           0        1.152418   -2.686802    0.391613
     12          6           0        2.682927   -0.334183    0.290186
     13          7           0        3.298050    0.832618   -0.339094
     14          6           0        4.747362    0.842441   -0.196198
     15          1           0       -3.086343    1.937799    1.229071
     16          1           0       -2.874350    3.626410    0.726174
     17          1           0       -1.619263    2.820032    1.689151
     18          1           0       -2.420823    2.086250   -1.187349
     19          1           0       -0.956372    2.959622   -0.741083
     20          1           0        1.022589    1.781287   -0.105249
     21          1           0       -1.470438   -2.475885    0.078932
     22          1           0       -3.426362   -2.132123   -1.098062
     23          1           0       -3.632430   -1.964036    0.671299
     24          1           0       -4.770793   -1.156456   -0.442325
     25          1           0        0.531647   -3.430710    0.369266
     26          1           0        2.945716   -0.304504    1.358564
     27          1           0        3.087706   -1.289319   -0.087836
     28          1           0        3.054298    0.829909   -1.328428
     29          1           0        5.246361   -0.076730   -0.557276
     30          1           0        5.163317    1.696635   -0.740205
     31          1           0        5.005124    0.961741    0.862878
 ---------------------------------------------------------------------

 SCF Done:  E(UB3LYP) =  -634.813084402     A.U. after   33 cycles
 SCF Done:  E(UB3LYP) =  -634.813084402     a.u. after    1 cycles

 The electronic state is 2-A.
 Alpha  occ. eigenvalues --  -19.05312 -19.04571 -14.20810 -10.13169 -10.13120
 Alpha  occ. eigenvalues --  -10.11786 -10.10013 -10.09754 -10.07633 -10.06982
 Alpha  occ. eigenvalues --  -10.06932 -10.06827 -10.06745 -10.06669  -0.96896
 Alpha  occ. eigenvalues --   -0.95542  -0.81618  -0.75374  -0.69079  -0.66432
 Alpha  occ. eigenvalues --   -0.62807  -0.61595  -0.58396  -0.54359  -0.53517
 Alpha  occ. eigenvalues --   -0.50576  -0.46996  -0.44895  -0.42047  -0.40073
 Alpha  occ. eigenvalues --   -0.38246  -0.37074  -0.36303  -0.35037  -0.34852
 Alpha  occ. eigenvalues --   -0.33621  -0.32682  -0.32337  -0.31022  -0.29981
 Alpha  occ. eigenvalues --   -0.29150  -0.28800  -0.27896  -0.27776  -0.25825
 Alpha  occ. eigenvalues --   -0.25370  -0.24895  -0.23960  -0.22788  -0.20140
 Alpha  occ. eigenvalues --   -0.14145  -0.13534  -0.10775   0.04298
 Alpha virt. eigenvalues --    0.05737   0.06743   0.07681   0.08017   0.08943
 Alpha virt. eigenvalues --    0.09142   0.09405   0.10108   0.10419   0.10476
 Alpha virt. eigenvalues --    0.10979   0.11301   0.11750   0.12466   0.13206

  Beta  occ. eigenvalues --  -19.05303 -19.04517 -14.20803 -10.13167 -10.13118
  Beta  occ. eigenvalues --  -10.11733 -10.09992 -10.09744 -10.07631 -10.06982
  Beta  occ. eigenvalues --  -10.06928 -10.06826 -10.06740 -10.06636  -0.96874
  Beta  occ. eigenvalues --   -0.95435  -0.81605  -0.75357  -0.69061  -0.66406
  Beta  occ. eigenvalues --   -0.62769  -0.61557  -0.58339  -0.54328  -0.53471
  Beta  occ. eigenvalues --   -0.50525  -0.46968  -0.44823  -0.42005  -0.40040
  Beta  occ. eigenvalues --   -0.38207  -0.37043  -0.36273  -0.35009  -0.34819
  Beta  occ. eigenvalues --   -0.33588  -0.32634  -0.32318  -0.30990  -0.29961
  Beta  occ. eigenvalues --   -0.29127  -0.28765  -0.27874  -0.27749  -0.25801
  Beta  occ. eigenvalues --   -0.25345  -0.24865  -0.23940  -0.22757  -0.20120
  Beta  occ. eigenvalues --   -0.14126  -0.13512  -0.10760
  Beta virt. eigenvalues --    0.06024   0.06742   0.07620   0.08065   0.08620
  Beta virt. eigenvalues --    0.09046   0.09379   0.09492   0.10238   0.10676
  Beta virt. eigenvalues --    0.10991   0.11339   0.11575   0.11750   0.12619

 Mulliken charges and spin densities:
               1          2
     1  C   -0.364350  -0.263436
     2  C   -0.544791   0.236547
     3  C    0.260146   0.556074
     4  C   -1.122789   0.502024
     5  C    2.633796  -1.916592
     6  C    0.959250  -1.486778
     7  C   -1.057723   1.023924
     8  C   -1.608120   0.917035
     9  O   -0.207482   0.063227
    10  C    1.139859  -1.455227
    11  O   -0.299742   0.084992
    12  C    0.643286  -1.099482
    13  N   -0.173217   0.089432
    14  C    0.279378  -0.593840
    15  H    0.145236   0.023467
    16  H    0.063373   0.043327
    17  H    0.078247   0.047808
    18  H    0.111741   0.055020
    19  H    0.085723   0.063406
    20  H    0.170076   0.010628
    21  H   -0.494026   0.667179
    22  H   -0.421131   0.583816
    23  H   -0.359793   0.526650
    24  H   -0.489623   0.657043
    25  H   -0.540515   0.827870
    26  H    0.059478   0.101375
    27  H    0.198877   0.014411
    28  H    0.128299   0.076453
    29  H   -0.111597   0.218428
    30  H   -0.136061   0.263100
    31  H   -0.025802   0.162117
 Sum of Mulliken charges =  -1.00000   1.00000

 Dipole moment (field-independent basis, Debye):
    X=              2.6969    Y=              8.0301    Z=             -0.2547  Tot=              8.4747
 Quadrupole moment (field-independent basis, Debye-Ang):
   XX=           -161.1495   YY=           -148.0370   ZZ=           -109.5498
   XY=            -14.8980   XZ=             -0.9738   YZ=              0.5682

 Summary of Natural Population Analysis:

                                       Natural Population
                Natural  -----------------------------------------------
    Atom  No    Charge         Core      Valence    Rydberg      Total
 -----------------------------------------------------------------------
      C    1   -0.28187      0.99966     2.27794    0.00427     3.28187
      C    2   -0.19446      0.99961     2.18659    0.00825     3.19446
      C    3   -0.04993      0.99947     2.04099    0.00948     3.04993
      C    4   -0.08750      0.99949     2.08010    0.00791     3.08750
      C    5   -0.06095      0.99947     2.05012    0.01136     3.06095
      C    6    0.17042      0.99935     1.81696    0.01327     2.82958
      C    7   -0.17290      0.99948     2.16293    0.01049     3.17290
      C    8    0.17084      0.99934     1.81657    0.01325     2.82916
      O    9   -0.27695      0.99986     3.26734    0.00976     4.27695
      C   10   -0.10061      0.99960     2.09171    0.00930     3.10061
      O   11   -0.34372      0.99988     3.33688    0.00697     4.34372
      C   12   -0.08979      0.99960     2.08009    0.01010     3.08979
      N   13   -0.33598      0.99975     2.82596    0.01027     3.83598
      C   14   -0.17525      0.99967     2.16880    0.00678     3.17525
      H   15    0.10273      0.00000     0.39582    0.00145     0.39727
      H   16    0.09143      0.00000     0.40755    0.00101     0.40857
      H   17    0.09471      0.00000     0.40412    0.00117     0.40529
      H   18    0.10298      0.00000     0.39553    0.00149     0.39702
      H   19    0.09447      0.00000     0.40422    0.00130     0.40553
      H   20    0.10588      0.00000     0.39252    0.00160     0.39412
      H   21    0.11206      0.00000     0.38430    0.00364     0.38794
      H   22    0.08804      0.00000     0.40960    0.00236     0.41196
      H   23    0.08725      0.00000     0.41059    0.00216     0.41275
      H   24    0.09269      0.00000     0.40601    0.00130     0.40731
      H   25    0.24237      0.00000     0.24396    0.01367     0.25763
      H   26    0.09398      0.00000     0.40452    0.00150     0.40602
      H   27    0.09252      0.00000     0.40547    0.00201     0.40748
      H   28    0.16850      0.00000     0.32736    0.00414     0.33150
      H   29    0.07711      0.00000     0.42048    0.00242     0.42289
      H   30    0.09238      0.00000     0.40646    0.00116     0.40762
      H   31    0.08955      0.00000     0.40893    0.00152     0.41045
 =======================================================================
   * Total *   -0.00000     13.99423    38.83042    0.17535    53.00000

 Normal termination of Gaussian 16 at Thu Dec 10 09:50:56 2020.
