 Gaussian 16, Revision A.03,

 ----------------------------------------------------------------------
 # opt=(cartesian,calcfc) freq B3LYP/6-31G(d) empiricaldispersion=gd3bj
  scf=xqc
 ----------------------------------------------------------------------

 ------------------------------
 CID_80915407_JID_6891_neutraal
 ------------------------------
 Symbolic Z-matrix:
 Charge =  0 Multiplicity = 1

 SCF Done:  E(RB3LYP) =  -741.531192326     A.U. after   14 cycles
 SCF Done:  E(RB3LYP) =  -741.531295191     A.U. after   10 cycles
 SCF Done:  E(RB3LYP) =  -741.531320411     A.U. after   11 cycles
 SCF Done:  E(RB3LYP) =  -741.531333012     A.U. after   11 cycles
 SCF Done:  E(RB3LYP) =  -741.531373605     A.U. after   11 cycles
 SCF Done:  E(RB3LYP) =  -741.531338143     A.U. after   11 cycles
 SCF Done:  E(RB3LYP) =  -741.531401624     A.U. after   10 cycles
 SCF Done:  E(RB3LYP) =  -741.531390552     A.U. after   11 cycles
 SCF Done:  E(RB3LYP) =  -741.531414474     A.U. after    9 cycles
 SCF Done:  E(RB3LYP) =  -741.531373172     A.U. after   11 cycles
 SCF Done:  E(RB3LYP) =  -741.531450827     A.U. after    8 cycles
 SCF Done:  E(RB3LYP) =  -741.531451090     A.U. after    1 cycles
 SCF Done:  E(RB3LYP) =  -741.531451111     A.U. after    6 cycles
 SCF Done:  E(RB3LYP) =  -741.531450841     A.U. after    8 cycles
 SCF Done:  E(RB3LYP) =  -741.531451126     A.U. after    5 cycles
 Optimization completed.
    -- Stationary point found.
 Normal termination of Gaussian 16 at Mon Jan  4 10:15:42 2021.

 --------------------------------------------------------------------
 #N Geom=AllCheck Guess=TCheck SCRF=Check GenChk RB3LYP/6-31G(d) Freq
 --------------------------------------------------------------------

 Structure from the checkpoint file:  "JID_6891.chk"
 ------------------------------
 CID_80915407_JID_6891_neutraal
 ------------------------------
 Charge =  0 Multiplicity = 1

 SCF Done:  E(RB3LYP) =  -741.531451126     A.U. after    1 cycles

  Exact polarizability: 181.984 -11.460 155.935   7.591  11.285 101.640
 Approx polarizability: 248.321 -23.120 229.265  12.207  26.876 149.619

                      1                      2                      3
                      A                      A                      A
 Frequencies --     26.3469                41.3139                59.5469
 Red. masses --      4.3794                 3.9556                 3.8977
 Frc consts  --      0.0018                 0.0040                 0.0081
 IR Inten    --      0.8252                 0.4549                 0.4367

                      4                      5                      6
                      A                      A                      A
 Frequencies --     94.7628                97.2529               109.4431
 Red. masses --      1.4702                 1.7934                 3.4609
 Frc consts  --      0.0078                 0.0100                 0.0244
 IR Inten    --      0.1754                 0.2779                 0.8660

                      7                      8                      9
                      A                      A                      A
 Frequencies --    121.3812               146.2087               165.4479
 Red. masses --      4.6831                 2.2616                 1.3561
 Frc consts  --      0.0407                 0.0285                 0.0219
 IR Inten    --      2.3510                13.2946                17.6565

                     10                     11                     12
                      A                      A                      A
 Frequencies --    170.5586               209.1029               215.7223
 Red. masses --      3.1537                 2.7308                 2.5108
 Frc consts  --      0.0541                 0.0703                 0.0688
 IR Inten    --      1.6927                 4.8349                 0.4035

                     13                     14                     15
                      A                      A                      A
 Frequencies --    218.0813               237.4753               244.0244
 Red. masses --      2.5252                 1.3030                 1.5666
 Frc consts  --      0.0708                 0.0433                 0.0550
 IR Inten    --     11.9093                 0.8223                 4.7357

                     16                     17                     18
                      A                      A                      A
 Frequencies --    246.2442               287.5676               330.2533
 Red. masses --      3.4223                 2.4575                 2.3222
 Frc consts  --      0.1223                 0.1197                 0.1492
 IR Inten    --      3.5975                 2.3675                 3.6271

                     19                     20                     21
                      A                      A                      A
 Frequencies --    355.8426               385.6512               416.6820
 Red. masses --      2.4599                 3.1141                 1.1651
 Frc consts  --      0.1835                 0.2729                 0.1192
 IR Inten    --      5.2881                 8.3625                69.8303

                     22                     23                     24
                      A                      A                      A
 Frequencies --    427.9024               454.4018               525.2388
 Red. masses --      3.2057                 2.5709                 4.2635
 Frc consts  --      0.3458                 0.3128                 0.6930
 IR Inten    --     12.1476                12.5348                 4.8148

                     25                     26                     27
                      A                      A                      A
 Frequencies --    555.7621               567.6175               568.7789
 Red. masses --      2.0562                 3.5431                 2.4829
 Frc consts  --      0.3742                 0.6726                 0.4733
 IR Inten    --    130.1027                 1.2465                45.1718

                     28                     29                     30
                      A                      A                      A
 Frequencies --    596.6348               667.1992               709.1916
 Red. masses --      3.9075                 3.3604                 3.7126
 Frc consts  --      0.8195                 0.8814                 1.1002
 IR Inten    --      0.9087                36.8677                 3.6798

                     31                     32                     33
                      A                      A                      A
 Frequencies --    768.3513               792.3106               802.8299
 Red. masses --      3.0734                 1.6387                 5.3432
 Frc consts  --      1.0690                 0.6061                 2.0291
 IR Inten    --     33.5280                 3.9549                35.9708

                     34                     35                     36
                      A                      A                      A
 Frequencies --    815.0235               858.8882               934.4615
 Red. masses --      1.9877                 2.0303                 2.0336
 Frc consts  --      0.7779                 0.8824                 1.0462
 IR Inten    --      1.5198                 7.1000                 2.1587

                     37                     38                     39
                      A                      A                      A
 Frequencies --    971.4579               976.2793               995.6384
 Red. masses --      2.9041                 1.8789                 4.2844
 Frc consts  --      1.6148                 1.0551                 2.5023
 IR Inten    --     70.9575                 7.1200                16.7517

                     40                     41                     42
                      A                      A                      A
 Frequencies --   1015.9945              1035.0085              1041.6755
 Red. masses --      1.7084                 1.6368                 3.4016
 Frc consts  --      1.0390                 1.0330                 2.1747
 IR Inten    --      4.3944                15.0921                 7.4568

                     43                     44                     45
                      A                      A                      A
 Frequencies --   1073.9853              1075.3940              1116.8517
 Red. masses --      1.6338                 2.8262                 2.2550
 Frc consts  --      1.1103                 1.9257                 1.6572
 IR Inten    --      3.9279                12.5899                10.7225

                     46                     47                     48
                      A                      A                      A
 Frequencies --   1136.7726              1145.9572              1170.3188
 Red. masses --      2.3109                 2.1268                 3.5698
 Frc consts  --      1.7595                 1.6456                 2.8808
 IR Inten    --     14.4236                20.4041                84.5222

                     49                     50                     51
                      A                      A                      A
 Frequencies --   1183.5590              1201.8641              1224.5150
 Red. masses --      1.5899                 1.6457                 1.5432
 Frc consts  --      1.3122                 1.4006                 1.3633
 IR Inten    --     23.1165                32.5634                14.5621

                     52                     53                     54
                      A                      A                      A
 Frequencies --   1232.4360              1264.5075              1268.8064
 Red. masses --      1.6695                 2.1093                 1.3851
 Frc consts  --      1.4940                 1.9872                 1.3138
 IR Inten    --     71.0765                43.6625                 3.8204

                     55                     56                     57
                      A                      A                      A
 Frequencies --   1288.7661              1306.2955              1345.1902
 Red. masses --      1.7256                 2.3342                 1.3185
 Frc consts  --      1.6886                 2.3468                 1.4057
 IR Inten    --      5.5302                43.6952                 1.9787

                     58                     59                     60
                      A                      A                      A
 Frequencies --   1365.1851              1377.7408              1406.0678
 Red. masses --      1.7424                 1.1761                 1.5787
 Frc consts  --      1.9133                 1.3153                 1.8389
 IR Inten    --     44.1466                 2.5042                41.6565

                     61                     62                     63
                      A                      A                      A
 Frequencies --   1413.4886              1431.5897              1436.9176
 Red. masses --      1.4400                 1.2636                 1.3751
 Frc consts  --      1.6951                 1.5258                 1.6729
 IR Inten    --      0.3627                 4.3818                16.9100

                     64                     65                     66
                      A                      A                      A
 Frequencies --   1439.2076              1447.8838              1493.9128
 Red. masses --      1.2578                 1.6952                 3.1727
 Frc consts  --      1.5350                 2.0938                 4.1719
 IR Inten    --      1.2869                 3.0434               107.7339

                     67                     68                     69
                      A                      A                      A
 Frequencies --   1497.0171              1503.2231              1503.8442
 Red. masses --      1.2264                 1.1786                 1.0456
 Frc consts  --      1.6193                 1.5691                 1.3932
 IR Inten    --      0.8249                 1.4868                 5.8672

                     70                     71                     72
                      A                      A                      A
 Frequencies --   1516.6831              1517.7454              1524.5162
 Red. masses --      1.1157                 1.0575                 1.1530
 Frc consts  --      1.5121                 1.4352                 1.5788
 IR Inten    --     33.5576                 7.2694               107.1590

                     73                     74                     75
                      A                      A                      A
 Frequencies --   1527.1935              1533.2233              1540.5531
 Red. masses --      1.0839                 1.1679                 1.7371
 Frc consts  --      1.4895                 1.6176                 2.4290
 IR Inten    --     17.4731                34.0321               324.0776

                     76                     77                     78
                      A                      A                      A
 Frequencies --   1553.9041              1576.5769              1636.5835
 Red. masses --      1.1259                 4.0742                 3.7296
 Frc consts  --      1.6018                 5.9666                 5.8855
 IR Inten    --      7.8118                78.5843               319.4131

                     79                     80                     81
                      A                      A                      A
 Frequencies --   1650.9510              1749.3253              2977.3680
 Red. masses --      6.1126                 1.0630                 1.0633
 Frc consts  --      9.8162                 1.9165                 5.5535
 IR Inten    --    674.6012                26.8517                44.8121

                     82                     83                     84
                      A                      A                      A
 Frequencies --   2993.2484              3033.2081              3037.0590
 Red. masses --      1.0495                 1.0834                 1.0522
 Frc consts  --      5.5399                 5.8727                 5.7182
 IR Inten    --    113.2452                23.6996                18.2916

                     85                     86                     87
                      A                      A                      A
 Frequencies --   3042.1125              3056.1283              3062.1486
 Red. masses --      1.0619                 1.0360                 1.0928
 Frc consts  --      5.7899                 5.7009                 6.0371
 IR Inten    --     79.8403                18.8984                35.6647

                     88                     89                     90
                      A                      A                      A
 Frequencies --   3085.4756              3104.6739              3115.3937
 Red. masses --      1.1006                 1.0920                 1.1004
 Frc consts  --      6.1733                 6.2015                 6.2928
 IR Inten    --     31.3245                22.8833                12.9372

                     91                     92                     93
                      A                      A                      A
 Frequencies --   3128.8571              3134.5267              3140.4096
 Red. masses --      1.0996                 1.1034                 1.1032
 Frc consts  --      6.3424                 6.3875                 6.4102
 IR Inten    --     35.1194                29.8340                18.7710

                     94                     95                     96
                      A                      A                      A
 Frequencies --   3141.5149              3203.0771              3427.3128
 Red. masses --      1.0867                 1.0916                 1.0496
 Frc consts  --      6.3186                 6.5986                 7.2638
 IR Inten    --      9.1452                10.7949                 6.9848

                     97                     98                     99
                      A                      A                      A
 Frequencies --   3502.7081              3612.6546              3616.6275
 Red. masses --      1.0917                 1.0773                 1.0763
 Frc consts  --      7.8913                 8.2838                 8.2942
 IR Inten    --      0.3722                35.9132                24.0062

 - Thermochemistry -
 -------------------
 Temperature   298.150 Kelvin.  Pressure   1.00000 Atm.
 Atom     1 has atomic number  6 and mass  12.00000

 Molecular mass:   225.15896 amu.
 Principal axes and moments of inertia in atomic units:
                           1         2         3
     Eigenvalues --  2719.555754912.110596606.13338
           X            0.99997  -0.00100   0.00754
           Y            0.00108   0.99995  -0.00990
           Z           -0.00753   0.00991   0.99992
 This molecule is an asymmetric top.
 Rotational symmetry number  1.
 Warning -- assumption of classical behavior for rotation
           may cause significant error
 Rotational temperatures (Kelvin)      0.03185     0.01763     0.01311
 Rotational constants (GHZ):           0.66362     0.36741     0.27319
 Zero-point vibrational energy     797625.8 (Joules/Mol)
                                  190.63713 (Kcal/Mol)
 Warning -- explicit consideration of  28 degrees of freedom as
           vibrations may cause significant error
 Vibrational temperatures:     37.91    59.44    85.67   136.34   139.93
          (Kelvin)            157.46   174.64   210.36   238.04   245.40
                              300.85   310.38   313.77   341.67   351.10
                              354.29   413.75   475.16   511.98   554.87
                              599.51   615.66   653.78   755.70   799.62
                              816.67   818.35   858.42   959.95  1020.37
                             1105.49  1139.96  1155.09  1172.64  1235.75
                             1344.48  1397.71  1404.65  1432.50  1461.79
                             1489.15  1498.74  1545.23  1547.25  1606.90
                             1635.56  1648.78  1683.83  1702.88  1729.21
                             1761.80  1773.20  1819.34  1825.53  1854.25
                             1879.47  1935.43  1964.20  1982.26  2023.02
                             2033.69  2059.74  2067.40  2070.70  2083.18
                             2149.41  2153.87  2162.80  2163.70  2182.17
                             2183.70  2193.44  2197.29  2205.97  2216.51
                             2235.72  2268.34  2354.68  2375.35  2516.89
                             4283.77  4306.62  4364.11  4369.65  4376.92
                             4397.09  4405.75  4439.31  4466.93  4482.36
                             4501.73  4509.88  4518.35  4519.94  4608.51
                             4931.14  5039.62  5197.80  5203.52

 Zero-point correction=                           0.303800 (Hartree/Particle)
 Thermal correction to Energy=                    0.321571
 Thermal correction to Enthalpy=                  0.322516
 Thermal correction to Gibbs Free Energy=         0.257667
 Sum of electronic and zero-point Energies=           -741.227652
 Sum of electronic and thermal Energies=              -741.209880
 Sum of electronic and thermal Enthalpies=            -741.208935
 Sum of electronic and thermal Free Energies=         -741.273785

                     E (Thermal)             CV                S
                      KCal/Mol        Cal/Mol-Kelvin    Cal/Mol-Kelvin
 Total                  201.789             64.748            136.486
 Electronic               0.000              0.000              0.000
 Translational            0.889              2.981             42.137
 Rotational               0.889              2.981             32.845
 Vibrational            200.012             58.786             61.504
 Vibration     1          0.593              1.985              6.087
 Vibration     2          0.594              1.981              5.195
 Vibration     3          0.597              1.974              4.472
 Vibration     4          0.603              1.953              3.559
 Vibration     5          0.603              1.951              3.509
 Vibration     6          0.606              1.942              3.279
 Vibration     7          0.609              1.931              3.078
 Vibration     8          0.617              1.907              2.721
 Vibration     9          0.624              1.885              2.487
 Vibration    10          0.626              1.879              2.429
 Vibration    11          0.642              1.827              2.051
 Vibration    12          0.645              1.817              1.995
 Vibration    13          0.646              1.814              1.975
 Vibration    14          0.656              1.783              1.822
 Vibration    15          0.659              1.773              1.773
 Vibration    16          0.661              1.769              1.757
 Vibration    17          0.685              1.697              1.488
 Vibration    18          0.713              1.615              1.259
 Vibration    19          0.731              1.563              1.140
 Vibration    20          0.754              1.501              1.017
 Vibration    21          0.780              1.434              0.903
 Vibration    22          0.789              1.410              0.866
 Vibration    23          0.813              1.351              0.783
 Vibration    24          0.880              1.194              0.598
 Vibration    25          0.911              1.127              0.532
 Vibration    26          0.924              1.101              0.509
 Vibration    27          0.925              1.099              0.507
 Vibration    28          0.954              1.039              0.455

 Normal termination of Gaussian 16 at Mon Jan  4 10:26:56 2021.

 ----------------------------------------------------------------------
 # B3LYP/6-311++G(d,p) empiricaldispersion=gd3bj scf=xqc pop=npa geom=c
 heck
 ----------------------------------------------------------------------

 --------------------------------------
 CID_80915407_JID_6891_Energie_neutraal
 --------------------------------------
 Structure from the checkpoint file:  "JID_6891.chk"
 Charge =  0 Multiplicity = 1

 SCF Done:  E(RB3LYP) =  -741.750421299     A.U. after   14 cycles
 Normal termination of Gaussian 16 at Mon Jan  4 10:31:26 2021.

 ----------------------------------------------------------------------
 # B3LYP/6-311++G(d,p) empiricaldispersion=gd3bj scf=xqc pop=npa geom=c
 heck
 ----------------------------------------------------------------------

 ------------------------------------
 CID_80915407_JID_6891_Energie_kation
 ------------------------------------
 Structure from the checkpoint file:  "JID_6891.chk"
 Charge =  1 Multiplicity = 2

 SCF Done:  E(UB3LYP) =  -741.470019895     A.U. after   24 cycles
 Normal termination of Gaussian 16 at Mon Jan  4 10:41:57 2021.
 Gaussian 16:  ES64L-G16RevA.03 25-Dec-2016

 ----------------------------------------------------------------------
 # B3LYP/6-311++G(d,p) empiricaldispersion=gd3bj scf=xqc pop=npa geom=c
 heck
 ----------------------------------------------------------------------

 -----------------------------------
 CID_80915407_JID_6891_Energie_anion
 -----------------------------------
 Structure from the checkpoint file:  "JID_6891.chk"
 Charge = -1 Multiplicity = 2

                         Standard orientation:
 ---------------------------------------------------------------------
 Center     Atomic      Atomic             Coordinates (Angstroms)
 Number     Number       Type             X           Y           Z
 ---------------------------------------------------------------------
      1          6           0       -3.712288   -2.004638   -0.972388
      2          6           0       -2.491518   -1.281301   -0.473132
      3          6           0       -1.248598   -1.885166   -0.443425
      4          6           0       -0.166417   -1.117171    0.059638
      5          7           0       -0.345053    0.138640    0.483816
      6          6           0       -1.596616    0.620824    0.387819
      7          7           0       -2.689216   -0.009344   -0.057680
      8          7           0       -1.743350    1.932465    0.782400
      9          7           0       -3.017730    2.483987    1.035868
     10          7           0        1.084723   -1.648702    0.125015
     11          6           0        2.278502   -0.972700    0.630721
     12          6           0        3.061013   -1.932024    1.529429
     13          6           0        3.143357   -0.428768   -0.520636
     14          6           0        2.485012    0.733399   -1.249963
     15          8           0        2.434839    1.830128   -0.356756
     16          6           0        1.557184    2.847579   -0.789202
     17          1           0       -4.474493   -2.041606   -0.185978
     18          1           0       -4.151482   -1.461783   -1.816835
     19          1           0       -3.480858   -3.025520   -1.289029
     20          1           0       -1.105188   -2.906386   -0.780823
     21          1           0       -1.014802    2.275064    1.394219
     22          1           0       -3.408271    2.749549    0.131695
     23          1           0       -3.620282    1.724576    1.362059
     24          1           0        1.200036   -2.586803   -0.231954
     25          1           0        1.920781   -0.122216    1.213650
     26          1           0        3.416007   -2.804362    0.963565
     27          1           0        3.939716   -1.433381    1.950914
     28          1           0        2.436194   -2.290675    2.353401
     29          1           0        4.104806   -0.084696   -0.119622
     30          1           0        3.358700   -1.237215   -1.232943
     31          1           0        3.059905    1.002686   -2.152720
     32          1           0        1.471333    0.454337   -1.573744
     33          1           0        1.853165    3.251109   -1.771668
     34          1           0        0.521796    2.484280   -0.848618
     35          1           0        1.610825    3.652497   -0.050618
 ---------------------------------------------------------------------

 SCF Done:  E(UB3LYP) =  -741.738112081     A.U. after   33 cycles
 SCF Done:  E(UB3LYP) =  -741.738112081     a.u. after    1 cycles

 The electronic state is 2-A.
 Alpha  occ. eigenvalues --  -19.03038 -14.25808 -14.24503 -14.23252 -14.19832
 Alpha  occ. eigenvalues --  -14.19564 -10.17048 -10.15674 -10.12213 -10.11866
 Alpha  occ. eigenvalues --  -10.11762 -10.11009 -10.07113 -10.07043 -10.06602
 Alpha  occ. eigenvalues --  -10.06477  -0.94393  -0.92256  -0.87677  -0.83709
 Alpha  occ. eigenvalues --   -0.77944  -0.72278  -0.69195  -0.66709  -0.64506
 Alpha  occ. eigenvalues --   -0.61369  -0.58329  -0.54547  -0.53896  -0.51989
 Alpha  occ. eigenvalues --   -0.49568  -0.45224  -0.43224  -0.41539  -0.40228
 Alpha  occ. eigenvalues --   -0.39754  -0.38963  -0.38243  -0.37093  -0.36101
 Alpha  occ. eigenvalues --   -0.35392  -0.34726  -0.33770  -0.31957  -0.31247
 Alpha  occ. eigenvalues --   -0.30116  -0.29645  -0.28827  -0.28443  -0.26938
 Alpha  occ. eigenvalues --   -0.26458  -0.24710  -0.24106  -0.22606  -0.21178
 Alpha  occ. eigenvalues --   -0.20664  -0.19472  -0.16728  -0.15551  -0.14604
 Alpha  occ. eigenvalues --   -0.11971   0.04328
 Alpha virt. eigenvalues --    0.06357   0.06680   0.07445   0.07613   0.08207
 Alpha virt. eigenvalues --    0.08306   0.09263   0.09606   0.09925   0.10196
 Alpha virt. eigenvalues --    0.10642   0.11219   0.11529   0.11828   0.12236

  Beta  occ. eigenvalues --  -19.03034 -14.25805 -14.24493 -14.23217 -14.19827
  Beta  occ. eigenvalues --  -14.19555 -10.17048 -10.15675 -10.12214 -10.11860
  Beta  occ. eigenvalues --  -10.11750 -10.11009 -10.07092 -10.07017 -10.06567
  Beta  occ. eigenvalues --  -10.06448  -0.94386  -0.92248  -0.87655  -0.83680
  Beta  occ. eigenvalues --   -0.77925  -0.72258  -0.69164  -0.66681  -0.64477
  Beta  occ. eigenvalues --   -0.61328  -0.58296  -0.54513  -0.53851  -0.51949
  Beta  occ. eigenvalues --   -0.49514  -0.45193  -0.43199  -0.41527  -0.40206
  Beta  occ. eigenvalues --   -0.39726  -0.38945  -0.38221  -0.37069  -0.36038
  Beta  occ. eigenvalues --   -0.35337  -0.34705  -0.33746  -0.31931  -0.31226
  Beta  occ. eigenvalues --   -0.30084  -0.29609  -0.28792  -0.28405  -0.26910
  Beta  occ. eigenvalues --   -0.26435  -0.24665  -0.24078  -0.22578  -0.21160
  Beta  occ. eigenvalues --   -0.20651  -0.19461  -0.16720  -0.15537  -0.14589
  Beta  occ. eigenvalues --   -0.11946
  Beta virt. eigenvalues --    0.06245   0.06984   0.07295   0.07621   0.07821
  Beta virt. eigenvalues --    0.08465   0.09139   0.09341   0.09764   0.10057
  Beta virt. eigenvalues --    0.10673   0.10951   0.11538   0.11666   0.11984

 Mulliken charges and spin densities:
               1          2
     1  C    3.062797  -3.676715
     2  C   -0.810140   0.843884
     3  C   -0.008909  -0.255454
     4  C    0.670605  -0.712566
     5  N   -0.182149  -0.021669
     6  C   -0.950687   0.749885
     7  N   -0.332113   0.159141
     8  N   -0.125451  -0.049004
     9  N   -0.268251   0.025496
    10  N   -0.137626   0.201364
    11  C   -0.831566   0.878656
    12  C    0.917504  -1.473631
    13  C    0.313340  -0.707478
    14  C   -0.598152   0.290666
    15  O   -0.102142   0.011752
    16  C   -0.231323  -0.136112
    17  H   -0.078948   0.227305
    18  H   -0.091629   0.244605
    19  H   -0.201014   0.369630
    20  H   -1.429199   1.590126
    21  H    0.276796   0.033005
    22  H    0.177407   0.071958
    23  H    0.168659   0.066315
    24  H    0.042971   0.275556
    25  H    0.326466  -0.087760
    26  H   -0.379732   0.537470
    27  H   -0.045142   0.179699
    28  H   -0.198392   0.357344
    29  H    0.119457   0.043620
    30  H   -0.275819   0.435277
    31  H   -0.193378   0.347893
    32  H    0.145331  -0.030072
    33  H    0.026877   0.080372
    34  H    0.159305   0.065041
    35  H    0.064249   0.064403
 Sum of Mulliken charges =  -1.00000   1.00000

 Dipole moment (field-independent basis, Debye):
    X=             -0.8565    Y=              7.8000    Z=              1.7211  Tot=              8.0335
 Quadrupole moment (field-independent basis, Debye-Ang):
   XX=           -163.0918   YY=           -165.1672   ZZ=           -129.7550
   XY=              4.6962   XZ=             -0.0324   YZ=             -7.6462

 Summary of Natural Population Analysis:

                                       Natural Population
                Natural  -----------------------------------------------
    Atom  No    Charge         Core      Valence    Rydberg      Total
 -----------------------------------------------------------------------
      C    1   -0.29653      0.99963     2.29121    0.00569     3.29653
      C    2    0.12999      0.99955     1.85649    0.01398     2.87001
      C    3   -0.17641      0.99945     2.16720    0.00976     3.17641
      C    4    0.22840      0.99954     1.75599    0.01606     2.77160
      N    5   -0.30347      0.99963     2.79400    0.00984     3.80347
      C    6    0.29952      0.99959     1.68207    0.01881     2.70048
      N    7   -0.31315      0.99964     2.80142    0.01210     3.81315
      N    8   -0.22855      0.99965     2.71648    0.01242     3.72855
      N    9   -0.31775      0.99978     2.80808    0.00989     3.81775
      N   10   -0.30317      0.99965     2.79037    0.01315     3.80317
      C   11   -0.01819      0.99958     2.00588    0.01272     3.01819
      C   12   -0.28465      0.99964     2.27949    0.00552     3.28465
      C   13   -0.19882      0.99959     2.18896    0.01027     3.19882
      C   14   -0.00877      0.99958     1.99664    0.01255     3.00877
      O   15   -0.30016      0.99988     3.29127    0.00900     4.30016
      C   16   -0.09779      0.99962     2.08968    0.00849     3.09779
      H   17    0.10637      0.00000     0.39224    0.00139     0.39363
      H   18    0.10672      0.00000     0.39187    0.00141     0.39328
      H   19    0.10409      0.00000     0.39458    0.00133     0.39591
      H   20    0.11154      0.00000     0.38575    0.00271     0.38846
      H   21    0.18778      0.00000     0.30973    0.00249     0.31222
      H   22    0.17186      0.00000     0.32587    0.00227     0.32814
      H   23    0.17522      0.00000     0.32234    0.00244     0.32478
      H   24    0.19822      0.00000     0.29222    0.00956     0.30178
      H   25    0.11301      0.00000     0.38389    0.00310     0.38699
      H   26    0.10085      0.00000     0.39744    0.00170     0.39915
      H   27    0.09928      0.00000     0.39989    0.00082     0.40072
      H   28    0.10272      0.00000     0.39635    0.00093     0.39728
      H   29    0.09952      0.00000     0.39910    0.00138     0.40048
      H   30    0.10284      0.00000     0.39566    0.00151     0.39716
      H   31    0.07802      0.00000     0.42078    0.00119     0.42198
      H   32    0.08518      0.00000     0.41277    0.00205     0.41482
      H   33    0.07295      0.00000     0.42566    0.00139     0.42705
      H   34    0.08771      0.00000     0.41059    0.00170     0.41229
      H   35    0.08560      0.00000     0.41348    0.00092     0.41440
 =======================================================================
   * Total *   -0.00000     15.99401    44.78545    0.22054    61.00000

 Normal termination of Gaussian 16 at Mon Jan  4 10:56:25 2021.
