 Gaussian 16, Revision A.03,

 -----------------------------------------------------------
 # opt freq B3LYP/6-31G(d) empiricaldispersion=gd3bj scf=xqc
 -----------------------------------------------------------

 ----------------------------
 CID_90255795_JID_56_neutraal
 ----------------------------
 Symbolic Z-matrix:
 Charge =  0 Multiplicity = 1

 SCF Done:  E(RB3LYP) =  -831.201119337     A.U. after   15 cycles
 SCF Done:  E(RB3LYP) =  -831.205566630     A.U. after   13 cycles
 SCF Done:  E(RB3LYP) =  -831.206063051     A.U. after   11 cycles
 SCF Done:  E(RB3LYP) =  -831.206232832     A.U. after   12 cycles
 SCF Done:  E(RB3LYP) =  -831.206309768     A.U. after   12 cycles
 SCF Done:  E(RB3LYP) =  -831.206408214     A.U. after   11 cycles
 SCF Done:  E(RB3LYP) =  -831.206490490     A.U. after   11 cycles
 SCF Done:  E(RB3LYP) =  -831.206532101     A.U. after   11 cycles
 SCF Done:  E(RB3LYP) =  -831.206548965     A.U. after   10 cycles
 SCF Done:  E(RB3LYP) =  -831.206562423     A.U. after   11 cycles
 SCF Done:  E(RB3LYP) =  -831.206563610     A.U. after    9 cycles
 SCF Done:  E(RB3LYP) =  -831.206564620     A.U. after    9 cycles
 SCF Done:  E(RB3LYP) =  -831.206564895     A.U. after    8 cycles
 Optimization completed.
    -- Stationary point found.
 Normal termination of Gaussian 16 at Tue Dec  8 10:15:24 2020.

 --------------------------------------------------------------------
 #N Geom=AllCheck Guess=TCheck SCRF=Check GenChk RB3LYP/6-31G(d) Freq
 --------------------------------------------------------------------

 Structure from the checkpoint file:  "JID_56.chk"
 ----------------------------
 CID_90255795_JID_56_neutraal
 ----------------------------
 Charge =  0 Multiplicity = 1

 SCF Done:  E(RB3LYP) =  -831.206564895     A.U. after    1 cycles

  Exact polarizability: 123.321  -7.248  88.029   0.002   0.008  47.066
 Approx polarizability: 178.727 -12.776 178.081   0.009   0.008  73.337

                      1                      2                      3
                      A                      A                      A
 Frequencies --     53.7328                79.1781               120.1582
 Red. masses --      4.1645                 2.7436                 4.2445
 Frc consts  --      0.0071                 0.0101                 0.0361
 IR Inten    --      0.7425                 0.0522                 1.5603

                      4                      5                      6
                      A                      A                      A
 Frequencies --    132.6075               285.1485               336.1526
 Red. masses --      6.9195                 5.9982                10.0583
 Frc consts  --      0.0717                 0.2874                 0.6696
 IR Inten    --      2.7263                 7.4272                 0.2388

                      7                      8                      9
                      A                      A                      A
 Frequencies --    431.6154               528.6875               636.4881
 Red. masses --      9.1390                 6.9236                 4.0881
 Frc consts  --      1.0031                 1.1402                 0.9758
 IR Inten    --      2.5268                 0.5679                27.3184

                     10                     11                     12
                      A                      A                      A
 Frequencies --    680.8950               709.9741               741.4090
 Red. masses --     14.8156                 8.2744                10.1754
 Frc consts  --      4.0470                 2.4574                 3.2955
 IR Inten    --      0.7462                 1.7459                13.4000

                     13                     14                     15
                      A                      A                      A
 Frequencies --    763.7945               835.7774               875.1427
 Red. masses --      7.2051                 1.2078                11.4005
 Frc consts  --      2.4765                 0.4971                 5.1444
 IR Inten    --      9.6377                 0.3376                25.7960

                     16                     17                     18
                      A                      A                      A
 Frequencies --    911.3044               921.2474               962.9236
 Red. masses --      8.3423                 1.4212                 5.3874
 Frc consts  --      4.0819                 0.7106                 2.9432
 IR Inten    --      1.3942                 5.1223                20.1845

                     19                     20                     21
                      A                      A                      A
 Frequencies --    986.9622              1026.0198              1076.0910
 Red. masses --      4.1994                 5.4023                10.3573
 Frc consts  --      2.4101                 3.3507                 7.0663
 IR Inten    --     15.7556                14.2604               237.0427

                     22                     23                     24
                      A                      A                      A
 Frequencies --   1125.7357              1203.2041              1222.7259
 Red. masses --      1.6211                 3.3829                 1.1261
 Frc consts  --      1.2104                 2.8855                 0.9919
 IR Inten    --      0.0686                13.7665                 1.6391

                     25                     26                     27
                      A                      A                      A
 Frequencies --   1258.7086              1290.1465              1313.8883
 Red. masses --      1.0861                 2.2983                 1.7251
 Frc consts  --      1.0138                 2.2539                 1.7547
 IR Inten    --      0.0964                17.1876                13.4065

                     28                     29                     30
                      A                      A                      A
 Frequencies --   1358.7103              1396.1743              1461.4846
 Red. masses --      1.7732                 1.9768                 4.0903
 Frc consts  --      1.9287                 2.2704                 5.1474
 IR Inten    --     33.9007                21.9844                22.4951

                     31                     32                     33
                      A                      A                      A
 Frequencies --   1526.5535              1552.5857              1571.3959
 Red. masses --      1.1015                 1.1525                 5.9627
 Frc consts  --      1.5124                 1.6368                 8.6749
 IR Inten    --      1.6524                 2.5723                90.7850

                     34                     35                     36
                      A                      A                      A
 Frequencies --   1717.4550              3066.6003              3091.4163
 Red. masses --      9.7891                 1.0588                 1.0574
 Frc consts  --     17.0123                 5.8664                 5.9539
 IR Inten    --     64.3961                36.6691                44.6158

                     37                     38                     39
                      A                      A                      A
 Frequencies --   3097.3837              3141.7921              3240.8700
 Red. masses --      1.1093                 1.1127                 1.0935
 Frc consts  --      6.2702                 6.4710                 6.7672
 IR Inten    --      8.4897                31.0856                 8.9450

 - Thermochemistry -
 -------------------
 Temperature   298.150 Kelvin.  Pressure   1.00000 Atm.
 Atom     1 has atomic number  6 and mass  12.00000

 Molecular mass:   155.01533 amu.
 Principal axes and moments of inertia in atomic units:
                           1         2         3
     Eigenvalues --   534.185832381.808642893.31810
           X            0.99991  -0.01352  -0.00000
           Y            0.01352   0.99991   0.00002
           Z            0.00000  -0.00002   1.00000
 This molecule is an asymmetric top.
 Rotational symmetry number  1.
 Warning -- assumption of classical behavior for rotation
           may cause significant error
 Rotational temperatures (Kelvin)      0.16214     0.03636     0.02994
 Rotational constants (GHZ):           3.37849     0.75772     0.62376
 Zero-point vibrational energy     279520.3 (Joules/Mol)
                                   66.80695 (Kcal/Mol)
 Warning -- explicit consideration of   8 degrees of freedom as
           vibrations may cause significant error
 Vibrational temperatures:     77.31   113.92   172.88   190.79   410.27
          (Kelvin)            483.65   621.00   760.66   915.76   979.66
                             1021.49  1066.72  1098.93  1202.50  1259.14
                             1311.16  1325.47  1385.43  1420.02  1476.21
                             1548.25  1619.68  1731.14  1759.23  1811.00
                             1856.23  1890.39  1954.88  2008.78  2102.75
                             2196.37  2233.82  2260.89  2471.03  4412.15
                             4447.86  4456.44  4520.34  4662.89

 Zero-point correction=                           0.106464 (Hartree/Particle)
 Thermal correction to Energy=                    0.114623
 Thermal correction to Enthalpy=                  0.115567
 Thermal correction to Gibbs Free Energy=         0.071732
 Sum of electronic and zero-point Energies=           -831.100101
 Sum of electronic and thermal Energies=              -831.091942
 Sum of electronic and thermal Enthalpies=            -831.090998
 Sum of electronic and thermal Free Energies=         -831.134833

                     E (Thermal)             CV                S
                      KCal/Mol        Cal/Mol-Kelvin    Cal/Mol-Kelvin
 Total                   71.927             28.944             92.260
 Electronic               0.000              0.000              0.000
 Translational            0.889              2.981             41.025
 Rotational               0.889              2.981             29.688
 Vibrational             70.150             22.982             21.547
 Vibration     1          0.596              1.976              4.675
 Vibration     2          0.600              1.963              3.911
 Vibration     3          0.609              1.932              3.098
 Vibration     4          0.613              1.921              2.908
 Vibration     5          0.683              1.701              1.503
 Vibration     6          0.717              1.603              1.230
 Vibration     7          0.793              1.401              0.853
 Vibration     8          0.884              1.187              0.590

                           ! Non-Optimized Parameters !
 Normal termination of Gaussian 16 at Tue Dec  8 10:17:30 2020.

 ----------------------------------------------------------------------
 # B3LYP/6-311++G(d,p) empiricaldispersion=gd3bj scf=xqc pop=npa geom=c
 heck
 ----------------------------------------------------------------------

 ------------------------------------
 CID_90255795_JID_56_Energie_neutraal
 ------------------------------------
 Structure from the checkpoint file:  "JID_56.chk"
 Charge =  0 Multiplicity = 1

 SCF Done:  E(RB3LYP) =  -831.348699245     A.U. after   14 cycles
 Normal termination of Gaussian 16 at Tue Dec  8 10:18:14 2020.

 ----------------------------------------------------------------------
 # B3LYP/6-311++G(d,p) empiricaldispersion=gd3bj scf=xqc pop=npa geom=c
 heck
 ----------------------------------------------------------------------

 ----------------------------------
 CID_90255795_JID_56_Energie_kation
 ----------------------------------
 Structure from the checkpoint file:  "JID_56.chk"
 Charge =  1 Multiplicity = 2

 SCF Done:  E(UB3LYP) =  -831.010821917     A.U. after   21 cycles
 Normal termination of Gaussian 16 at Tue Dec  8 10:19:32 2020.
 Gaussian 16:  ES64L-G16RevA.03 25-Dec-2016

 ----------------------------------------------------------------------
 # B3LYP/6-311++G(d,p) empiricaldispersion=gd3bj scf=xqc pop=npa geom=c
 heck
 ----------------------------------------------------------------------

 ---------------------------------
 CID_90255795_JID_56_Energie_anion
 ---------------------------------
 Structure from the checkpoint file:  "JID_56.chk"
 Charge = -1 Multiplicity = 2

                         Standard orientation:
 ---------------------------------------------------------------------
 Center     Atomic      Atomic             Coordinates (Angstroms)
 Number     Number       Type             X           Y           Z
 ---------------------------------------------------------------------
      1          6           0        2.897544   -0.844829    0.000216
      2          6           0        3.017055    0.703433   -0.000043
      3          8           0        1.637158    1.161488   -0.001161
      4          6           0        0.883260    0.035807    0.000097
      5          7           0        1.451079   -1.108393    0.001004
      6          6           0       -0.568851    0.204344    0.000094
      7          7           0       -1.206526    1.349087    0.000548
      8          6           0       -2.551122    1.089732    0.000437
      9          7           0       -2.989220   -0.150433   -0.000047
     10         16           0       -1.650453   -1.160823   -0.000481
     11          1           0        3.354098   -1.304439   -0.883189
     12          1           0        3.355115   -1.304074    0.883255
     13          1           0        3.501879    1.107782    0.892018
     14          1           0        3.503253    1.107768   -0.891321
     15          1           0       -3.259010    1.911484    0.000884
 ---------------------------------------------------------------------

 SCF Done:  E(UB3LYP) =  -831.370803598     A.U. after   19 cycles

 The electronic state is 2-A.
 Alpha  occ. eigenvalues --  -88.71264 -19.01170 -14.14689 -14.13531 -14.12918
 Alpha  occ. eigenvalues --  -10.10588 -10.09369 -10.07305 -10.06136 -10.04711
 Alpha  occ. eigenvalues --   -7.79795  -5.76179  -5.75710  -5.75370  -0.94501
 Alpha  occ. eigenvalues --   -0.82815  -0.75386  -0.70096  -0.63902  -0.59075
 Alpha  occ. eigenvalues --   -0.50496  -0.48215  -0.42408  -0.39181  -0.37315
 Alpha  occ. eigenvalues --   -0.34993  -0.31326  -0.30728  -0.27596  -0.27281
 Alpha  occ. eigenvalues --   -0.25141  -0.23279  -0.22476  -0.20907  -0.14345
 Alpha  occ. eigenvalues --   -0.13995  -0.13282  -0.12296  -0.10944  -0.09348
 Alpha  occ. eigenvalues --    0.04585
 Alpha virt. eigenvalues --    0.08343   0.10633   0.10794   0.11393   0.13544
 Alpha virt. eigenvalues --    0.13677   0.14900   0.16050   0.16721   0.17658
 Alpha virt. eigenvalues --    0.17740   0.18270   0.18505   0.19706   0.20690

  Beta  occ. eigenvalues --  -88.71175 -19.01120 -14.14213 -14.13298 -14.12519
  Beta  occ. eigenvalues --  -10.10591 -10.09227 -10.07328 -10.06202 -10.04292
  Beta  occ. eigenvalues --   -7.79716  -5.76142  -5.75675  -5.75071  -0.94340
  Beta  occ. eigenvalues --   -0.82286  -0.74807  -0.69313  -0.63602  -0.58677
  Beta  occ. eigenvalues --   -0.50421  -0.47413  -0.42080  -0.38893  -0.37084
  Beta  occ. eigenvalues --   -0.34753  -0.31145  -0.30466  -0.27304  -0.25814
  Beta  occ. eigenvalues --   -0.24708  -0.22410  -0.22336  -0.20466  -0.13749
  Beta  occ. eigenvalues --   -0.12812  -0.11907  -0.10834  -0.10577  -0.07522
  Beta virt. eigenvalues --    0.08311   0.10587   0.10600   0.11362   0.11669
  Beta virt. eigenvalues --    0.13510   0.13654   0.14958   0.16728   0.16775
  Beta virt. eigenvalues --    0.17676   0.17762   0.18520   0.18823   0.19769

 Mulliken charges and spin densities:
               1          2
     1  C   -0.161993  -0.025345
     2  C   -0.077875   0.002203
     3  O   -0.108079   0.007265
     4  C   -0.161638   0.092347
     5  N   -0.151024   0.189537
     6  C   -0.225557   0.209293
     7  N   -0.168700   0.121436
     8  C   -0.107057  -0.021848
     9  N   -0.275746   0.192247
    10  S   -0.098651   0.190190
    11  H    0.095121   0.017794
    12  H    0.095246   0.017750
    13  H    0.113219   0.003406
    14  H    0.113290   0.003389
    15  H    0.119445   0.000337
 Sum of Mulliken charges =  -1.00000   1.00000

 Dipole moment (field-independent basis, Debye):
    X=              5.3232    Y=              0.6445    Z=             -0.0010  Tot=              5.3621
 Quadrupole moment (field-independent basis, Debye-Ang):
   XX=            -86.8097   YY=            -81.7114   ZZ=            -69.8718
   XY=             -1.1211   XZ=             -0.0016   YZ=              0.0054

 Summary of Natural Population Analysis:

                                       Natural Population
                Natural  -----------------------------------------------
    Atom  No    Charge         Core      Valence    Rydberg      Total
 -----------------------------------------------------------------------
      C    1   -0.11828      0.99966     2.10916    0.00945     3.11828
      C    2   -0.02444      0.99962     2.01601    0.00881     3.02444
      O    3   -0.27261      0.99987     3.26190    0.01084     4.27261
      C    4    0.27696      0.99950     1.70437    0.01917     2.72304
      N    5   -0.21236      0.99967     2.70250    0.01018     3.71236
      C    6    0.06571      0.99957     1.91676    0.01796     2.93429
      N    7   -0.22487      0.99966     2.71389    0.01132     3.72487
      C    8    0.07332      0.99970     1.90540    0.02158     2.92668
      N    9   -0.27020      0.99974     2.75726    0.01320     3.77020
      S   10    0.29390      4.99947     2.67591    0.03071     7.70610
      H   11    0.08728      0.00000     0.41122    0.00150     0.41272
      H   12    0.08729      0.00000     0.41121    0.00150     0.41271
      H   13    0.07992      0.00000     0.41873    0.00135     0.42008
      H   14    0.07995      0.00000     0.41870    0.00135     0.42005
      H   15    0.07842      0.00000     0.42023    0.00135     0.42158
 =======================================================================
   * Total *   -0.00000     13.99646    25.84326    0.16028    40.00000

 Normal termination of Gaussian 16 at Tue Dec  8 10:20:44 2020.
