 Gaussian 16, Revision A.03,

 -----------------------------------------------------------
 # opt freq B3LYP/6-31G(d) empiricaldispersion=gd3bj scf=xqc
 -----------------------------------------------------------

 ------------------------------
 CID_130000892_JID_366_neutraal
 ------------------------------
 Symbolic Z-matrix:
 Charge =  0 Multiplicity = 1

 SCF Done:  E(RB3LYP) =  -456.270612433     A.U. after   15 cycles
 SCF Done:  E(RB3LYP) =  -456.272777538     A.U. after   13 cycles
 SCF Done:  E(RB3LYP) =  -456.273182623     A.U. after   12 cycles
 SCF Done:  E(RB3LYP) =  -456.273367116     A.U. after   12 cycles
 SCF Done:  E(RB3LYP) =  -456.273449423     A.U. after   12 cycles
 SCF Done:  E(RB3LYP) =  -456.273504884     A.U. after   11 cycles
 SCF Done:  E(RB3LYP) =  -456.273561099     A.U. after   11 cycles
 SCF Done:  E(RB3LYP) =  -456.273564787     A.U. after    9 cycles
 SCF Done:  E(RB3LYP) =  -456.273565609     A.U. after    8 cycles
 Optimization completed.
    -- Stationary point found.
 Normal termination of Gaussian 16 at Tue Dec  8 10:28:08 2020.

 --------------------------------------------------------------------
 #N Geom=AllCheck Guess=TCheck SCRF=Check GenChk RB3LYP/6-31G(d) Freq
 --------------------------------------------------------------------

 Structure from the checkpoint file:  "JID_366.chk"
 ------------------------------
 CID_130000892_JID_366_neutraal
 ------------------------------
 Charge =  0 Multiplicity = 1

 SCF Done:  E(RB3LYP) =  -456.273565610     A.U. after    1 cycles

  Exact polarizability: 119.544   6.743  79.473   3.172   2.774  50.377
 Approx polarizability: 173.436  25.665 131.867   8.994   9.445  75.519

                      1                      2                      3
                      A                      A                      A
 Frequencies --     45.4574               105.5568               118.4227
 Red. masses --      3.8524                 4.6124                 5.9051
 Frc consts  --      0.0047                 0.0303                 0.0488
 IR Inten    --      0.5843                 2.5287                 5.6825

                      4                      5                      6
                      A                      A                      A
 Frequencies --    194.2802               224.7298               256.4906
 Red. masses --      5.9191                 3.6772                 1.0936
 Frc consts  --      0.1316                 0.1094                 0.0424
 IR Inten    --      1.3963                 0.7159                 1.6875

                      7                      8                      9
                      A                      A                      A
 Frequencies --    298.9628               334.5176               416.9831
 Red. masses --      1.1643                 3.0037                 4.1461
 Frc consts  --      0.0613                 0.1980                 0.4247
 IR Inten    --     42.4027                12.2854                 6.5162

                     10                     11                     12
                      A                      A                      A
 Frequencies --    487.3530               508.3223               543.4076
 Red. masses --      3.1950                 7.0825                 5.4975
 Frc consts  --      0.4471                 1.0782                 0.9565
 IR Inten    --     11.6310                 1.1607                 3.8545

                     13                     14                     15
                      A                      A                      A
 Frequencies --    568.9622               640.6535               666.0849
 Red. masses --      6.6854                 3.0932                 4.7384
 Frc consts  --      1.2751                 0.7480                 1.2386
 IR Inten    --      1.2855                12.9202                 0.5244

                     16                     17                     18
                      A                      A                      A
 Frequencies --    730.8966               774.4787               836.3367
 Red. masses --      2.9345                 1.5214                 1.3720
 Frc consts  --      0.9236                 0.5377                 0.5654
 IR Inten    --      6.9007                10.4286                19.3726

                     19                     20                     21
                      A                      A                      A
 Frequencies --    900.5438               933.1366               952.1999
 Red. masses --      2.8289                 1.6696                 2.7480
 Frc consts  --      1.3517                 0.8565                 1.4680
 IR Inten    --    102.3610                88.2301                64.3443

                     22                     23                     24
                      A                      A                      A
 Frequencies --   1008.7123              1027.0451              1076.5248
 Red. masses --      5.2874                 1.3583                 1.5054
 Frc consts  --      3.1697                 0.8441                 1.0279
 IR Inten    --      3.7643                 2.5302                42.8719

                     25                     26                     27
                      A                      A                      A
 Frequencies --   1152.1837              1171.1555              1194.9144
 Red. masses --      2.1346                 2.0609                 4.2385
 Frc consts  --      1.6696                 1.6655                 3.5656
 IR Inten    --      8.7127                18.4470                37.7575

                     28                     29                     30
                      A                      A                      A
 Frequencies --   1208.5343              1272.4483              1298.4247
 Red. masses --      1.8665                 1.4911                 2.0298
 Frc consts  --      1.6062                 1.4225                 2.0162
 IR Inten    --     10.3595                 3.4640                 4.1361

                     31                     32                     33
                      A                      A                      A
 Frequencies --   1361.8857              1398.9315              1416.6414
 Red. masses --      2.7926                 2.3741                 1.2388
 Frc consts  --      3.0516                 2.7374                 1.4648
 IR Inten    --     44.3624                 9.4386                 2.0878

                     34                     35                     36
                      A                      A                      A
 Frequencies --   1440.3398              1522.0164              1530.0819
 Red. masses --      1.3515                 1.0467                 1.0547
 Frc consts  --      1.6519                 1.4286                 1.4548
 IR Inten    --      8.0986                 5.5054                 3.1824

                     37                     38                     39
                      A                      A                      A
 Frequencies --   1581.6091              1645.6262              1700.4633
 Red. masses --      5.7198                 6.6720                 1.0920
 Frc consts  --      8.4300                10.6456                 1.8603
 IR Inten    --     22.1613                 0.6439                23.9068

                     40                     41                     42
                      A                      A                      A
 Frequencies --   2359.3200              3044.5598              3057.9571
 Red. masses --     12.6598                 1.0817                 1.0411
 Frc consts  --     41.5193                 5.9074                 5.7362
 IR Inten    --     44.7896                13.8022                19.0405

                     43                     44                     45
                      A                      A                      A
 Frequencies --   3124.5864              3156.2371              3292.7312
 Red. masses --      1.0990                 1.1024                 1.0973
 Frc consts  --      6.3216                 6.4703                 7.0094
 IR Inten    --     26.5086                15.8593                 2.0511

                     46                     47                     48
                      A                      A                      A
 Frequencies --   3307.9343              3455.2937              3544.4126
 Red. masses --      1.0993                 1.0502                 1.0916
 Frc consts  --      7.0872                 7.3874                 8.0797
 IR Inten    --      1.0351                 0.5426                 0.1373

 - Thermochemistry -
 -------------------
 Temperature   298.150 Kelvin.  Pressure   1.00000 Atm.
 Atom     1 has atomic number  6 and mass  12.00000

 Molecular mass:   136.06366 amu.
 Principal axes and moments of inertia in atomic units:
                           1         2         3
     Eigenvalues --   526.610932489.288582861.23516
           X            0.99976  -0.02182  -0.00262
           Y            0.02178   0.99964  -0.01583
           Z            0.00296   0.01577   0.99987
 This molecule is an asymmetric top.
 Rotational symmetry number  1.
 Warning -- assumption of classical behavior for rotation
           may cause significant error
 Rotational temperatures (Kelvin)      0.16447     0.03479     0.03027
 Rotational constants (GHZ):           3.42709     0.72500     0.63076
 Zero-point vibrational energy     376155.8 (Joules/Mol)
                                   89.90341 (Kcal/Mol)
 Warning -- explicit consideration of  13 degrees of freedom as
           vibrations may cause significant error
 Vibrational temperatures:     65.40   151.87   170.38   279.53   323.34
          (Kelvin)            369.03   430.14   481.30   599.95   701.19
                              731.36   781.84   818.61   921.76   958.35
                             1051.60  1114.30  1203.30  1295.68  1342.58
                             1370.00  1451.31  1477.69  1548.88  1657.74
                             1685.03  1719.22  1738.81  1830.77  1868.14
                             1959.45  2012.75  2038.23  2072.33  2189.84
                             2201.45  2275.58  2367.69  2446.59  3394.54
                             4380.44  4399.72  4495.58  4541.12  4737.51
                             4759.38  4971.40  5099.62

 Zero-point correction=                           0.143270 (Hartree/Particle)
 Thermal correction to Energy=                    0.152764
 Thermal correction to Enthalpy=                  0.153709
 Thermal correction to Gibbs Free Energy=         0.108118
 Sum of electronic and zero-point Energies=           -456.130295
 Sum of electronic and thermal Energies=              -456.120801
 Sum of electronic and thermal Enthalpies=            -456.119857
 Sum of electronic and thermal Free Energies=         -456.165448

                     E (Thermal)             CV                S
                      KCal/Mol        Cal/Mol-Kelvin    Cal/Mol-Kelvin
 Total                   95.861             34.883             95.953
 Electronic               0.000              0.000              0.000
 Translational            0.889              2.981             40.636
 Rotational               0.889              2.981             29.707
 Vibrational             94.084             28.922             25.610
 Vibration     1          0.595              1.979              5.006
 Vibration     2          0.605              1.945              3.349
 Vibration     3          0.609              1.934              3.126
 Vibration     4          0.635              1.848              2.187
 Vibration     5          0.649              1.803              1.921
 Vibration     6          0.666              1.752              1.686
 Vibration     7          0.692              1.676              1.423
 Vibration     8          0.716              1.607              1.238
 Vibration     9          0.780              1.433              0.902
 Vibration    10          0.843              1.278              0.691
 Vibration    11          0.863              1.232              0.638
 Vibration    12          0.899              1.154              0.558
 Vibration    13          0.925              1.098              0.506

 Optimization completed.
    -- Stationary point found.
 Normal termination of Gaussian 16 at Tue Dec  8 10:30:57 2020.

 ----------------------------------------------------------------------
 # B3LYP/6-311++G(d,p) empiricaldispersion=gd3bj scf=xqc pop=npa geom=c
 heck
 ----------------------------------------------------------------------

 --------------------------------------
 CID_130000892_JID_366_Energie_neutraal
 --------------------------------------
 Structure from the checkpoint file:  "JID_366.chk"
 Charge =  0 Multiplicity = 1

 SCF Done:  E(RB3LYP) =  -456.407351923     A.U. after   16 cycles
 Normal termination of Gaussian 16 at Tue Dec  8 10:32:47 2020.

 ----------------------------------------------------------------------
 # B3LYP/6-311++G(d,p) empiricaldispersion=gd3bj scf=xqc pop=npa geom=c
 heck
 ----------------------------------------------------------------------

 ------------------------------------
 CID_130000892_JID_366_Energie_kation
 ------------------------------------
 Structure from the checkpoint file:  "JID_366.chk"
 Charge =  1 Multiplicity = 2

 SCF Done:  E(UB3LYP) =  -456.082192735     A.U. after   24 cycles
 Normal termination of Gaussian 16 at Tue Dec  8 10:37:30 2020.
 Gaussian 16:  ES64L-G16RevA.03 25-Dec-2016

 ----------------------------------------------------------------------
 # B3LYP/6-311++G(d,p) empiricaldispersion=gd3bj scf=xqc pop=npa geom=c
 heck
 ----------------------------------------------------------------------

 -----------------------------------
 CID_130000892_JID_366_Energie_anion
 -----------------------------------
 Structure from the checkpoint file:  "JID_366.chk"
 Charge = -1 Multiplicity = 2

                         Standard orientation:
 ---------------------------------------------------------------------
 Center     Atomic      Atomic             Coordinates (Angstroms)
 Number     Number       Type             X           Y           Z
 ---------------------------------------------------------------------
      1          6           0       -2.524457    1.529527   -0.231176
      2          6           0       -2.113632    0.058441   -0.278055
      3          6           0       -0.619220   -0.088155   -0.222388
      4          6           0        0.424160    0.761023   -0.018020
      5          6           0        1.620077   -0.048104   -0.022444
      6          6           0        1.207035   -1.336916   -0.229882
      7          8           0       -0.139458   -1.376381   -0.351834
      8          6           0        2.959188    0.390944    0.150415
      9          7           0        4.052282    0.762249    0.294396
     10          7           0       -2.813127   -0.683577    0.784909
     11          1           0       -2.200442    1.993871    0.708117
     12          1           0       -3.612950    1.601521   -0.287574
     13          1           0       -2.084359    2.092418   -1.060102
     14          1           0       -2.457490   -0.371925   -1.228034
     15          1           0        0.378653    1.831002    0.115928
     16          1           0        1.734028   -2.274533   -0.311770
     17          1           0       -2.547398   -1.666596    0.740903
     18          1           0       -2.487370   -0.345974    1.691371
 ---------------------------------------------------------------------

 SCF Done:  E(UB3LYP) =  -456.400052034     A.U. after   33 cycles
 SCF Done:  E(UB3LYP) =  -456.400052034     a.u. after    1 cycles

 The electronic state is 2-A.
 Alpha  occ. eigenvalues --  -19.06705 -14.18631 -14.18248 -10.10840 -10.10470
 Alpha  occ. eigenvalues --  -10.10123 -10.09034 -10.08090 -10.06483 -10.05507
 Alpha  occ. eigenvalues --   -0.99768  -0.78600  -0.78166  -0.70164  -0.65904
 Alpha  occ. eigenvalues --   -0.61480  -0.53741  -0.50870  -0.46282  -0.42957
 Alpha  occ. eigenvalues --   -0.38754  -0.36074  -0.34827  -0.33980  -0.31811
 Alpha  occ. eigenvalues --   -0.30520  -0.27628  -0.26874  -0.26353  -0.25239
 Alpha  occ. eigenvalues --   -0.24892  -0.24432  -0.21300  -0.16632  -0.14787
 Alpha  occ. eigenvalues --   -0.11781   0.04982
 Alpha virt. eigenvalues --    0.07463   0.08460   0.08984   0.09332   0.10320
 Alpha virt. eigenvalues --    0.11858   0.12368   0.12397   0.13070   0.13998
 Alpha virt. eigenvalues --    0.14564   0.15133   0.16172   0.16728   0.17972

  Beta  occ. eigenvalues --  -19.06467 -14.18539 -14.18197 -10.10787 -10.10125
  Beta  occ. eigenvalues --  -10.10111 -10.09001 -10.08077 -10.06499 -10.05474
  Beta  occ. eigenvalues --   -0.99364  -0.78451  -0.78061  -0.70001  -0.65666
  Beta  occ. eigenvalues --   -0.61297  -0.53593  -0.50500  -0.46141  -0.42766
  Beta  occ. eigenvalues --   -0.38619  -0.35850  -0.34122  -0.33886  -0.31507
  Beta  occ. eigenvalues --   -0.30418  -0.27467  -0.26773  -0.26266  -0.24908
  Beta  occ. eigenvalues --   -0.24699  -0.24132  -0.21213  -0.16152  -0.14564
  Beta  occ. eigenvalues --   -0.10822
  Beta virt. eigenvalues --    0.07640   0.08889   0.09488   0.09636   0.10120
  Beta virt. eigenvalues --    0.10698   0.12274   0.12523   0.12903   0.13461
  Beta virt. eigenvalues --    0.14124   0.14672   0.15145   0.16145   0.16765

 Mulliken charges and spin densities:
               1          2
     1  C    0.937956  -1.479994
     2  C   -0.550642   0.100136
     3  C    1.578043  -1.427952
     4  C   -1.796284   1.805097
     5  C    3.029836  -1.357138
     6  C   -0.942423   1.075066
     7  O   -0.028289   0.062071
     8  C   -1.221701  -0.705703
     9  N   -0.279955   0.052565
    10  N   -0.257964  -0.006720
    11  H   -0.176082   0.324472
    12  H   -0.383487   0.548390
    13  H   -0.011903   0.135981
    14  H   -0.352124   0.539195
    15  H   -0.185926   0.368117
    16  H   -0.197524   0.347352
    17  H   -0.166074   0.410375
    18  H    0.004543   0.208689
 Sum of Mulliken charges =  -1.00000   1.00000

 Dipole moment (field-independent basis, Debye):
    X=              0.3617    Y=             -0.2268    Z=             -1.2862  Tot=              1.3552
 Quadrupole moment (field-independent basis, Debye-Ang):
   XX=           -131.9888   YY=            -83.0970   ZZ=            -78.7034
   XY=             -5.6651   XZ=             -2.0922   YZ=              2.8597

 Summary of Natural Population Analysis:

                                       Natural Population
                Natural  -----------------------------------------------
    Atom  No    Charge         Core      Valence    Rydberg      Total
 -----------------------------------------------------------------------
      C    1   -0.28390      0.99966     2.27896    0.00528     3.28390
      C    2   -0.03636      0.99957     2.02440    0.01238     3.03636
      C    3    0.15459      0.99944     1.82967    0.01630     2.84541
      C    4   -0.14085      0.99946     2.13268    0.00871     3.14085
      C    5   -0.14695      0.99944     2.13850    0.00901     3.14695
      C    6    0.16034      0.99948     1.82536    0.01482     2.83966
      O    7   -0.21766      0.99986     3.20858    0.00922     4.21766
      C    8    0.16077      0.99963     1.82256    0.01704     2.83923
      N    9   -0.19083      0.99979     2.68078    0.01026     3.69083
      N   10   -0.41613      0.99978     2.90629    0.01006     3.91613
      H   11    0.09742      0.00000     0.40116    0.00142     0.40258
      H   12    0.10543      0.00000     0.39316    0.00141     0.39457
      H   13    0.10083      0.00000     0.39771    0.00146     0.39917
      H   14    0.09815      0.00000     0.39940    0.00245     0.40185
      H   15    0.11142      0.00000     0.38745    0.00112     0.38858
      H   16    0.09130      0.00000     0.40772    0.00098     0.40870
      H   17    0.17889      0.00000     0.31785    0.00326     0.32111
      H   18    0.17353      0.00000     0.32378    0.00269     0.32647
 =======================================================================
   * Total *    0.00000      9.99610    25.87600    0.12790    36.00000

 Normal termination of Gaussian 16 at Tue Dec  8 10:43:06 2020.
