 Gaussian 16, Revision A.03,

 -----------------------------------------------------------
 # opt freq B3LYP/6-31G(d) empiricaldispersion=gd3bj scf=xqc
 -----------------------------------------------------------

 ------------------------------
 CID_54963232_JID_7752_neutraal
 ------------------------------
 Symbolic Z-matrix:
 Charge =  0 Multiplicity = 1

 SCF Done:  E(RB3LYP) =  -751.414949375     A.U. after   15 cycles
 SCF Done:  E(RB3LYP) =  -751.418134985     A.U. after   12 cycles
 SCF Done:  E(RB3LYP) =  -751.417232391     A.U. after   12 cycles
 SCF Done:  E(RB3LYP) =  -751.418812274     A.U. after   12 cycles
 SCF Done:  E(RB3LYP) =  -751.419177613     A.U. after   11 cycles
 SCF Done:  E(RB3LYP) =  -751.419231249     A.U. after   13 cycles
 SCF Done:  E(RB3LYP) =  -751.419783126     A.U. after   12 cycles
 SCF Done:  E(RB3LYP) =  -751.420008608     A.U. after   12 cycles
 SCF Done:  E(RB3LYP) =  -751.420093920     A.U. after   11 cycles
 SCF Done:  E(RB3LYP) =  -751.420127052     A.U. after   11 cycles
 SCF Done:  E(RB3LYP) =  -751.420287565     A.U. after   10 cycles
 SCF Done:  E(RB3LYP) =  -751.420288607     A.U. after    9 cycles
 SCF Done:  E(RB3LYP) =  -751.420288739     A.U. after    8 cycles
 SCF Done:  E(RB3LYP) =  -751.420288787     A.U. after    7 cycles
 SCF Done:  E(RB3LYP) =  -751.420288812     A.U. after    7 cycles
 Optimization completed.
    -- Stationary point found.
 Normal termination of Gaussian 16 at Sun Dec 13 12:41:02 2020.

 --------------------------------------------------------------------
 #N Geom=AllCheck Guess=TCheck SCRF=Check GenChk RB3LYP/6-31G(d) Freq
 --------------------------------------------------------------------

 Structure from the checkpoint file:  "JID_7752.chk"
 ------------------------------
 CID_54963232_JID_7752_neutraal
 ------------------------------
 Charge =  0 Multiplicity = 1

 SCF Done:  E(RB3LYP) =  -751.420288812     A.U. after    1 cycles

  Exact polarizability: 199.608   3.348 167.557   0.049 -12.904 109.444
 Approx polarizability: 269.149   5.370 246.286  -8.397 -30.314 173.547

                      1                      2                      3
                      A                      A                      A
 Frequencies --     13.8219                29.1574                47.2692
 Red. masses --      4.5186                 4.8111                 3.2865
 Frc consts  --      0.0005                 0.0024                 0.0043
 IR Inten    --      0.7795                 0.5919                 0.1286

                      4                      5                      6
                      A                      A                      A
 Frequencies --     59.4167                70.4111                88.7587
 Red. masses --      4.1411                 3.1085                 3.2613
 Frc consts  --      0.0086                 0.0091                 0.0151
 IR Inten    --      0.3288                 0.0823                 0.0965

                      7                      8                      9
                      A                      A                      A
 Frequencies --    124.2640               129.8353               136.8163
 Red. masses --      2.6292                 2.5957                 1.1776
 Frc consts  --      0.0239                 0.0258                 0.0130
 IR Inten    --      0.7332                 0.1791                 0.1028

                     10                     11                     12
                      A                      A                      A
 Frequencies --    150.8760               185.5707               207.9814
 Red. masses --      2.4670                 2.3780                 3.4933
 Frc consts  --      0.0331                 0.0482                 0.0890
 IR Inten    --      0.5845                 1.2987                 1.6948

                     13                     14                     15
                      A                      A                      A
 Frequencies --    215.6164               246.6798               270.4779
 Red. masses --      2.1586                 1.4276                 3.1360
 Frc consts  --      0.0591                 0.0512                 0.1352
 IR Inten    --      1.2865                 0.3121                 0.8958

                     16                     17                     18
                      A                      A                      A
 Frequencies --    288.3882               294.0673               319.2348
 Red. masses --      2.6204                 1.3991                 3.2389
 Frc consts  --      0.1284                 0.0713                 0.1945
 IR Inten    --      7.0619                 3.0190                 6.1480

                     19                     20                     21
                      A                      A                      A
 Frequencies --    352.7295               359.6411               416.5144
 Red. masses --      3.5694                 2.9620                 2.2071
 Frc consts  --      0.2617                 0.2257                 0.2256
 IR Inten    --     10.3805                 7.7592                10.9548

                     22                     23                     24
                      A                      A                      A
 Frequencies --    461.4586               476.8108               502.5011
 Red. masses --      2.5444                 2.2263                 3.2165
 Frc consts  --      0.3192                 0.2982                 0.4785
 IR Inten    --     20.3937                43.9106                19.7073

                     25                     26                     27
                      A                      A                      A
 Frequencies --    540.3796               567.1717               592.7135
 Red. masses --      3.6947                 3.2858                 2.9969
 Frc consts  --      0.6357                 0.6228                 0.6203
 IR Inten    --     11.0089                18.1640                 1.8534

                     28                     29                     30
                      A                      A                      A
 Frequencies --    631.0805               690.1194               744.1316
 Red. masses --      3.3859                 3.3253                 2.5669
 Frc consts  --      0.7945                 0.9331                 0.8374
 IR Inten    --      9.0529                 2.5612                 2.0415

                     31                     32                     33
                      A                      A                      A
 Frequencies --    756.2483               762.1250               776.6626
 Red. masses --      2.1313                 1.4227                 6.2303
 Frc consts  --      0.7182                 0.4869                 2.2142
 IR Inten    --      3.9831                48.1615                 4.9231

                     34                     35                     36
                      A                      A                      A
 Frequencies --    822.2311               841.9131               857.7350
 Red. masses --      1.9665                 2.9674                 1.6845
 Frc consts  --      0.7833                 1.2393                 0.7302
 IR Inten    --      4.4576                 9.9302                 3.8554

                     37                     38                     39
                      A                      A                      A
 Frequencies --    870.3135               880.0287               908.4906
 Red. masses --      3.2331                 2.3017                 1.4730
 Frc consts  --      1.4428                 1.0502                 0.7163
 IR Inten    --      2.3902                 1.7877                 2.7200

                     40                     41                     42
                      A                      A                      A
 Frequencies --    921.1585               931.5574               951.3064
 Red. masses --      2.3961                 1.3639                 1.2619
 Frc consts  --      1.1979                 0.6974                 0.6728
 IR Inten    --      4.6980                 0.6400                 5.6159

                     43                     44                     45
                      A                      A                      A
 Frequencies --    965.4255              1005.0076              1052.2522
 Red. masses --      1.2324                 2.2749                 1.9969
 Frc consts  --      0.6768                 1.3538                 1.3027
 IR Inten    --      0.3542                 1.9272                 0.4497

                     46                     47                     48
                      A                      A                      A
 Frequencies --   1069.5467              1089.7793              1092.4466
 Red. masses --      1.8334                 2.4217                 3.1407
 Frc consts  --      1.2357                 1.6945                 2.2084
 IR Inten    --      3.1183                14.2834                97.8739

                     49                     50                     51
                      A                      A                      A
 Frequencies --   1111.4044              1117.8426              1131.2802
 Red. masses --      2.1450                 2.2777                 2.4387
 Frc consts  --      1.5611                 1.6769                 1.8388
 IR Inten    --      7.1152                30.5643                 3.2955

                     52                     53                     54
                      A                      A                      A
 Frequencies --   1161.5888              1179.9435              1186.4684
 Red. masses --      1.8006                 1.9982                 1.2774
 Frc consts  --      1.4315                 1.6391                 1.0595
 IR Inten    --      5.2726                11.6914                 1.0080

                     55                     56                     57
                      A                      A                      A
 Frequencies --   1198.3390              1218.3322              1219.0132
 Red. masses --      1.1588                 1.7020                 1.5782
 Frc consts  --      0.9804                 1.4885                 1.3818
 IR Inten    --      1.3094                 1.7552                 4.5469

                     58                     59                     60
                      A                      A                      A
 Frequencies --   1251.6397              1280.8625              1291.9727
 Red. masses --      1.4366                 1.3891                 2.5889
 Frc consts  --      1.3260                 1.3427                 2.5461
 IR Inten    --      3.2532               115.9590               142.4202

                     61                     62                     63
                      A                      A                      A
 Frequencies --   1302.4867              1310.1827              1325.5754
 Red. masses --      2.6649                 1.2443                 1.4457
 Frc consts  --      2.6636                 1.2585                 1.4967
 IR Inten    --    151.4818                 1.8806                19.4227

                     64                     65                     66
                      A                      A                      A
 Frequencies --   1349.9401              1363.9808              1382.2276
 Red. masses --      1.6008                 2.5132                 1.3256
 Frc consts  --      1.7187                 2.7549                 1.4922
 IR Inten    --     30.6351                16.7894                 2.0742

                     67                     68                     69
                      A                      A                      A
 Frequencies --   1386.6553              1395.2657              1413.4835
 Red. masses --      1.6268                 1.3708                 1.4680
 Frc consts  --      1.8430                 1.5723                 1.7281
 IR Inten    --      6.9883                 4.8661                 2.4138

                     70                     71                     72
                      A                      A                      A
 Frequencies --   1437.7891              1442.8665              1492.3986
 Red. masses --      1.2762                 1.2466                 1.2129
 Frc consts  --      1.5543                 1.5290                 1.5917
 IR Inten    --      2.1645                 7.8417                10.8791

                     73                     74                     75
                      A                      A                      A
 Frequencies --   1497.0963              1509.9739              1513.0076
 Red. masses --      1.7483                 1.6003                 1.0481
 Frc consts  --      2.3087                 2.1497                 1.4136
 IR Inten    --     30.6985                13.6230                 6.0270

                     76                     77                     78
                      A                      A                      A
 Frequencies --   1518.2407              1523.1320              1525.0752
 Red. masses --      1.1031                 1.0786                 1.0531
 Frc consts  --      1.4982                 1.4742                 1.4431
 IR Inten    --      1.0602                15.0749                 7.2899

                     79                     80                     81
                      A                      A                      A
 Frequencies --   1530.2451              1538.7929              1540.8062
 Red. masses --      1.0614                 1.0777                 1.0590
 Frc consts  --      1.4644                 1.5036                 1.4813
 IR Inten    --      4.6819                21.6639                 5.6314

                     82                     83                     84
                      A                      A                      A
 Frequencies --   1543.5799              1551.9967              1568.6241
 Red. masses --      1.3145                 1.0995                 1.7549
 Frc consts  --      1.8453                 1.5604                 2.5441
 IR Inten    --     35.1689                17.9948                98.4546

                     85                     86                     87
                      A                      A                      A
 Frequencies --   1645.9335              1668.2576              1831.4116
 Red. masses --      4.6372                 5.6833                11.0572
 Frc consts  --      7.4017                 9.3192                21.8509
 IR Inten    --     26.8236                50.2423               244.7000

                     88                     89                     90
                      A                      A                      A
 Frequencies --   2994.7798              3035.3006              3037.7286
 Red. masses --      1.0689                 1.0456                 1.0566
 Frc consts  --      5.6481                 5.6756                 5.7445
 IR Inten    --     42.3079                16.8540                45.0920

                     91                     92                     93
                      A                      A                      A
 Frequencies --   3044.5017              3059.7182              3067.3543
 Red. masses --      1.0624                 1.0349                 1.0923
 Frc consts  --      5.8021                 5.7084                 6.0551
 IR Inten    --     29.6607                18.1783                21.8968

                     94                     95                     96
                      A                      A                      A
 Frequencies --   3071.0591              3076.9323              3082.5246
 Red. masses --      1.0989                 1.0295                 1.1017
 Frc consts  --      6.1063                 5.7425                 6.1680
 IR Inten    --     27.1374                34.0843                24.5905

                     97                     98                     99
                      A                      A                      A
 Frequencies --   3100.8703              3103.2338              3120.7259
 Red. masses --      1.0867                 1.0977                 1.1026
 Frc consts  --      6.1567                 6.2279                 6.3265
 IR Inten    --     11.9184                56.6739                39.3864

                    100                    101                    102
                      A                      A                      A
 Frequencies --   3123.0969              3140.2337              3151.8041
 Red. masses --      1.1016                 1.1027                 1.1075
 Frc consts  --      6.3304                 6.4067                 6.4821
 IR Inten    --     36.2670                20.5034                20.0487

                    103                    104                    105
                      A                      A                      A
 Frequencies --   3167.4504              3184.0129              3185.4171
 Red. masses --      1.0876                 1.1073                 1.0876
 Frc consts  --      6.4291                 6.6139                 6.5023
 IR Inten    --     16.1337                15.5523                12.1689

                    106                    107                    108
                      A                      A                      A
 Frequencies --   3206.7447              3222.8780              3624.4264
 Red. masses --      1.0946                 1.0920                 1.0738
 Frc consts  --      6.6317                 6.6830                 8.3110
 IR Inten    --     36.5363                15.7125                16.7880

 - Thermochemistry -
 -------------------
 Temperature   298.150 Kelvin.  Pressure   1.00000 Atm.
 Atom     1 has atomic number  6 and mass  12.00000

 Molecular mass:   235.15723 amu.
 Principal axes and moments of inertia in atomic units:
                           1         2         3
     Eigenvalues --  2348.546468015.916789475.41364
           X            0.99989  -0.01336   0.00578
           Y            0.01334   0.99991   0.00245
           Z           -0.00581  -0.00238   0.99998
 This molecule is an asymmetric top.
 Rotational symmetry number  1.
 Warning -- assumption of classical behavior for rotation
           may cause significant error
 Rotational temperatures (Kelvin)      0.03688     0.01081     0.00914
 Rotational constants (GHZ):           0.76845     0.22514     0.19047
 Zero-point vibrational energy     873433.2 (Joules/Mol)
                                  208.75555 (Kcal/Mol)
 Warning -- explicit consideration of  27 degrees of freedom as
           vibrations may cause significant error
 Vibrational temperatures:     19.89    41.95    68.01    85.49   101.31
          (Kelvin)            127.70   178.79   186.80   196.85   217.08
                              266.99   299.24   310.22   354.92   389.16
                              414.93   423.10   459.31   507.50   517.44
                              599.27   663.94   686.02   722.99   777.49
                              816.03   852.78   907.98   992.93  1070.64
                             1088.07  1096.53  1117.44  1183.01  1211.33
                             1234.09  1252.19  1266.17  1307.12  1325.34
                             1340.30  1368.72  1389.03  1445.98  1513.96
                             1538.84  1567.95  1571.79  1599.06  1608.33
                             1627.66  1671.27  1697.68  1707.06  1724.14
                             1752.91  1753.89  1800.83  1842.88  1858.86
                             1873.99  1885.06  1907.21  1942.26  1962.46
                             1988.72  1995.09  2007.48  2033.69  2068.66
                             2075.96  2147.23  2153.99  2172.52  2176.88
                             2184.41  2191.45  2194.24  2201.68  2213.98
                             2216.88  2220.87  2232.98  2256.90  2368.13
                             2400.25  2634.99  4308.82  4367.12  4370.61
                             4380.36  4402.25  4413.24  4418.57  4427.02
                             4435.07  4461.46  4464.86  4490.03  4493.44
                             4518.10  4534.74  4557.25  4581.08  4583.10
                             4613.79  4637.00  5214.74

 Zero-point correction=                           0.332673 (Hartree/Particle)
 Thermal correction to Energy=                    0.351011
 Thermal correction to Enthalpy=                  0.351955
 Thermal correction to Gibbs Free Energy=         0.284029
 Sum of electronic and zero-point Energies=           -751.087616
 Sum of electronic and thermal Energies=              -751.069278
 Sum of electronic and thermal Enthalpies=            -751.068334
 Sum of electronic and thermal Free Energies=         -751.136260

                     E (Thermal)             CV                S
                      KCal/Mol        Cal/Mol-Kelvin    Cal/Mol-Kelvin
 Total                  220.263             67.431            142.962
 Electronic               0.000              0.000              0.000
 Translational            0.889              2.981             42.267
 Rotational               0.889              2.981             33.544
 Vibrational            218.485             61.470             67.151
 Vibration     1          0.593              1.986              7.368
 Vibration     2          0.593              1.984              5.886
 Vibration     3          0.595              1.979              4.928
 Vibration     4          0.597              1.974              4.476
 Vibration     5          0.598              1.968              4.142
 Vibration     6          0.602              1.957              3.687
 Vibration     7          0.610              1.929              3.033
 Vibration     8          0.612              1.923              2.948
 Vibration     9          0.614              1.917              2.848
 Vibration    10          0.618              1.902              2.661
 Vibration    11          0.632              1.860              2.272
 Vibration    12          0.641              1.828              2.061
 Vibration    13          0.645              1.817              1.996
 Vibration    14          0.661              1.768              1.754
 Vibration    15          0.674              1.728              1.593
 Vibration    16          0.685              1.695              1.483
 Vibration    17          0.689              1.685              1.450
 Vibration    18          0.705              1.637              1.314
 Vibration    19          0.729              1.570              1.154
 Vibration    20          0.734              1.555              1.124
 Vibration    21          0.780              1.434              0.904
 Vibration    22          0.819              1.336              0.762
 Vibration    23          0.833              1.301              0.719
 Vibration    24          0.858              1.244              0.652
 Vibration    25          0.895              1.161              0.564
 Vibration    26          0.923              1.102              0.510
 Vibration    27          0.950              1.047              0.462

 Optimization completed.
    -- Stationary point found.
 Normal termination of Gaussian 16 at Sun Dec 13 12:55:05 2020.

 ----------------------------------------------------------------------
 # B3LYP/6-311++G(d,p) empiricaldispersion=gd3bj scf=xqc pop=npa geom=c
 heck
 ----------------------------------------------------------------------

 --------------------------------------
 CID_54963232_JID_7752_Energie_neutraal
 --------------------------------------
 Structure from the checkpoint file:  "JID_7752.chk"
 Charge =  0 Multiplicity = 1

 SCF Done:  E(RB3LYP) =  -751.633010180     A.U. after   15 cycles
 Normal termination of Gaussian 16 at Sun Dec 13 13:03:04 2020.

 ----------------------------------------------------------------------
 # B3LYP/6-311++G(d,p) empiricaldispersion=gd3bj scf=xqc pop=npa geom=c
 heck
 ----------------------------------------------------------------------

 ------------------------------------
 CID_54963232_JID_7752_Energie_kation
 ------------------------------------
 Structure from the checkpoint file:  "JID_7752.chk"
 Charge =  1 Multiplicity = 2

 SCF Done:  E(UB3LYP) =  -751.363173055     A.U. after   23 cycles
 Normal termination of Gaussian 16 at Sun Dec 13 13:19:40 2020.
 Gaussian 16:  ES64L-G16RevA.03 25-Dec-2016

 ----------------------------------------------------------------------
 # B3LYP/6-311++G(d,p) empiricaldispersion=gd3bj scf=xqc pop=npa geom=c
 heck
 ----------------------------------------------------------------------

 -----------------------------------
 CID_54963232_JID_7752_Energie_anion
 -----------------------------------
 Structure from the checkpoint file:  "JID_7752.chk"
 Charge = -1 Multiplicity = 2

                         Standard orientation:
 ---------------------------------------------------------------------
 Center     Atomic      Atomic             Coordinates (Angstroms)
 Number     Number       Type             X           Y           Z
 ---------------------------------------------------------------------
      1          6           0       -2.014832    2.464678    1.270928
      2          6           0       -3.172846    2.321968    0.280914
      3          6           0       -2.897201    1.349763   -0.885742
      4          6           0       -2.697953   -0.086403   -0.448312
      5          6           0       -3.817656   -0.883172   -0.205685
      6          6           0       -3.710798   -2.211779    0.206226
      7          6           0       -2.442373   -2.758849    0.379613
      8          6           0       -1.304059   -1.987569    0.152004
      9          6           0       -1.410443   -0.648985   -0.262947
     10          7           0       -0.272872    0.120695   -0.538939
     11          6           0        1.048391   -0.365694   -0.188733
     12          6           0        2.125460    0.654397   -0.598032
     13          6           0        2.062996    1.953416    0.226064
     14          6           0        3.507013    0.034837   -0.478093
     15          8           0        4.320824   -0.045186   -1.371246
     16          8           0        3.735144   -0.416090    0.778070
     17          6           0        5.025569   -1.010557    0.990243
     18          1           0       -1.733591    1.494301    1.694896
     19          1           0       -2.283575    3.125426    2.102209
     20          1           0       -1.129052    2.899780    0.788698
     21          1           0       -4.063262    1.971821    0.818710
     22          1           0       -3.424516    3.307410   -0.132793
     23          1           0       -3.753398    1.388206   -1.570029
     24          1           0       -2.035476    1.700138   -1.467930
     25          1           0       -4.802426   -0.444691   -0.355243
     26          1           0       -4.602027   -2.806704    0.381282
     27          1           0       -2.328527   -3.791180    0.699471
     28          1           0       -0.327183   -2.430935    0.305975
     29          1           0       -0.400109    1.099232   -0.325903
     30          1           0        1.149025   -0.593567    0.884883
     31          1           0        1.225141   -1.301414   -0.732168
     32          1           0        1.996811    0.886998   -1.659173
     33          1           0        2.133699    1.737032    1.296429
     34          1           0        2.884224    2.624573   -0.045721
     35          1           0        1.130414    2.497669    0.043799
     36          1           0        5.162899   -1.871922    0.331599
     37          1           0        5.818031   -0.284155    0.792589
     38          1           0        5.037646   -1.318983    2.035718
 ---------------------------------------------------------------------

 SCF Done:  E(UB3LYP) =  -751.621697384     A.U. after   33 cycles
 SCF Done:  E(UB3LYP) =  -751.621697384     a.u. after    1 cycles

 The electronic state is 2-A.
 Alpha  occ. eigenvalues --  -19.08449 -19.02890 -14.23414 -10.21561 -10.13525
 Alpha  occ. eigenvalues --  -10.12439 -10.12119 -10.10861 -10.08637 -10.08430
 Alpha  occ. eigenvalues --  -10.08409 -10.08159 -10.08140 -10.07901 -10.07840
 Alpha  occ. eigenvalues --  -10.07823 -10.06921  -1.02428  -0.93715  -0.85278
 Alpha  occ. eigenvalues --   -0.76269  -0.72330  -0.70848  -0.65731  -0.65036
 Alpha  occ. eigenvalues --   -0.63562  -0.60617  -0.58955  -0.54817  -0.52388
 Alpha  occ. eigenvalues --   -0.50166  -0.48629  -0.47799  -0.44451  -0.42133
 Alpha  occ. eigenvalues --   -0.41053  -0.40070  -0.39114  -0.38418  -0.37398
 Alpha  occ. eigenvalues --   -0.36318  -0.35320  -0.34894  -0.34567  -0.33539
 Alpha  occ. eigenvalues --   -0.33438  -0.31728  -0.31212  -0.30786  -0.29894
 Alpha  occ. eigenvalues --   -0.28744  -0.27675  -0.27175  -0.26864  -0.26726
 Alpha  occ. eigenvalues --   -0.26136  -0.25327  -0.24412  -0.23778  -0.22570
 Alpha  occ. eigenvalues --   -0.20942  -0.19379  -0.15984  -0.11839   0.03901
 Alpha virt. eigenvalues --    0.05280   0.06264   0.06998   0.07277   0.07676
 Alpha virt. eigenvalues --    0.07988   0.08509   0.08593   0.08801   0.09097
 Alpha virt. eigenvalues --    0.09445   0.10040   0.10180   0.10754   0.11243

  Beta  occ. eigenvalues --  -19.08441 -19.02879 -14.23404 -10.21558 -10.13479
  Beta  occ. eigenvalues --  -10.12439 -10.12112 -10.10857 -10.08626 -10.08408
  Beta  occ. eigenvalues --  -10.08373 -10.08135 -10.08130 -10.07888 -10.07828
  Beta  occ. eigenvalues --  -10.07818 -10.06889  -1.02412  -0.93697  -0.85262
  Beta  occ. eigenvalues --   -0.76240  -0.72307  -0.70810  -0.65687  -0.65003
  Beta  occ. eigenvalues --   -0.63505  -0.60577  -0.58906  -0.54770  -0.52329
  Beta  occ. eigenvalues --   -0.50137  -0.48577  -0.47755  -0.44423  -0.42112
  Beta  occ. eigenvalues --   -0.41026  -0.40036  -0.39086  -0.38390  -0.37365
  Beta  occ. eigenvalues --   -0.36281  -0.35290  -0.34853  -0.34538  -0.33510
  Beta  occ. eigenvalues --   -0.33405  -0.31701  -0.31177  -0.30750  -0.29857
  Beta  occ. eigenvalues --   -0.28695  -0.27643  -0.27146  -0.26829  -0.26697
  Beta  occ. eigenvalues --   -0.26106  -0.25283  -0.24377  -0.23746  -0.22538
  Beta  occ. eigenvalues --   -0.20907  -0.19361  -0.15868  -0.11796
  Beta virt. eigenvalues --    0.05865   0.06290   0.06518   0.07376   0.07569
  Beta virt. eigenvalues --    0.08025   0.08247   0.08665   0.08786   0.09248
  Beta virt. eigenvalues --    0.09315   0.09749   0.10383   0.10459   0.11074

 Mulliken charges and spin densities:
               1          2
     1  C   -0.509024  -0.023337
     2  C    1.218907  -1.672205
     3  C   -0.996906   0.806872
     4  C    0.646423  -0.194127
     5  C   -0.477399   0.237821
     6  C    0.020798  -0.507527
     7  C   -0.062838  -0.285432
     8  C   -0.100319   0.156459
     9  C   -0.081716   0.028788
    10  N    0.230900  -0.040333
    11  C    0.271591  -0.996691
    12  C   -0.060158   0.289347
    13  C    0.554525  -1.116387
    14  C   -1.412505   1.131294
    15  O   -0.231312   0.006148
    16  O   -0.101116   0.061992
    17  C    0.848041  -1.077951
    18  H    0.090857   0.049008
    19  H   -0.428630   0.590996
    20  H    0.015978   0.112891
    21  H    0.107333   0.020826
    22  H   -0.410613   0.564040
    23  H   -0.108905   0.297956
    24  H   -0.335613   0.525443
    25  H   -0.106165   0.246029
    26  H    0.099607   0.035581
    27  H    0.068027   0.080766
    28  H   -0.048937   0.185358
    29  H    1.460001  -1.310073
    30  H    0.193236   0.025051
    31  H    0.125975   0.073963
    32  H    0.081178   0.147467
    33  H   -0.015923   0.194079
    34  H   -0.263414   0.445538
    35  H   -0.326012   0.446790
    36  H   -0.181556   0.355964
    37  H   -0.267397   0.443182
    38  H   -0.506921   0.664414
 Sum of Mulliken charges =  -1.00000   1.00000

 Dipole moment (field-independent basis, Debye):
    X=             -3.5064    Y=             -3.8670    Z=             -0.8981  Tot=              5.2967
 Quadrupole moment (field-independent basis, Debye-Ang):
   XX=           -206.2908   YY=           -159.8774   ZZ=           -143.8641
   XY=             14.0149   XZ=             -6.2886   YZ=             -0.4439

 Summary of Natural Population Analysis:

                                       Natural Population
                Natural  -----------------------------------------------
    Atom  No    Charge         Core      Valence    Rydberg      Total
 -----------------------------------------------------------------------
      C    1   -0.29048      0.99966     2.28504    0.00578     3.29048
      C    2   -0.18448      0.99963     2.17678    0.00806     3.18448
      C    3   -0.20152      0.99960     2.19204    0.00988     3.20152
      C    4   -0.02999      0.99948     2.02013    0.01039     3.02999
      C    5   -0.08997      0.99952     2.08188    0.00857     3.08997
      C    6   -0.12511      0.99956     2.11521    0.01033     3.12511
      C    7   -0.09430      0.99957     2.08516    0.00956     3.09430
      C    8   -0.12998      0.99953     2.12252    0.00792     3.12998
      C    9    0.09294      0.99945     1.89794    0.00967     2.90706
      N   10   -0.32171      0.99967     2.81301    0.00904     3.82171
      C   11   -0.08284      0.99960     2.07365    0.00960     3.08284
      C   12   -0.15457      0.99955     2.14384    0.01118     3.15457
      C   13   -0.28440      0.99965     2.27857    0.00619     3.28440
      C   14    0.41685      0.99965     1.55849    0.02501     2.58315
      O   15   -0.30267      0.99987     3.29696    0.00583     4.30267
      O   16   -0.28112      0.99986     3.27203    0.00923     4.28112
      C   17   -0.10496      0.99959     2.09594    0.00943     3.10496
      H   18    0.09854      0.00000     0.40021    0.00125     0.40146
      H   19    0.10266      0.00000     0.39641    0.00093     0.39734
      H   20    0.09344      0.00000     0.40499    0.00156     0.40656
      H   21    0.09305      0.00000     0.40570    0.00125     0.40695
      H   22    0.09771      0.00000     0.40036    0.00193     0.40229
      H   23    0.10493      0.00000     0.39382    0.00125     0.39507
      H   24    0.10062      0.00000     0.39770    0.00168     0.39938
      H   25    0.09796      0.00000     0.40105    0.00099     0.40204
      H   26    0.09786      0.00000     0.40138    0.00076     0.40214
      H   27    0.09751      0.00000     0.40172    0.00077     0.40249
      H   28    0.10250      0.00000     0.39622    0.00128     0.39750
      H   29    0.19101      0.00000     0.30479    0.00419     0.30899
      H   30    0.09278      0.00000     0.40530    0.00191     0.40722
      H   31    0.09754      0.00000     0.40085    0.00162     0.40246
      H   32    0.11051      0.00000     0.38769    0.00181     0.38949
      H   33    0.10494      0.00000     0.39358    0.00148     0.39506
      H   34    0.10580      0.00000     0.39307    0.00112     0.39420
      H   35    0.09982      0.00000     0.39883    0.00134     0.40018
      H   36    0.09131      0.00000     0.40735    0.00134     0.40869
      H   37    0.09294      0.00000     0.40551    0.00155     0.40706
      H   38    0.09486      0.00000     0.40334    0.00179     0.40514
 =======================================================================
   * Total *    0.00000     16.99345    46.80909    0.19746    64.00000

 Normal termination of Gaussian 16 at Sun Dec 13 13:43:40 2020.
