 Gaussian 16, Revision A.03,

 -----------------------------------------------------------
 # opt freq B3LYP/6-31G(d) empiricaldispersion=gd3bj scf=xqc
 -----------------------------------------------------------

 -------------------------------
 CID_128493080_JID_8453_neutraal
 -------------------------------
 Symbolic Z-matrix:
 Charge =  0 Multiplicity = 1

 SCF Done:  E(RB3LYP) =  -1179.22313607     A.U. after   15 cycles
 SCF Done:  E(RB3LYP) =  -1179.22836461     A.U. after   12 cycles
 SCF Done:  E(RB3LYP) =  -1179.22911355     A.U. after   12 cycles
 SCF Done:  E(RB3LYP) =  -1179.22929739     A.U. after   11 cycles
 SCF Done:  E(RB3LYP) =  -1179.22938715     A.U. after   11 cycles
 SCF Done:  E(RB3LYP) =  -1179.22944683     A.U. after   11 cycles
 SCF Done:  E(RB3LYP) =  -1179.22952637     A.U. after   12 cycles
 SCF Done:  E(RB3LYP) =  -1179.22955780     A.U. after   11 cycles
 SCF Done:  E(RB3LYP) =  -1179.22958329     A.U. after   10 cycles
 SCF Done:  E(RB3LYP) =  -1179.22958876     A.U. after   10 cycles
 SCF Done:  E(RB3LYP) =  -1179.22959435     A.U. after   10 cycles
 SCF Done:  E(RB3LYP) =  -1179.22959564     A.U. after   10 cycles
 SCF Done:  E(RB3LYP) =  -1179.22959634     A.U. after    8 cycles
 SCF Done:  E(RB3LYP) =  -1179.22959675     A.U. after    8 cycles
 SCF Done:  E(RB3LYP) =  -1179.22959681     A.U. after    8 cycles
 Optimization completed.
    -- Stationary point found.
 Normal termination of Gaussian 16 at Fri Dec 11 20:17:25 2020.

 --------------------------------------------------------------------
 #N Geom=AllCheck Guess=TCheck SCRF=Check GenChk RB3LYP/6-31G(d) Freq
 --------------------------------------------------------------------

 Structure from the checkpoint file:  "JID_8453.chk"
 -------------------------------
 CID_128493080_JID_8453_neutraal
 -------------------------------
 Charge =  0 Multiplicity = 1

 SCF Done:  E(RB3LYP) =  -1179.22959681     A.U. after    1 cycles

  Exact polarizability: 230.349  -4.845 162.200   0.168  -2.687 100.181
 Approx polarizability: 318.487  -1.249 266.693   2.164 -10.761 156.955

                      1                      2                      3
                      A                      A                      A
 Frequencies --     12.8170                20.1553                45.2043
 Red. masses --      3.6437                 7.0133                 3.6207
 Frc consts  --      0.0004                 0.0017                 0.0044
 IR Inten    --      0.5543                 0.2928                 0.4623

                      4                      5                      6
                      A                      A                      A
 Frequencies --     85.4352                92.1561               110.3105
 Red. masses --      6.4718                 5.3741                 3.6711
 Frc consts  --      0.0278                 0.0269                 0.0263
 IR Inten    --      0.7193                 1.5815                 2.0526

                      7                      8                      9
                      A                      A                      A
 Frequencies --    152.8412               160.6076               181.5460
 Red. masses --      1.0922                 3.2145                 1.0490
 Frc consts  --      0.0150                 0.0489                 0.0204
 IR Inten    --      0.0250                 1.8062                 0.1604

                     10                     11                     12
                      A                      A                      A
 Frequencies --    190.7529               223.1694               231.4132
 Red. masses --      4.3162                 2.6758                 3.5380
 Frc consts  --      0.0925                 0.0785                 0.1116
 IR Inten    --      0.9637                 1.9759                 0.5805

                     13                     14                     15
                      A                      A                      A
 Frequencies --    253.0267               292.0905               301.4056
 Red. masses --      1.2228                 4.3984                 3.1116
 Frc consts  --      0.0461                 0.2211                 0.1665
 IR Inten    --      0.5692                 2.1493                 5.1601

                     16                     17                     18
                      A                      A                      A
 Frequencies --    323.9516               332.8380               346.9289
 Red. masses --      3.3932                 4.2517                 3.9838
 Frc consts  --      0.2098                 0.2775                 0.2825
 IR Inten    --      1.5700                 0.6215                 1.1083

                     19                     20                     21
                      A                      A                      A
 Frequencies --    414.3349               433.3742               464.6992
 Red. masses --      5.4451                 6.2281                 2.5897
 Frc consts  --      0.5508                 0.6892                 0.3295
 IR Inten    --      0.0930                 1.6395                 0.9843

                     22                     23                     24
                      A                      A                      A
 Frequencies --    500.1548               541.3637               577.1413
 Red. masses --      6.4974                 6.1236                 3.8682
 Frc consts  --      0.9576                 1.0574                 0.7591
 IR Inten    --      1.2110                 7.0853                 0.8133

                     25                     26                     27
                      A                      A                      A
 Frequencies --    583.1235               606.6338               667.4983
 Red. masses --      2.7169                 7.1788                 5.7888
 Frc consts  --      0.5443                 1.5565                 1.5196
 IR Inten    --      0.2774                 2.4673                 0.1811

                     28                     29                     30
                      A                      A                      A
 Frequencies --    675.3875               735.2305               780.9553
 Red. masses --      3.7319                 8.7206                 6.1176
 Frc consts  --      1.0030                 2.7774                 2.1983
 IR Inten    --      5.5342                 1.2395                12.5012

                     31                     32                     33
                      A                      A                      A
 Frequencies --    796.8764               797.5942               802.2207
 Red. masses --      5.6612                 7.1146                 5.8274
 Frc consts  --      2.1181                 2.6667                 2.2096
 IR Inten    --      2.8313                 6.5492                35.2485

                     34                     35                     36
                      A                      A                      A
 Frequencies --    821.3303               879.6022               921.1927
 Red. masses --      2.7009                 2.1588                 1.9970
 Frc consts  --      1.0735                 0.9841                 0.9985
 IR Inten    --     10.2578                 8.1352                 8.5851

                     37                     38                     39
                      A                      A                      A
 Frequencies --    929.9048               943.8792               981.5074
 Red. masses --      9.6199                 2.4366                 6.3199
 Frc consts  --      4.9012                 1.2790                 3.5871
 IR Inten    --     72.1166                 0.8216                 3.3886

                     40                     41                     42
                      A                      A                      A
 Frequencies --    989.1476              1013.4175              1026.3501
 Red. masses --      1.3966                 2.4488                 2.0734
 Frc consts  --      0.8051                 1.4818                 1.2869
 IR Inten    --      8.8126                 9.3329                 3.0981

                     43                     44                     45
                      A                      A                      A
 Frequencies --   1043.2878              1052.8912              1054.0143
 Red. masses --      4.0717                 1.4257                 2.7533
 Frc consts  --      2.6112                 0.9312                 1.8022
 IR Inten    --     20.1474                 0.6802                11.1751

                     46                     47                     48
                      A                      A                      A
 Frequencies --   1064.0292              1073.2546              1102.0591
 Red. masses --      2.2662                 1.5225                 2.7542
 Frc consts  --      1.5117                 1.0333                 1.9708
 IR Inten    --      8.2343                 2.1975                22.4884

                     49                     50                     51
                      A                      A                      A
 Frequencies --   1104.8461              1132.5594              1164.6899
 Red. masses --      1.9961                 2.8386                 1.9981
 Frc consts  --      1.4356                 2.1452                 1.5970
 IR Inten    --     49.2605               131.5545                28.2388

                     52                     53                     54
                      A                      A                      A
 Frequencies --   1214.1083              1219.3076              1228.0252
 Red. masses --      1.7990                 2.9117                 1.7295
 Frc consts  --      1.5624                 2.5505                 1.5367
 IR Inten    --      5.4346                 7.0279                 9.6771

                     55                     56                     57
                      A                      A                      A
 Frequencies --   1305.8129              1315.3439              1328.9614
 Red. masses --      1.8714                 2.5508                 1.4286
 Frc consts  --      1.8801                 2.6002                 1.4866
 IR Inten    --     23.3602                38.4736                 1.6726

                     58                     59                     60
                      A                      A                      A
 Frequencies --   1359.0561              1367.5884              1375.6170
 Red. masses --      1.4998                 2.2728                 1.5117
 Frc consts  --      1.6321                 2.5045                 1.6854
 IR Inten    --     13.0671                20.1376                57.8122

                     61                     62                     63
                      A                      A                      A
 Frequencies --   1386.5942              1393.2863              1414.0197
 Red. masses --      2.2588                 2.3045                 1.3882
 Frc consts  --      2.5587                 2.6357                 1.6353
 IR Inten    --      3.8183                33.5342                 7.5177

                     64                     65                     66
                      A                      A                      A
 Frequencies --   1441.7203              1442.1283              1442.7959
 Red. masses --      1.3536                 1.3004                 1.2745
 Frc consts  --      1.6576                 1.5934                 1.5631
 IR Inten    --     17.6422                 5.6536                 3.2168

                     67                     68                     69
                      A                      A                      A
 Frequencies --   1458.0066              1500.0167              1504.3115
 Red. masses --      3.0540                 1.0438                 1.4047
 Frc consts  --      3.8250                 1.3837                 1.8728
 IR Inten    --     14.5927                 8.9366                12.6897

                     70                     71                     72
                      A                      A                      A
 Frequencies --   1506.3614              1508.4565              1514.5777
 Red. masses --      1.0452                 1.1581                 1.0772
 Frc consts  --      1.3973                 1.5526                 1.4559
 IR Inten    --      7.1412                29.1444                 1.1797

                     73                     74                     75
                      A                      A                      A
 Frequencies --   1518.1497              1529.4127              1533.3415
 Red. masses --      1.0610                 1.0774                 1.0796
 Frc consts  --      1.4407                 1.4848                 1.4956
 IR Inten    --      4.7517                 9.3026                 1.3154

                     76                     77                     78
                      A                      A                      A
 Frequencies --   1555.9093              1594.6686              1633.4003
 Red. masses --      7.0903                 7.2414                 9.9552
 Frc consts  --     10.1131                10.8495                15.6489
 IR Inten    --     54.6839               203.2433                30.5566

                     79                     80                     81
                      A                      A                      A
 Frequencies --   3014.9269              3057.1878              3060.7726
 Red. masses --      1.0853                 1.0359                 1.0346
 Frc consts  --      5.8125                 5.7047                 5.7109
 IR Inten    --     65.4345                18.4189                 9.6494

                     82                     83                     84
                      A                      A                      A
 Frequencies --   3073.1047              3076.0472              3078.6739
 Red. masses --      1.0351                 1.0670                 1.0601
 Frc consts  --      5.7597                 5.9483                 5.9199
 IR Inten    --      9.9783                11.6134                15.6947

                     85                     86                     87
                      A                      A                      A
 Frequencies --   3096.9529              3123.4975              3125.6563
 Red. masses --      1.0851                 1.1005                 1.1020
 Frc consts  --      6.1320                 6.3259                 6.3430
 IR Inten    --     23.0450                 3.4048                 2.7894

                     88                     89                     90
                      A                      A                      A
 Frequencies --   3127.4399              3134.7511              3135.8769
 Red. masses --      1.1013                 1.1002                 1.1058
 Frc consts  --      6.3464                 6.3699                 6.4071
 IR Inten    --     34.5154                 8.3887                23.3191

                     91                     92                     93
                      A                      A                      A
 Frequencies --   3138.9975              3142.5259              3163.4324
 Red. masses --      1.1045                 1.1038                 1.1047
 Frc consts  --      6.4121                 6.4222                 6.5132
 IR Inten    --     15.7036                39.0251                13.1115

 - Thermochemistry -
 -------------------
 Temperature   298.150 Kelvin.  Pressure   1.00000 Atm.
 Atom     1 has atomic number  6 and mass  12.00000

 Molecular mass:   265.08850 amu.
 Principal axes and moments of inertia in atomic units:
                           1         2         3
     Eigenvalues --  1777.57178********************
           X            0.99999   0.00397  -0.00347
           Y           -0.00395   0.99997   0.00653
           Z            0.00350  -0.00652   0.99997
 This molecule is an asymmetric top.
 Rotational symmetry number  1.
 Warning -- assumption of classical behavior for rotation
           may cause significant error
 Rotational temperatures (Kelvin)      0.04873     0.00858     0.00767
 Rotational constants (GHZ):           1.01528     0.17877     0.15972
 Zero-point vibrational energy     694863.0 (Joules/Mol)
                                  166.07625 (Kcal/Mol)
 Warning -- explicit consideration of  26 degrees of freedom as
           vibrations may cause significant error
 Vibrational temperatures:     18.44    29.00    65.04   122.92   132.59
          (Kelvin)            158.71   219.90   231.08   261.20   274.45
                              321.09   332.95   364.05   420.25   433.66
                              466.09   478.88   499.15   596.14   623.53
                              668.60   719.61   778.90   830.38   838.98
                              872.81   960.38   971.73  1057.83  1123.62
                             1146.53  1147.56  1154.22  1181.71  1265.55
                             1325.39  1337.93  1358.03  1412.17  1423.16
                             1458.08  1476.69  1501.06  1514.88  1516.49
                             1530.90  1544.17  1585.62  1589.63  1629.50
                             1675.73  1746.83  1754.31  1766.85  1878.77
                             1892.49  1912.08  1955.38  1967.65  1979.21
                             1995.00  2004.63  2034.46  2074.31  2074.90
                             2075.86  2097.75  2158.19  2164.37  2167.32
                             2170.33  2179.14  2184.28  2200.48  2206.14
                             2238.61  2294.37  2350.10  4337.81  4398.61
                             4403.77  4421.51  4425.75  4429.53  4455.82
                             4494.02  4497.12  4499.69  4510.21  4511.83
                             4516.32  4521.39  4551.47

 Zero-point correction=                           0.264659 (Hartree/Particle)
 Thermal correction to Energy=                    0.281582
 Thermal correction to Enthalpy=                  0.282526
 Thermal correction to Gibbs Free Energy=         0.217435
 Sum of electronic and zero-point Energies=          -1178.964937
 Sum of electronic and thermal Energies=             -1178.948015
 Sum of electronic and thermal Enthalpies=           -1178.947071
 Sum of electronic and thermal Free Energies=        -1179.012161

                     E (Thermal)             CV                S
                      KCal/Mol        Cal/Mol-Kelvin    Cal/Mol-Kelvin
 Total                  176.695             63.138            136.995
 Electronic               0.000              0.000              0.000
 Translational            0.889              2.981             42.624
 Rotational               0.889              2.981             33.672
 Vibrational            174.918             57.176             60.700
 Vibration     1          0.593              1.987              7.518
 Vibration     2          0.593              1.986              6.619
 Vibration     3          0.595              1.979              5.017
 Vibration     4          0.601              1.959              3.762
 Vibration     5          0.602              1.955              3.614
 Vibration     6          0.606              1.941              3.263
 Vibration     7          0.619              1.900              2.637
 Vibration     8          0.622              1.891              2.543
 Vibration     9          0.630              1.865              2.312
 Vibration    10          0.634              1.853              2.220
 Vibration    11          0.649              1.806              1.933
 Vibration    12          0.653              1.793              1.868
 Vibration    13          0.664              1.758              1.709
 Vibration    14          0.687              1.688              1.462
 Vibration    15          0.693              1.671              1.409
 Vibration    16          0.709              1.628              1.290
 Vibration    17          0.715              1.610              1.246
 Vibration    18          0.725              1.582              1.180
 Vibration    19          0.778              1.439              0.911
 Vibration    20          0.794              1.398              0.848
 Vibration    21          0.822              1.328              0.753
 Vibration    22          0.856              1.250              0.658
 Vibration    23          0.896              1.159              0.562
 Vibration    24          0.934              1.081              0.491
 Vibration    25          0.940              1.068              0.480
 Vibration    26          0.965              1.018              0.438

                           ! Non-Optimized Parameters !
 Normal termination of Gaussian 16 at Fri Dec 11 20:32:37 2020.

 ----------------------------------------------------------------------
 # B3LYP/6-311++G(d,p) empiricaldispersion=gd3bj scf=xqc pop=npa geom=c
 heck
 ----------------------------------------------------------------------

 ---------------------------------------
 CID_128493080_JID_8453_Energie_neutraal
 ---------------------------------------
 Structure from the checkpoint file:  "JID_8453.chk"
 Charge =  0 Multiplicity = 1

 SCF Done:  E(RB3LYP) =  -1179.46036053     A.U. after   16 cycles
 Normal termination of Gaussian 16 at Fri Dec 11 20:39:52 2020.

 ----------------------------------------------------------------------
 # B3LYP/6-311++G(d,p) empiricaldispersion=gd3bj scf=xqc pop=npa geom=c
 heck
 ----------------------------------------------------------------------

 -------------------------------------
 CID_128493080_JID_8453_Energie_kation
 -------------------------------------
 Structure from the checkpoint file:  "JID_8453.chk"
 Charge =  1 Multiplicity = 2

 SCF Done:  E(UB3LYP) =  -1179.14733198     A.U. after   28 cycles
 Normal termination of Gaussian 16 at Fri Dec 11 20:57:57 2020.
 Gaussian 16:  ES64L-G16RevA.03 25-Dec-2016

 ----------------------------------------------------------------------
 # B3LYP/6-311++G(d,p) empiricaldispersion=gd3bj scf=xqc pop=npa geom=c
 heck
 ----------------------------------------------------------------------

 ------------------------------------
 CID_128493080_JID_8453_Energie_anion
 ------------------------------------
 Structure from the checkpoint file:  "JID_8453.chk"
 Charge = -1 Multiplicity = 2

                         Standard orientation:
 ---------------------------------------------------------------------
 Center     Atomic      Atomic             Coordinates (Angstroms)
 Number     Number       Type             X           Y           Z
 ---------------------------------------------------------------------
      1          6           0       -4.710423   -1.646753   -0.697541
      2          6           0       -4.569803   -0.205160   -0.239733
      3          6           0       -4.124661   -0.027044    1.218059
      4          6           0       -3.314118    1.272203    1.164631
      5          6           0       -2.645749    1.166888   -0.223084
      6          8           0       -3.554611    0.447336   -1.042275
      7          6           0       -1.319049    0.461726   -0.158446
      8          7           0       -0.134048    0.994552   -0.196634
      9          6           0        0.703581   -0.100421   -0.040542
     10          7           0        0.059827   -1.246583    0.085671
     11          8           0       -1.295047   -0.870926    0.008506
     12          6           0        2.157713   -0.004940   -0.022789
     13          6           0        3.002600   -1.096459    0.093753
     14         16           0        4.628688   -0.527406    0.070928
     15          7           0        4.223520    1.098230   -0.086382
     16          6           0        2.911926    1.226608   -0.123059
     17          6           0        2.344897    2.610003   -0.261729
     18          6           0        2.668081   -2.548739    0.220728
     19          1           0       -4.971472   -1.690092   -1.759383
     20          1           0       -5.498040   -2.153489   -0.127992
     21          1           0       -3.766128   -2.179887   -0.550105
     22          1           0       -5.511923    0.336035   -0.410959
     23          1           0       -4.972457    0.025322    1.906864
     24          1           0       -3.487719   -0.864700    1.521818
     25          1           0       -2.592372    1.381859    1.978373
     26          1           0       -3.974320    2.145900    1.171941
     27          1           0       -2.454775    2.148890   -0.666389
     28          1           0        3.169355    3.324598   -0.307131
     29          1           0        1.731965    2.696066   -1.163566
     30          1           0        1.691703    2.854906    0.581053
     31          1           0        3.571987   -3.162587    0.270470
     32          1           0        2.067259   -2.728262    1.118360
     33          1           0        2.060116   -2.878201   -0.628113
 ---------------------------------------------------------------------

 SCF Done:  E(UB3LYP) =  -1179.46468476     A.U. after   33 cycles
 SCF Done:  E(UB3LYP) =  -1179.46468476     a.u. after    1 cycles

 The electronic state is 2-A.
 Alpha  occ. eigenvalues --  -88.75962 -19.07462 -19.02582 -14.21129 -14.19501
 Alpha  occ. eigenvalues --  -14.19040 -10.13640 -10.13579 -10.12924 -10.10205
 Alpha  occ. eigenvalues --  -10.09635 -10.08155 -10.07833 -10.07135 -10.06999
 Alpha  occ. eigenvalues --  -10.06014 -10.05661 -10.05257  -7.84479  -5.80869
 Alpha  occ. eigenvalues --   -5.80379  -5.80032  -1.02674  -0.94462  -0.83404
 Alpha  occ. eigenvalues --   -0.80582  -0.74349  -0.69874  -0.68652  -0.67530
 Alpha  occ. eigenvalues --   -0.64925  -0.59685  -0.59566  -0.56645  -0.52588
 Alpha  occ. eigenvalues --   -0.50805  -0.49407  -0.47086  -0.42918  -0.42290
 Alpha  occ. eigenvalues --   -0.41377  -0.39414  -0.36612  -0.36050  -0.35333
 Alpha  occ. eigenvalues --   -0.34113  -0.32996  -0.32114  -0.31499  -0.30817
 Alpha  occ. eigenvalues --   -0.30576  -0.30371  -0.29793  -0.28454  -0.26853
 Alpha  occ. eigenvalues --   -0.26538  -0.25689  -0.25508  -0.25063  -0.24500
 Alpha  occ. eigenvalues --   -0.22960  -0.22342  -0.21573  -0.20757  -0.17460
 Alpha  occ. eigenvalues --   -0.16819  -0.16375  -0.16191  -0.13735  -0.11705
 Alpha  occ. eigenvalues --    0.04059
 Alpha virt. eigenvalues --    0.05595   0.07455   0.08450   0.08568   0.08959
 Alpha virt. eigenvalues --    0.09583   0.09928   0.10835   0.11148   0.11489
 Alpha virt. eigenvalues --    0.11547   0.12093   0.12423   0.12954   0.13351

  Beta  occ. eigenvalues --  -88.75929 -19.07197 -19.02577 -14.20692 -14.19454
  Beta  occ. eigenvalues --  -14.19119 -10.13594 -10.13484 -10.12913 -10.10123
  Beta  occ. eigenvalues --  -10.09659 -10.08115 -10.07823 -10.06996 -10.06678
  Beta  occ. eigenvalues --  -10.06045 -10.05676 -10.05254  -7.84449  -5.80857
  Beta  occ. eigenvalues --   -5.80372  -5.79912  -1.02232  -0.94438  -0.83286
  Beta  occ. eigenvalues --   -0.80459  -0.73856  -0.69842  -0.68325  -0.67299
  Beta  occ. eigenvalues --   -0.64782  -0.59620  -0.59432  -0.56537  -0.52437
  Beta  occ. eigenvalues --   -0.50513  -0.49317  -0.46890  -0.42730  -0.42150
  Beta  occ. eigenvalues --   -0.41237  -0.39291  -0.36225  -0.35599  -0.35240
  Beta  occ. eigenvalues --   -0.33990  -0.32823  -0.31761  -0.31340  -0.30667
  Beta  occ. eigenvalues --   -0.30468  -0.30101  -0.29708  -0.28433  -0.26732
  Beta  occ. eigenvalues --   -0.26448  -0.25601  -0.25215  -0.25014  -0.24419
  Beta  occ. eigenvalues --   -0.22881  -0.22104  -0.20761  -0.20449  -0.16805
  Beta  occ. eigenvalues --   -0.16675  -0.16212  -0.15795  -0.12855  -0.10281
  Beta virt. eigenvalues --    0.06266   0.07681   0.08475   0.08674   0.08981
  Beta virt. eigenvalues --    0.09311   0.10008   0.10784   0.10954   0.11178
  Beta virt. eigenvalues --    0.11498   0.11664   0.12101   0.12407   0.13010

 Mulliken charges and spin densities:
               1          2
     1  C   -0.413179  -0.160593
     2  C    0.164692  -0.188698
     3  C   -0.199718  -0.211906
     4  C    0.209368  -0.636836
     5  C   -0.365070   0.534127
     6  O   -0.106725  -0.002335
     7  C    0.141221  -0.206496
     8  N    0.055642  -0.041872
     9  C   -0.054201   0.018348
    10  N   -0.607687   0.200160
    11  O    0.351863   0.052043
    12  C    1.200832   0.038271
    13  C    0.413132   0.239524
    14  S    0.217027   0.092251
    15  N   -0.034812   0.012706
    16  C   -1.974407  -0.038682
    17  C   -0.714552  -0.035636
    18  C   -0.409190   0.000893
    19  H    0.135473   0.004865
    20  H    0.069506   0.046239
    21  H    0.158021   0.015109
    22  H   -0.182232   0.354311
    23  H   -0.136745   0.290676
    24  H    0.178758  -0.000584
    25  H    0.139148   0.014070
    26  H   -0.316733   0.493931
    27  H    0.166714   0.083896
    28  H    0.143716  -0.002728
    29  H    0.162886   0.003833
    30  H    0.154371   0.005201
    31  H    0.115495  -0.000152
    32  H    0.168285   0.012607
    33  H    0.169098   0.013457
 Sum of Mulliken charges =  -1.00000   1.00000

 Dipole moment (field-independent basis, Debye):
    X=             -1.2375    Y=             -1.7274    Z=              0.3091  Tot=              2.1473
 Quadrupole moment (field-independent basis, Debye-Ang):
   XX=           -202.4088   YY=           -134.6374   ZZ=           -128.0092
   XY=              3.5503   XZ=              2.3278   YZ=             -1.6232

 Summary of Natural Population Analysis:

                                       Natural Population
                Natural  -----------------------------------------------
    Atom  No    Charge         Core      Valence    Rydberg      Total
 -----------------------------------------------------------------------
      C    1   -0.29292      0.99964     2.28833    0.00495     3.29292
      C    2    0.06470      0.99958     1.92036    0.01537     2.93530
      C    3   -0.20747      0.99962     2.19889    0.00896     3.20747
      C    4   -0.19411      0.99962     2.18623    0.00826     3.19411
      C    5    0.03975      0.99951     1.94342    0.01732     2.96025
      O    6   -0.30296      0.99989     3.29491    0.00817     4.30296
      C    7    0.29193      0.99959     1.68811    0.02037     2.70807
      N    8   -0.28547      0.99967     2.77807    0.00773     3.78547
      C    9    0.17030      0.99961     1.81259    0.01751     2.82970
      N   10   -0.04370      0.99968     2.53240    0.01162     3.54370
      O   11   -0.15704      0.99985     3.14733    0.00986     4.15704
      C   12   -0.12742      0.99940     2.10918    0.01884     3.12742
      C   13    0.05193      0.99952     1.93638    0.01217     2.94807
      S   14    0.27271      4.99942     2.69243    0.03543     7.72729
      N   15   -0.31730      0.99970     2.80814    0.00946     3.81730
      C   16    0.10576      0.99959     1.87777    0.01689     2.89424
      C   17   -0.29784      0.99963     2.29314    0.00507     3.29784
      C   18   -0.31275      0.99966     2.30280    0.01029     3.31275
      H   19    0.10044      0.00000     0.39868    0.00087     0.39956
      H   20    0.09556      0.00000     0.40367    0.00077     0.40444
      H   21    0.10819      0.00000     0.39047    0.00133     0.39181
      H   22    0.08078      0.00000     0.41762    0.00161     0.41922
      H   23    0.10369      0.00000     0.39532    0.00099     0.39631
      H   24    0.10383      0.00000     0.39456    0.00161     0.39617
      H   25    0.10717      0.00000     0.39197    0.00085     0.39283
      H   26    0.10152      0.00000     0.39665    0.00183     0.39848
      H   27    0.10191      0.00000     0.39670    0.00139     0.39809
      H   28    0.10104      0.00000     0.39770    0.00126     0.39896
      H   29    0.10943      0.00000     0.38964    0.00093     0.39057
      H   30    0.10831      0.00000     0.39077    0.00092     0.39169
      H   31    0.09291      0.00000     0.40592    0.00116     0.40709
      H   32    0.11409      0.00000     0.38433    0.00158     0.38591
      H   33    0.11480      0.00000     0.38360    0.00159     0.38520
 =======================================================================
   * Total *    0.00179     21.99316    47.74810    0.25695    69.99821

 Normal termination of Gaussian 16 at Fri Dec 11 21:20:06 2020.
