 Gaussian 16, Revision A.03,

 -----------------------------------------------------------
 # opt freq B3LYP/6-31G(d) empiricaldispersion=gd3bj scf=xqc
 -----------------------------------------------------------

 ------------------------------
 CID_62180244_JID_6816_neutraal
 ------------------------------
 Symbolic Z-matrix:
 Charge =  0 Multiplicity = 1

 SCF Done:  E(RB3LYP) =  -744.161310332     A.U. after   15 cycles
 SCF Done:  E(RB3LYP) =  -744.168033775     A.U. after   13 cycles
 SCF Done:  E(RB3LYP) =  -744.166448044     A.U. after   13 cycles
 SCF Done:  E(RB3LYP) =  -744.170297214     A.U. after   12 cycles
 SCF Done:  E(RB3LYP) =  -744.171697841     A.U. after   13 cycles
 SCF Done:  E(RB3LYP) =  -744.172037310     A.U. after   12 cycles
 SCF Done:  E(RB3LYP) =  -744.172287632     A.U. after   12 cycles
 SCF Done:  E(RB3LYP) =  -744.172685357     A.U. after   11 cycles
 SCF Done:  E(RB3LYP) =  -744.172783973     A.U. after   11 cycles
 SCF Done:  E(RB3LYP) =  -744.172821374     A.U. after   11 cycles
 SCF Done:  E(RB3LYP) =  -744.172841293     A.U. after    9 cycles
 SCF Done:  E(RB3LYP) =  -744.172842777     A.U. after    8 cycles
 SCF Done:  E(RB3LYP) =  -744.172844520     A.U. after    8 cycles
 SCF Done:  E(RB3LYP) =  -744.172845069     A.U. after    8 cycles
 SCF Done:  E(RB3LYP) =  -744.172845134     A.U. after    7 cycles
 Optimization completed.
    -- Stationary point found.
 Normal termination of Gaussian 16 at Fri Dec 11 00:46:00 2020.

 --------------------------------------------------------------------
 #N Geom=AllCheck Guess=TCheck SCRF=Check GenChk RB3LYP/6-31G(d) Freq
 --------------------------------------------------------------------

 Structure from the checkpoint file:  "JID_6816.chk"
 ------------------------------
 CID_62180244_JID_6816_neutraal
 ------------------------------
 Charge =  0 Multiplicity = 1

 SCF Done:  E(RB3LYP) =  -744.172845134     A.U. after    1 cycles

  Exact polarizability: 186.772  -8.756 152.539  -3.645  -1.779  89.825
 Approx polarizability: 244.948 -16.823 250.446 -10.471  -5.189 142.047

                      1                      2                      3
                      A                      A                      A
 Frequencies --     43.5675                53.0833                68.3531
 Red. masses --      3.9586                 4.4435                 3.3886
 Frc consts  --      0.0044                 0.0074                 0.0093
 IR Inten    --      0.9614                 0.3662                 0.4527

                      4                      5                      6
                      A                      A                      A
 Frequencies --     95.1494               102.1353               111.3450
 Red. masses --      4.2672                 4.1795                 3.2205
 Frc consts  --      0.0228                 0.0257                 0.0235
 IR Inten    --      5.7106                 1.5682                 3.6105

                      7                      8                      9
                      A                      A                      A
 Frequencies --    126.0719               134.6028               166.3112
 Red. masses --      1.2062                 3.3680                 4.6626
 Frc consts  --      0.0113                 0.0360                 0.0760
 IR Inten    --      0.7837                12.1846                 1.4717

                     10                     11                     12
                      A                      A                      A
 Frequencies --    194.9941               222.0594               226.7615
 Red. masses --      2.8154                 2.9543                 1.2690
 Frc consts  --      0.0631                 0.0858                 0.0384
 IR Inten    --      9.8558                 0.8462                 1.7711

                     13                     14                     15
                      A                      A                      A
 Frequencies --    241.1612               256.5454               320.0889
 Red. masses --      3.7440                 2.9847                 4.1312
 Frc consts  --      0.1283                 0.1157                 0.2494
 IR Inten    --      6.9101                 2.3190                 4.4825

                     16                     17                     18
                      A                      A                      A
 Frequencies --    332.4608               384.1905               402.2571
 Red. masses --      2.8389                 1.8234                 2.3251
 Frc consts  --      0.1849                 0.1586                 0.2217
 IR Inten    --      3.3113                91.1698                29.1584

                     19                     20                     21
                      A                      A                      A
 Frequencies --    420.3113               441.7792               466.0773
 Red. masses --      1.8488                 2.5622                 1.8117
 Frc consts  --      0.1924                 0.2946                 0.2319
 IR Inten    --     42.9252                34.9433               126.2203

                     22                     23                     24
                      A                      A                      A
 Frequencies --    484.0483               514.6679               536.7097
 Red. masses --      2.9457                 2.7867                 3.6368
 Frc consts  --      0.4066                 0.4349                 0.6172
 IR Inten    --     11.4255                10.3056                27.5950

                     25                     26                     27
                      A                      A                      A
 Frequencies --    630.7839               647.4022               659.2292
 Red. masses --      4.8839                 3.1818                 4.1938
 Frc consts  --      1.1449                 0.7857                 1.0738
 IR Inten    --      0.6333                17.2828                19.7246

                     28                     29                     30
                      A                      A                      A
 Frequencies --    734.5480               762.3146               775.5293
 Red. masses --      4.6361                 7.1198                 2.8324
 Frc consts  --      1.4738                 2.4377                 1.0037
 IR Inten    --      2.6801                16.0395                 9.5398

                     31                     32                     33
                      A                      A                      A
 Frequencies --    790.2945               843.7416               856.0138
 Red. masses --      1.2382                 1.6503                 2.5888
 Frc consts  --      0.4556                 0.6922                 1.1177
 IR Inten    --      7.9712                12.6753                 4.7057

                     34                     35                     36
                      A                      A                      A
 Frequencies --    883.4707               924.9219               938.0521
 Red. masses --      2.4428                 3.0953                 1.5482
 Frc consts  --      1.1233                 1.5601                 0.8027
 IR Inten    --      9.1685                 0.6952                32.2829

                     37                     38                     39
                      A                      A                      A
 Frequencies --    946.0807               977.0564              1005.2248
 Red. masses --      1.7191                 1.3264                 5.9421
 Frc consts  --      0.9066                 0.7461                 3.5377
 IR Inten    --      1.6710                 0.1672                 4.2703

                     40                     41                     42
                      A                      A                      A
 Frequencies --   1022.4183              1080.3383              1091.2997
 Red. masses --      2.8358                 2.3401                 2.4085
 Frc consts  --      1.7466                 1.6092                 1.6900
 IR Inten    --      2.0773                43.4026                66.6265

                     43                     44                     45
                      A                      A                      A
 Frequencies --   1107.0211              1122.0604              1125.5420
 Red. masses --      2.0485                 2.0178                 2.0232
 Frc consts  --      1.4791                 1.4968                 1.5102
 IR Inten    --     25.9094                62.9900                26.1129

                     46                     47                     48
                      A                      A                      A
 Frequencies --   1139.0150              1161.9128              1187.2364
 Red. masses --      1.7533                 1.3164                 1.9661
 Frc consts  --      1.3402                 1.0471                 1.6328
 IR Inten    --      4.3578                21.1397                20.6364

                     49                     50                     51
                      A                      A                      A
 Frequencies --   1190.5077              1235.1382              1256.3064
 Red. masses --      1.6122                 1.4169                 2.3615
 Frc consts  --      1.3463                 1.2736                 2.1959
 IR Inten    --      3.0645                15.8458                13.3660

                     52                     53                     54
                      A                      A                      A
 Frequencies --   1281.3852              1305.1254              1348.6730
 Red. masses --      1.5687                 2.6918                 1.8153
 Frc consts  --      1.5176                 2.7014                 1.9454
 IR Inten    --    104.6856                25.3704                 9.3532

                     55                     56                     57
                      A                      A                      A
 Frequencies --   1352.3924              1380.1551              1398.5185
 Red. masses --      1.4589                 2.5655                 1.2830
 Frc consts  --      1.5721                 2.8792                 1.4785
 IR Inten    --     70.1601                53.6065                 8.5177

                     58                     59                     60
                      A                      A                      A
 Frequencies --   1400.6226              1418.3875              1421.4945
 Red. masses --      1.2224                 1.6847                 1.4413
 Frc consts  --      1.4129                 1.9969                 1.7159
 IR Inten    --     41.6730                16.3905                36.5052

                     61                     62                     63
                      A                      A                      A
 Frequencies --   1435.5979              1437.3621              1459.4298
 Red. masses --      1.3867                 1.3669                 1.7489
 Frc consts  --      1.6838                 1.6639                 2.1947
 IR Inten    --     48.3595                29.2332               150.8050

                     64                     65                     66
                      A                      A                      A
 Frequencies --   1477.9727              1505.8482              1509.8633
 Red. masses --      1.2263                 1.0791                 1.1084
 Frc consts  --      1.5783                 1.4416                 1.4888
 IR Inten    --     29.9161                40.1101                21.7180

                     67                     68                     69
                      A                      A                      A
 Frequencies --   1517.4638              1525.1399              1537.5564
 Red. masses --      1.0771                 1.0742                 1.2127
 Frc consts  --      1.4614                 1.4721                 1.6892
 IR Inten    --      8.0954                 8.7936                 5.3554

                     70                     71                     72
                      A                      A                      A
 Frequencies --   1538.4446              1541.5710              1548.2022
 Red. masses --      1.0740                 1.0897                 2.1086
 Frc consts  --      1.4976                 1.5258                 2.9778
 IR Inten    --      8.6502                 3.1216                 3.8552

                     73                     74                     75
                      A                      A                      A
 Frequencies --   1571.8564              1615.2883              1667.3445
 Red. masses --      1.8940                 5.6297                 5.0948
 Frc consts  --      2.7571                 8.6543                 8.3450
 IR Inten    --    228.2457                70.9862               252.0031

                     76                     77                     78
                      A                      A                      A
 Frequencies --   1736.7150              3007.8513              3027.1643
 Red. masses --     10.8921                 1.0719                 1.0507
 Frc consts  --     19.3561                 5.7135                 5.6728
 IR Inten    --    206.9246                58.5390                78.4919

                     79                     80                     81
                      A                      A                      A
 Frequencies --   3040.5583              3058.1515              3081.2776
 Red. masses --      1.0723                 1.0383                 1.0665
 Frc consts  --      5.8408                 5.7210                 5.9660
 IR Inten    --     37.9765                30.5340                39.2349

                     82                     83                     84
                      A                      A                      A
 Frequencies --   3110.5327              3112.7100              3116.6650
 Red. masses --      1.0928                 1.0841                 1.1015
 Frc consts  --      6.2297                 6.1884                 6.3039
 IR Inten    --     27.4458                37.3174                29.3581

                     85                     86                     87
                      A                      A                      A
 Frequencies --   3146.9407              3155.4028              3159.3995
 Red. masses --      1.0970                 1.1048                 1.1029
 Frc consts  --      6.4005                 6.4809                 6.4861
 IR Inten    --     11.4625                16.3479                17.3423

                     88                     89                     90
                      A                      A                      A
 Frequencies --   3170.5093              3171.0599              3209.6059
 Red. masses --      1.0900                 1.0912                 1.0917
 Frc consts  --      6.4557                 6.4649                 6.6262
 IR Inten    --     34.7855                 6.9802                15.2446

                     91                     92                     93
                      A                      A                      A
 Frequencies --   3240.4976              3630.4956              3697.3099
 Red. masses --      1.0929                 1.0769                 1.0652
 Frc consts  --      6.7619                 8.3631                 8.5795
 IR Inten    --      3.9232                25.9665                18.7940

 - Thermochemistry -
 -------------------
 Temperature   298.150 Kelvin.  Pressure   1.00000 Atm.
 Atom     1 has atomic number  6 and mass  12.00000

 Molecular mass:   223.13208 amu.
 Principal axes and moments of inertia in atomic units:
                           1         2         3
     Eigenvalues --  2107.735135449.177767034.99289
           X            0.99994  -0.00956   0.00516
           Y            0.00958   0.99995  -0.00245
           Z           -0.00513   0.00250   0.99998
 This molecule is an asymmetric top.
 Rotational symmetry number  1.
 Warning -- assumption of classical behavior for rotation
           may cause significant error
 Rotational temperatures (Kelvin)      0.04109     0.01589     0.01231
 Rotational constants (GHZ):           0.85625     0.33120     0.25654
 Zero-point vibrational energy     738734.3 (Joules/Mol)
                                  176.56174 (Kcal/Mol)
 Warning -- explicit consideration of  24 degrees of freedom as
           vibrations may cause significant error
 Vibrational temperatures:     62.68    76.38    98.34   136.90   146.95
          (Kelvin)            160.20   181.39   193.66   239.28   280.55
                              319.49   326.26   346.98   369.11   460.54
                              478.34   552.76   578.76   604.73   635.62
                              670.58   696.44   740.49   772.21   907.56
                              931.47   948.48  1056.85  1096.80  1115.81
                             1137.06  1213.96  1231.61  1271.12  1330.76
                             1349.65  1361.20  1405.77  1446.29  1471.03
                             1554.37  1570.14  1592.76  1614.39  1619.40
                             1638.79  1671.73  1708.17  1712.88  1777.09
                             1807.54  1843.63  1877.78  1940.44  1945.79
                             1985.74  2012.16  2015.18  2040.74  2045.21
                             2065.51  2068.04  2099.79  2126.47  2166.58
                             2172.36  2183.29  2194.34  2212.20  2213.48
                             2217.98  2227.52  2261.55  2324.04  2398.94
                             2498.75  4327.63  4355.41  4374.69  4400.00
                             4433.27  4475.36  4478.50  4484.19  4527.75
                             4539.92  4545.67  4561.66  4562.45  4617.91
                             4662.35  5223.47  5319.60

 Zero-point correction=                           0.281369 (Hartree/Particle)
 Thermal correction to Energy=                    0.297875
 Thermal correction to Enthalpy=                  0.298819
 Thermal correction to Gibbs Free Energy=         0.237071
 Sum of electronic and zero-point Energies=           -743.891476
 Sum of electronic and thermal Energies=              -743.874970
 Sum of electronic and thermal Enthalpies=            -743.874026
 Sum of electronic and thermal Free Energies=         -743.935774

                     E (Thermal)             CV                S
                      KCal/Mol        Cal/Mol-Kelvin    Cal/Mol-Kelvin
 Total                  186.919             61.052            129.959
 Electronic               0.000              0.000              0.000
 Translational            0.889              2.981             42.110
 Rotational               0.889              2.981             32.757
 Vibrational            185.142             55.090             55.091
 Vibration     1          0.595              1.980              5.090
 Vibration     2          0.596              1.976              4.699
 Vibration     3          0.598              1.969              4.200
 Vibration     4          0.603              1.953              3.551
 Vibration     5          0.604              1.947              3.413
 Vibration     6          0.607              1.940              3.245
 Vibration     7          0.611              1.927              3.005
 Vibration     8          0.613              1.919              2.879
 Vibration     9          0.624              1.884              2.477
 Vibration    10          0.636              1.847              2.180
 Vibration    11          0.648              1.807              1.942
 Vibration    12          0.650              1.800              1.904
 Vibration    13          0.658              1.777              1.794
 Vibration    14          0.666              1.752              1.685
 Vibration    15          0.706              1.635              1.310
 Vibration    16          0.714              1.611              1.248
 Vibration    17          0.753              1.504              1.023
 Vibration    18          0.768              1.465              0.954
 Vibration    19          0.783              1.426              0.891
 Vibration    20          0.802              1.379              0.821
 Vibration    21          0.823              1.325              0.749
 Vibration    22          0.840              1.285              0.699
 Vibration    23          0.870              1.217              0.622
 Vibration    24          0.892              1.169              0.572

 Optimization completed.
    -- Stationary point found.
 Normal termination of Gaussian 16 at Fri Dec 11 00:56:18 2020.

 ----------------------------------------------------------------------
 # B3LYP/6-311++G(d,p) empiricaldispersion=gd3bj scf=xqc pop=npa geom=c
 heck
 ----------------------------------------------------------------------

 --------------------------------------
 CID_62180244_JID_6816_Energie_neutraal
 --------------------------------------
 Structure from the checkpoint file:  "JID_6816.chk"
 Charge =  0 Multiplicity = 1

 SCF Done:  E(RB3LYP) =  -744.390750883     A.U. after   16 cycles
 Normal termination of Gaussian 16 at Fri Dec 11 01:01:37 2020.

 ----------------------------------------------------------------------
 # B3LYP/6-311++G(d,p) empiricaldispersion=gd3bj scf=xqc pop=npa geom=c
 heck
 ----------------------------------------------------------------------

 ------------------------------------
 CID_62180244_JID_6816_Energie_kation
 ------------------------------------
 Structure from the checkpoint file:  "JID_6816.chk"
 Charge =  1 Multiplicity = 2

 SCF Done:  E(UB3LYP) =  -744.108507754     A.U. after   24 cycles
 Normal termination of Gaussian 16 at Fri Dec 11 01:12:51 2020.
 Gaussian 16:  ES64L-G16RevA.03 25-Dec-2016

 ----------------------------------------------------------------------
 # B3LYP/6-311++G(d,p) empiricaldispersion=gd3bj scf=xqc pop=npa geom=c
 heck
 ----------------------------------------------------------------------

 -----------------------------------
 CID_62180244_JID_6816_Energie_anion
 -----------------------------------
 Structure from the checkpoint file:  "JID_6816.chk"
 Charge = -1 Multiplicity = 2

                         Standard orientation:
 ---------------------------------------------------------------------
 Center     Atomic      Atomic             Coordinates (Angstroms)
 Number     Number       Type             X           Y           Z
 ---------------------------------------------------------------------
      1          6           0        4.158809   -0.944441    0.633941
      2          6           0        3.427418   -0.031625   -0.351539
      3          7           0        1.991821    0.103580   -0.054863
      4          6           0        1.636827    1.063405    0.992485
      5          6           0        1.707243    2.507409    0.479237
      6          8           0        0.958668    2.692287   -0.712716
      7          6           0        1.194129   -0.957425   -0.445771
      8          8           0        1.670294   -1.911803   -1.054852
      9          6           0       -0.281890   -0.938939   -0.146730
     10          6           0       -1.092798    0.174589   -0.315505
     11          6           0       -2.483263    0.039966   -0.089070
     12          7           0       -3.047159   -1.111724    0.304369
     13          6           0       -2.242590   -2.175610    0.445023
     14          6           0       -0.873457   -2.158818    0.225981
     15          7           0       -3.316482    1.112571   -0.294597
     16          6           0       -4.704959    1.086342    0.125675
     17          1           0        4.067964   -0.581789    1.664139
     18          1           0        5.225293   -0.988987    0.387445
     19          1           0        3.747698   -1.955121    0.578795
     20          1           0        3.862891    0.972683   -0.343774
     21          1           0        3.516221   -0.430682   -1.362949
     22          1           0        0.631336    0.839844    1.345054
     23          1           0        2.319709    0.947086    1.845518
     24          1           0        1.280203    3.181061    1.228276
     25          1           0        2.755349    2.808573    0.327132
     26          1           0        1.263723    2.002570   -1.327586
     27          1           0       -0.684447    1.134838   -0.612023
     28          1           0       -2.735283   -3.095912    0.754377
     29          1           0       -0.268571   -3.051421    0.327433
     30          1           0       -2.868406    2.015062   -0.354035
     31          1           0       -4.817144    0.992010    1.215368
     32          1           0       -5.184958    2.010655   -0.205995
     33          1           0       -5.213346    0.235547   -0.333357
 ---------------------------------------------------------------------

 SCF Done:  E(UB3LYP) =  -744.387830372     A.U. after   33 cycles
 SCF Done:  E(UB3LYP) =  -744.387830372     a.u. after    1 cycles

 The electronic state is 2-A.
 Alpha  occ. eigenvalues --  -19.02829 -18.95917 -14.22505 -14.21397 -14.16269
 Alpha  occ. eigenvalues --  -10.14028 -10.11986 -10.11500 -10.10121 -10.09734
 Alpha  occ. eigenvalues --  -10.09390 -10.06924 -10.05493 -10.05105 -10.03826
 Alpha  occ. eigenvalues --  -10.03665  -0.93200  -0.91445  -0.84717  -0.81819
 Alpha  occ. eigenvalues --   -0.78045  -0.68079  -0.65780  -0.63331  -0.63106
 Alpha  occ. eigenvalues --   -0.57796  -0.54238  -0.53781  -0.51210  -0.48819
 Alpha  occ. eigenvalues --   -0.43918  -0.41991  -0.41047  -0.39501  -0.38534
 Alpha  occ. eigenvalues --   -0.35955  -0.35919  -0.34188  -0.33970  -0.33031
 Alpha  occ. eigenvalues --   -0.32499  -0.31570  -0.31138  -0.30366  -0.29058
 Alpha  occ. eigenvalues --   -0.28566  -0.28220  -0.27549  -0.26066  -0.25780
 Alpha  occ. eigenvalues --   -0.24659  -0.24142  -0.23421  -0.18760  -0.18600
 Alpha  occ. eigenvalues --   -0.16029  -0.14078  -0.13780  -0.12574  -0.09253
 Alpha  occ. eigenvalues --    0.04438
 Alpha virt. eigenvalues --    0.06395   0.06859   0.07931   0.08443   0.09282
 Alpha virt. eigenvalues --    0.09487   0.10355   0.10740   0.11279   0.11494
 Alpha virt. eigenvalues --    0.11859   0.12077   0.12961   0.13626   0.14149

  Beta  occ. eigenvalues --  -19.02827 -18.95769 -14.22461 -14.21389 -14.16016
  Beta  occ. eigenvalues --  -10.13914 -10.11965 -10.11537 -10.10113 -10.09732
  Beta  occ. eigenvalues --  -10.09380 -10.06843 -10.05459 -10.04879 -10.03853
  Beta  occ. eigenvalues --  -10.03516  -0.93185  -0.91181  -0.84579  -0.81682
  Beta  occ. eigenvalues --   -0.77810  -0.67661  -0.65704  -0.63187  -0.63022
  Beta  occ. eigenvalues --   -0.57667  -0.54108  -0.53609  -0.51018  -0.48576
  Beta  occ. eigenvalues --   -0.43809  -0.41910  -0.41014  -0.39392  -0.38450
  Beta  occ. eigenvalues --   -0.35844  -0.35829  -0.34076  -0.33849  -0.32960
  Beta  occ. eigenvalues --   -0.32334  -0.31493  -0.30979  -0.30260  -0.29026
  Beta  occ. eigenvalues --   -0.28486  -0.28019  -0.27065  -0.25894  -0.25390
  Beta  occ. eigenvalues --   -0.24580  -0.24086  -0.23218  -0.18539  -0.18451
  Beta  occ. eigenvalues --   -0.14976  -0.13640  -0.13404  -0.12165  -0.08703
  Beta virt. eigenvalues --    0.06710   0.07195   0.08283   0.08649   0.09013
  Beta virt. eigenvalues --    0.09318   0.09566   0.10498   0.10919   0.11441
  Beta virt. eigenvalues --    0.11511   0.11804   0.12231   0.13019   0.13674

 Mulliken charges and spin densities:
               1          2
     1  C    0.506796  -0.921392
     2  C   -0.315528   0.101081
     3  N    0.049677   0.011403
     4  C   -0.824796   0.507221
     5  C    0.742818  -1.169396
     6  O   -0.216805   0.033354
     7  C   -1.420433   0.028024
     8  O   -0.299902   0.046986
     9  C    1.079624   0.115534
    10  C    0.064813   0.202477
    11  C   -0.503225  -0.235196
    12  N   -0.156126   0.107579
    13  C   -0.298363   0.040195
    14  C    0.270102   0.086303
    15  N   -0.127670   0.017613
    16  C   -0.248194  -0.088786
    17  H    0.019067   0.093103
    18  H   -0.255511   0.395078
    19  H    0.043470   0.138003
    20  H   -0.396337   0.514995
    21  H    0.208925  -0.025252
    22  H    0.213598   0.009399
    23  H   -0.200003   0.314917
    24  H   -0.142851   0.303414
    25  H   -0.090690   0.256225
    26  H    0.201535   0.046631
    27  H    0.269445  -0.094758
    28  H    0.131723  -0.001733
    29  H    0.173350   0.015392
    30  H    0.183218   0.061131
    31  H    0.102158   0.048221
    32  H    0.082123   0.025261
    33  H    0.153993   0.016976
 Sum of Mulliken charges =  -1.00000   1.00000

 Dipole moment (field-independent basis, Debye):
    X=             -3.6637    Y=              1.7659    Z=              0.2969  Tot=              4.0779
 Quadrupole moment (field-independent basis, Debye-Ang):
   XX=           -163.6246   YY=           -132.4293   ZZ=           -115.4172
   XY=             -8.1185   XZ=             -0.8910   YZ=             -4.9945

 Summary of Natural Population Analysis:

                                       Natural Population
                Natural  -----------------------------------------------
    Atom  No    Charge         Core      Valence    Rydberg      Total
 -----------------------------------------------------------------------
      C    1   -0.29386      0.99966     2.28910    0.00510     3.29386
      C    2   -0.08998      0.99962     2.07811    0.01224     3.08998
      N    3   -0.26587      0.99965     2.75472    0.01150     3.76587
      C    4   -0.10030      0.99960     2.09044    0.01026     3.10030
      C    5   -0.01480      0.99960     2.00233    0.01288     3.01480
      O    6   -0.37017      0.99990     3.36362    0.00666     4.37017
      C    7    0.35598      0.99960     1.61999    0.02443     2.64402
      O    8   -0.31194      0.99988     3.30721    0.00485     4.31194
      C    9   -0.00374      0.99941     1.99334    0.01098     3.00374
      C   10   -0.12078      0.99949     2.11189    0.00939     3.12078
      C   11    0.19335      0.99954     1.79095    0.01615     2.80665
      N   12   -0.24343      0.99967     2.73181    0.01195     3.74343
      C   13    0.03981      0.99960     1.94697    0.01361     2.96019
      C   14   -0.13629      0.99953     2.12883    0.00793     3.13629
      N   15   -0.31463      0.99967     2.80563    0.00932     3.81463
      C   16   -0.17678      0.99966     2.16967    0.00745     3.17678
      H   17    0.09380      0.00000     0.40522    0.00098     0.40620
      H   18    0.09860      0.00000     0.40024    0.00116     0.40140
      H   19    0.10812      0.00000     0.39094    0.00094     0.39188
      H   20    0.09232      0.00000     0.40604    0.00164     0.40768
      H   21    0.10701      0.00000     0.39192    0.00107     0.39299
      H   22    0.11304      0.00000     0.38560    0.00137     0.38696
      H   23    0.09334      0.00000     0.40553    0.00113     0.40666
      H   24    0.08679      0.00000     0.41199    0.00122     0.41321
      H   25    0.07667      0.00000     0.42141    0.00192     0.42333
      H   26    0.23096      0.00000     0.26603    0.00301     0.26904
      H   27    0.10652      0.00000     0.39170    0.00178     0.39348
      H   28    0.08055      0.00000     0.41830    0.00115     0.41945
      H   29    0.10602      0.00000     0.39309    0.00089     0.39398
      H   30    0.18546      0.00000     0.31235    0.00219     0.31454
      H   31    0.08575      0.00000     0.41199    0.00226     0.41425
      H   32    0.08761      0.00000     0.41163    0.00075     0.41239
      H   33    0.10088      0.00000     0.39763    0.00149     0.39912
 =======================================================================
   * Total *    0.00001     15.99410    43.80624    0.19965    59.99999

 Normal termination of Gaussian 16 at Fri Dec 11 01:28:22 2020.
