 Gaussian 16, Revision A.03,

 -----------------------------------------------------------
 # opt freq B3LYP/6-31G(d) empiricaldispersion=gd3bj scf=xqc
 -----------------------------------------------------------

 ------------------------------
 CID_97626937_JID_3292_neutraal
 ------------------------------
 Symbolic Z-matrix:
 Charge =  0 Multiplicity = 1

 SCF Done:  E(RB3LYP) =  -663.233207859     A.U. after   15 cycles
 SCF Done:  E(RB3LYP) =  -663.236173314     A.U. after   13 cycles
 SCF Done:  E(RB3LYP) =  -663.237551495     A.U. after   13 cycles
 SCF Done:  E(RB3LYP) =  -663.238176269     A.U. after   12 cycles
 SCF Done:  E(RB3LYP) =  -663.238369080     A.U. after   11 cycles
 SCF Done:  E(RB3LYP) =  -663.238494720     A.U. after   12 cycles
 SCF Done:  E(RB3LYP) =  -663.238586891     A.U. after   11 cycles
 SCF Done:  E(RB3LYP) =  -663.238663069     A.U. after   12 cycles
 SCF Done:  E(RB3LYP) =  -663.238748740     A.U. after   12 cycles
 SCF Done:  E(RB3LYP) =  -663.238814326     A.U. after   13 cycles
 SCF Done:  E(RB3LYP) =  -663.240338983     A.U. after   10 cycles
 SCF Done:  E(RB3LYP) =  -663.240340040     A.U. after    9 cycles
 SCF Done:  E(RB3LYP) =  -663.240340489     A.U. after    8 cycles
 SCF Done:  E(RB3LYP) =  -663.240340609     A.U. after    8 cycles
 SCF Done:  E(RB3LYP) =  -663.240340513     A.U. after    8 cycles
 SCF Done:  E(RB3LYP) =  -663.240340569     A.U. after    7 cycles
 Optimization completed.
    -- Stationary point found.
 Normal termination of Gaussian 16 at Wed Dec  9 22:54:28 2020.

 --------------------------------------------------------------------
 #N Geom=AllCheck Guess=TCheck SCRF=Check GenChk RB3LYP/6-31G(d) Freq
 --------------------------------------------------------------------

 Structure from the checkpoint file:  "JID_3292.chk"
 ------------------------------
 CID_97626937_JID_3292_neutraal
 ------------------------------
 Charge =  0 Multiplicity = 1

 SCF Done:  E(RB3LYP) =  -663.240340569     A.U. after    1 cycles

  Exact polarizability: 124.381   4.821  99.695 -17.694   8.763  76.249
 Approx polarizability: 174.014   1.166 168.098 -35.370  25.693 115.388

                      1                      2                      3
                      A                      A                      A
 Frequencies --     24.9006                37.8126                63.3229
 Red. masses --      4.6395                 5.1626                 4.0372
 Frc consts  --      0.0017                 0.0043                 0.0095
 IR Inten    --      1.2293                 0.4675                 4.4618

                      4                      5                      6
                      A                      A                      A
 Frequencies --     81.9987               130.9444               173.4074
 Red. masses --      2.4024                 2.6090                 4.0228
 Frc consts  --      0.0095                 0.0264                 0.0713
 IR Inten    --      0.4905                 3.4340                 2.1893

                      7                      8                      9
                      A                      A                      A
 Frequencies --    176.7656               195.4161               220.9874
 Red. masses --      4.9501                 4.1092                 1.8738
 Frc consts  --      0.0911                 0.0925                 0.0539
 IR Inten    --      3.5119                 1.2138                 7.0202

                     10                     11                     12
                      A                      A                      A
 Frequencies --    283.3676               298.1662               355.2696
 Red. masses --      6.0855                 5.5949                 3.6915
 Frc consts  --      0.2879                 0.2931                 0.2745
 IR Inten    --      2.4592                 4.6129                23.7903

                     13                     14                     15
                      A                      A                      A
 Frequencies --    412.8057               421.1741               440.9224
 Red. masses --      1.6448                 2.1714                 1.7911
 Frc consts  --      0.1651                 0.2269                 0.2052
 IR Inten    --     65.5515                11.1498                57.3475

                     16                     17                     18
                      A                      A                      A
 Frequencies --    509.9548               539.1227               622.0224
 Red. masses --      2.1967                 2.7786                 3.7958
 Frc consts  --      0.3366                 0.4758                 0.8653
 IR Inten    --     66.3545                12.8116                44.9419

                     19                     20                     21
                      A                      A                      A
 Frequencies --    631.8001               661.9535               686.5556
 Red. masses --      4.6236                 6.2125                 2.8464
 Frc consts  --      1.0874                 1.6039                 0.7905
 IR Inten    --     22.3183                 1.7157                48.0662

                     22                     23                     24
                      A                      A                      A
 Frequencies --    713.0242               765.6288               788.5952
 Red. masses --      3.1113                 1.7776                 2.5404
 Frc consts  --      0.9320                 0.6139                 0.9308
 IR Inten    --     69.7706                56.2622                 4.2730

                     25                     26                     27
                      A                      A                      A
 Frequencies --    847.7543               874.3997               964.4592
 Red. masses --      2.5706                 1.3703                 2.4251
 Frc consts  --      1.0885                 0.6173                 1.3290
 IR Inten    --     13.7748                 2.3694                 5.4361

                     28                     29                     30
                      A                      A                      A
 Frequencies --    989.2226              1012.3936              1044.4606
 Red. masses --      3.4578                 4.6010                 2.2105
 Frc consts  --      1.9936                 2.7784                 1.4207
 IR Inten    --     19.3252                22.2609                 3.7382

                     31                     32                     33
                      A                      A                      A
 Frequencies --   1069.6692              1085.3461              1099.6338
 Red. masses --      2.9444                 2.3236                 1.8284
 Frc consts  --      1.9849                 1.6127                 1.3026
 IR Inten    --     15.1571                73.2995                14.0188

                     34                     35                     36
                      A                      A                      A
 Frequencies --   1173.8008              1187.2165              1198.1498
 Red. masses --      2.6956                 1.2929                 1.8441
 Frc consts  --      2.1882                 1.0737                 1.5597
 IR Inten    --     64.0714                 3.5313                11.1428

                     37                     38                     39
                      A                      A                      A
 Frequencies --   1216.9353              1256.6820              1314.5637
 Red. masses --      1.7809                 1.8396                 3.7655
 Frc consts  --      1.5539                 1.7117                 3.8338
 IR Inten    --     46.8200                25.4669               117.3250

                     40                     41                     42
                      A                      A                      A
 Frequencies --   1340.1695              1382.4826              1392.3567
 Red. masses --      1.2754                 2.1436                 1.3898
 Frc consts  --      1.3496                 2.4139                 1.5875
 IR Inten    --     21.4578                54.4061                32.7345

                     43                     44                     45
                      A                      A                      A
 Frequencies --   1408.2388              1416.4683              1428.2024
 Red. masses --      1.5370                 3.1362                 1.5156
 Frc consts  --      1.7959                 3.7073                 1.8214
 IR Inten    --     20.5212                22.2448                19.1768

                     46                     47                     48
                      A                      A                      A
 Frequencies --   1459.9155              1495.6652              1497.9413
 Red. masses --      3.3756                 1.2005                 1.1193
 Frc consts  --      4.2389                 1.5822                 1.4798
 IR Inten    --     29.4909                17.3841                 1.9259

                     49                     50                     51
                      A                      A                      A
 Frequencies --   1512.9776              1526.1543              1531.0014
 Red. masses --      1.0731                 1.1353                 4.1743
 Frc consts  --      1.4473                 1.5579                 5.7648
 IR Inten    --      7.9684                 2.1699                31.4797

                     52                     53                     54
                      A                      A                      A
 Frequencies --   1544.1857              1560.0716              1575.3093
 Red. masses --      1.0517                 5.0174                 1.1905
 Frc consts  --      1.4775                 7.1947                 1.7407
 IR Inten    --      5.0707                12.9539                40.5765

                     55                     56                     57
                      A                      A                      A
 Frequencies --   1768.2839              2995.8554              3016.0789
 Red. masses --      9.0633                 1.0670                 1.0463
 Frc consts  --     16.6971                 5.6422                 5.6076
 IR Inten    --    248.0035                35.3530                51.9644

                     58                     59                     60
                      A                      A                      A
 Frequencies --   3070.1444              3086.1149              3101.4865
 Red. masses --      1.0704                 1.0929                 1.0900
 Frc consts  --      5.9442                 6.1328                 6.1778
 IR Inten    --     14.4504                61.2048                27.5804

                     61                     62                     63
                      A                      A                      A
 Frequencies --   3145.5159              3159.6826              3277.6159
 Red. masses --      1.1033                 1.0984                 1.0945
 Frc consts  --      6.4319                 6.4609                 6.9276
 IR Inten    --     25.7418                 3.8285                 0.2318

                     64                     65                     66
                      A                      A                      A
 Frequencies --   3308.1709              3594.6758              3613.3458
 Red. masses --      1.1021                 1.0747                 1.0701
 Frc consts  --      7.1066                 8.1817                 8.2320
 IR Inten    --      1.2544                 4.6077               192.0612

 - Thermochemistry -
 -------------------
 Temperature   298.150 Kelvin.  Pressure   1.00000 Atm.
 Atom     1 has atomic number  6 and mass  12.00000

 Molecular mass:   185.08004 amu.
 Principal axes and moments of inertia in atomic units:
                           1         2         3
     Eigenvalues --  1361.393903714.345724022.64077
           X            0.99996   0.00842   0.00191
           Y           -0.00838   0.99972  -0.02235
           Z           -0.00210   0.02234   0.99975
 This molecule is an asymmetric top.
 Rotational symmetry number  1.
 Warning -- assumption of classical behavior for rotation
           may cause significant error
 Rotational temperatures (Kelvin)      0.06362     0.02332     0.02153
 Rotational constants (GHZ):           1.32566     0.48588     0.44865
 Zero-point vibrational energy     507089.3 (Joules/Mol)
                                  121.19726 (Kcal/Mol)
 Warning -- explicit consideration of  17 degrees of freedom as
           vibrations may cause significant error
 Vibrational temperatures:     35.83    54.40    91.11   117.98   188.40
          (Kelvin)            249.49   254.33   281.16   317.95   407.70
                              428.99   511.15   593.94   605.98   634.39
                              733.71   775.68   894.95   909.02   952.40
                              987.80  1025.88  1101.57  1134.61  1219.73
                             1258.07  1387.64  1423.27  1456.61  1502.75
                             1539.02  1561.57  1582.13  1688.84  1708.14
                             1723.87  1750.90  1808.09  1891.36  1928.20
                             1989.08  2003.29  2026.14  2037.98  2054.86
                             2100.49  2151.93  2155.20  2176.84  2195.80
                             2202.77  2221.74  2244.60  2266.52  2544.17
                             4310.37  4339.46  4417.25  4440.23  4462.35
                             4525.70  4546.08  4715.76  4759.72  5171.94
                             5198.80

 Zero-point correction=                           0.193140 (Hartree/Particle)
 Thermal correction to Energy=                    0.206114
 Thermal correction to Enthalpy=                  0.207058
 Thermal correction to Gibbs Free Energy=         0.151940
 Sum of electronic and zero-point Energies=           -663.047200
 Sum of electronic and thermal Energies=              -663.034226
 Sum of electronic and thermal Enthalpies=            -663.033282
 Sum of electronic and thermal Free Energies=         -663.088401

                     E (Thermal)             CV                S
                      KCal/Mol        Cal/Mol-Kelvin    Cal/Mol-Kelvin
 Total                  129.339             46.610            116.007
 Electronic               0.000              0.000              0.000
 Translational            0.889              2.981             41.553
 Rotational               0.889              2.981             31.387
 Vibrational            127.561             40.649             43.067
 Vibration     1          0.593              1.985              6.199
 Vibration     2          0.594              1.982              5.371
 Vibration     3          0.597              1.972              4.351
 Vibration     4          0.600              1.961              3.842
 Vibration     5          0.612              1.922              2.932
 Vibration     6          0.627              1.875              2.398
 Vibration     7          0.628              1.871              2.362
 Vibration     8          0.636              1.846              2.176
 Vibration     9          0.648              1.809              1.951
 Vibration    10          0.682              1.704              1.513
 Vibration    11          0.691              1.677              1.427
 Vibration    12          0.731              1.564              1.143
 Vibration    13          0.777              1.442              0.917
 Vibration    14          0.784              1.424              0.888
 Vibration    15          0.801              1.381              0.824
 Vibration    16          0.865              1.228              0.634
 Vibration    17          0.894              1.164              0.567

 Optimization completed.
    -- Stationary point found.
 Normal termination of Gaussian 16 at Wed Dec  9 22:59:56 2020.

 ----------------------------------------------------------------------
 # B3LYP/6-311++G(d,p) empiricaldispersion=gd3bj scf=xqc pop=npa geom=c
 heck
 ----------------------------------------------------------------------

 --------------------------------------
 CID_97626937_JID_3292_Energie_neutraal
 --------------------------------------
 Structure from the checkpoint file:  "JID_3292.chk"
 Charge =  0 Multiplicity = 1

 SCF Done:  E(RB3LYP) =  -663.443130785     A.U. after   15 cycles
 Normal termination of Gaussian 16 at Wed Dec  9 23:01:48 2020.

 ----------------------------------------------------------------------
 # B3LYP/6-311++G(d,p) empiricaldispersion=gd3bj scf=xqc pop=npa geom=c
 heck
 ----------------------------------------------------------------------

 ------------------------------------
 CID_97626937_JID_3292_Energie_kation
 ------------------------------------
 Structure from the checkpoint file:  "JID_3292.chk"
 Charge =  1 Multiplicity = 2

 SCF Done:  E(UB3LYP) =  -663.121784531     A.U. after   25 cycles
 Normal termination of Gaussian 16 at Wed Dec  9 23:05:52 2020.
 Gaussian 16:  ES64L-G16RevA.03 25-Dec-2016

 ----------------------------------------------------------------------
 # B3LYP/6-311++G(d,p) empiricaldispersion=gd3bj scf=xqc pop=npa geom=c
 heck
 ----------------------------------------------------------------------

 -----------------------------------
 CID_97626937_JID_3292_Energie_anion
 -----------------------------------
 Structure from the checkpoint file:  "JID_3292.chk"
 Charge = -1 Multiplicity = 2

                         Standard orientation:
 ---------------------------------------------------------------------
 Center     Atomic      Atomic             Coordinates (Angstroms)
 Number     Number       Type             X           Y           Z
 ---------------------------------------------------------------------
      1          6           0        2.076254   -0.752602    1.819317
      2          8           0        2.872851   -1.164283    0.716141
      3          6           0        3.183676   -0.156098   -0.212938
      4          6           0        2.119863    0.042477   -1.300135
      5          7           0        0.874830    0.608595   -0.801936
      6          6           0        0.656992    1.882105   -0.362757
      7          6           0       -0.628722    1.924954    0.133373
      8          6           0       -1.123578    0.614514   -0.049841
      9          7           0       -0.199365   -0.177003   -0.616431
     10          6           0       -2.461663    0.131690    0.372248
     11          8           0       -3.205275    0.821898    1.060896
     12          7           0       -2.770243   -1.182713    0.083760
     13          8           0       -2.289097   -1.808276   -1.092503
     14          1           0        2.124327   -1.561722    2.552099
     15          1           0        1.029405   -0.586708    1.542845
     16          1           0        2.477265    0.164972    2.275789
     17          1           0        3.381939    0.802722    0.294075
     18          1           0        4.108234   -0.466831   -0.714108
     19          1           0        2.514559    0.702896   -2.081032
     20          1           0        1.863861   -0.918143   -1.749624
     21          1           0        1.423588    2.639117   -0.442704
     22          1           0       -1.158172    2.760344    0.563694
     23          1           0       -3.748724   -1.417766    0.205057
     24          1           0       -1.317599   -1.777988   -0.975706
 ---------------------------------------------------------------------

 SCF Done:  E(UB3LYP) =  -663.441503258     A.U. after   31 cycles

 The electronic state is 2-A.
 Alpha  occ. eigenvalues --  -19.04317 -19.02786 -18.96574 -14.27464 -14.25806
 Alpha  occ. eigenvalues --  -14.21003 -10.14418 -10.11915 -10.11159 -10.10508
 Alpha  occ. eigenvalues --  -10.09303 -10.07558 -10.05695  -0.96990  -0.94541
 Alpha  occ. eigenvalues --   -0.93544  -0.90754  -0.74140  -0.72514  -0.67764
 Alpha  occ. eigenvalues --   -0.64701  -0.59271  -0.54070  -0.52141  -0.46752
 Alpha  occ. eigenvalues --   -0.46476  -0.42376  -0.40547  -0.39406  -0.38721
 Alpha  occ. eigenvalues --   -0.37310  -0.35947  -0.33892  -0.33064  -0.31682
 Alpha  occ. eigenvalues --   -0.30994  -0.30041  -0.29274  -0.28415  -0.28094
 Alpha  occ. eigenvalues --   -0.26971  -0.23111  -0.22139  -0.18919  -0.16971
 Alpha  occ. eigenvalues --   -0.15214  -0.14897  -0.13901  -0.12250   0.04435
 Alpha virt. eigenvalues --    0.06843   0.08423   0.08634   0.09316   0.10051
 Alpha virt. eigenvalues --    0.10769   0.11287   0.11770   0.12116   0.13503
 Alpha virt. eigenvalues --    0.13722   0.14358   0.15468   0.15752   0.17271

  Beta  occ. eigenvalues --  -19.04300 -19.02785 -18.96380 -14.27315 -14.25778
  Beta  occ. eigenvalues --  -14.20625 -10.14253 -10.11875 -10.11158 -10.10488
  Beta  occ. eigenvalues --  -10.09279 -10.07506 -10.05721  -0.96905  -0.94371
  Beta  occ. eigenvalues --   -0.93348  -0.90422  -0.73839  -0.72391  -0.67550
  Beta  occ. eigenvalues --   -0.64599  -0.59159  -0.53806  -0.52076  -0.46610
  Beta  occ. eigenvalues --   -0.46281  -0.42239  -0.40466  -0.39307  -0.38556
  Beta  occ. eigenvalues --   -0.37131  -0.35791  -0.33627  -0.32877  -0.31391
  Beta  occ. eigenvalues --   -0.30792  -0.29838  -0.29173  -0.28040  -0.27880
  Beta  occ. eigenvalues --   -0.26839  -0.22685  -0.22093  -0.18510  -0.16866
  Beta  occ. eigenvalues --   -0.14911  -0.13841  -0.13384  -0.11892
  Beta virt. eigenvalues --    0.07631   0.08639   0.09096   0.09363   0.09610
  Beta virt. eigenvalues --    0.10315   0.11232   0.11599   0.11963   0.12638
  Beta virt. eigenvalues --    0.13705   0.13877   0.14592   0.15522   0.15858

 Mulliken charges and spin densities:
               1          2
     1  C   -0.325301  -0.037977
     2  O   -0.174551   0.024349
     3  C    0.665297  -0.975670
     4  C    0.105649  -0.384891
     5  N    0.252959   0.063305
     6  C    0.225898  -0.494686
     7  C   -0.021988   0.019283
     8  C    0.115501  -0.348852
     9  N   -0.314019   0.262827
    10  C   -0.048554   0.101627
    11  O   -0.424752   0.065200
    12  N   -0.286561   0.013479
    13  O   -0.182534   0.006660
    14  H    0.133143   0.001301
    15  H    0.248047  -0.023921
    16  H    0.105144   0.003025
    17  H    0.077277   0.054631
    18  H   -0.684087   0.864117
    19  H   -0.671305   0.847799
    20  H    0.124251   0.078139
    21  H   -0.679911   0.837083
    22  H    0.155392   0.027111
    23  H    0.301831  -0.000759
    24  H    0.303174  -0.003182
 Sum of Mulliken charges =  -1.00000   1.00000

 Dipole moment (field-independent basis, Debye):
    X=             -2.5229    Y=             -2.2849    Z=              3.4897  Tot=              4.8749
 Quadrupole moment (field-independent basis, Debye-Ang):
   XX=           -143.8785   YY=           -103.5128   ZZ=           -102.8988
   XY=             -0.3315   XZ=             18.5351   YZ=              3.0301

 Summary of Natural Population Analysis:

                                       Natural Population
                Natural  -----------------------------------------------
    Atom  No    Charge         Core      Valence    Rydberg      Total
 -----------------------------------------------------------------------
      C    1   -0.09882      0.99960     2.09129    0.00793     3.09882
      O    2   -0.29846      0.99989     3.28957    0.00901     4.29846
      C    3   -0.01139      0.99958     1.99690    0.01491     3.01139
      C    4   -0.09782      0.99960     2.08534    0.01288     3.09782
      N    5   -0.08954      0.99967     2.57480    0.01507     3.58954
      C    6   -0.01455      0.99956     2.00337    0.01163     3.01455
      C    7   -0.14815      0.99953     2.13902    0.00961     3.14815
      C    8    0.01938      0.99954     1.96308    0.01801     2.98062
      N    9   -0.11749      0.99967     2.60592    0.01190     3.61749
      C   10    0.33647      0.99962     1.64367    0.02024     2.66353
      O   11   -0.30501      0.99988     3.29919    0.00593     4.30501
      N   12   -0.16991      0.99964     2.65713    0.01314     3.66991
      O   13   -0.29281      0.99990     3.28565    0.00726     4.29281
      H   14    0.08463      0.00000     0.41454    0.00082     0.41537
      H   15    0.09196      0.00000     0.40660    0.00144     0.40804
      H   16    0.07546      0.00000     0.42347    0.00106     0.42454
      H   17    0.07848      0.00000     0.41991    0.00161     0.42152
      H   18    0.09545      0.00000     0.40166    0.00290     0.40455
      H   19    0.10814      0.00000     0.38488    0.00698     0.39186
      H   20    0.10824      0.00000     0.39022    0.00154     0.39176
      H   21    0.10529      0.00000     0.39329    0.00142     0.39471
      H   22    0.11312      0.00000     0.38605    0.00084     0.38688
      H   23    0.17924      0.00000     0.31800    0.00276     0.32076
      H   24    0.24810      0.00000     0.24923    0.00266     0.25190
 =======================================================================
   * Total *    0.00000     12.99567    35.82277    0.18156    49.00000

 Normal termination of Gaussian 16 at Wed Dec  9 23:10:55 2020.
