 Gaussian 16, Revision A.03,

 -----------------------------------------------------------
 # opt freq B3LYP/6-31G(d) empiricaldispersion=gd3bj scf=xqc
 -----------------------------------------------------------

 -------------------------------
 CID_146208387_JID_1087_neutraal
 -------------------------------
 Symbolic Z-matrix:
 Charge =  0 Multiplicity = 1

 SCF Done:  E(RB3LYP) =  -494.412239490     A.U. after   15 cycles
 SCF Done:  E(RB3LYP) =  -494.418188066     A.U. after   13 cycles
 SCF Done:  E(RB3LYP) =  -494.420269406     A.U. after   13 cycles
 SCF Done:  E(RB3LYP) =  -494.421933751     A.U. after   13 cycles
 SCF Done:  E(RB3LYP) =  -494.421907090     A.U. after   13 cycles
 SCF Done:  E(RB3LYP) =  -494.420802043     A.U. after   14 cycles
 SCF Done:  E(RB3LYP) =  -494.419899373     A.U. after   13 cycles
 SCF Done:  E(RB3LYP) =  -494.422445399     A.U. after   11 cycles
 SCF Done:  E(RB3LYP) =  -494.423636247     A.U. after   12 cycles
 SCF Done:  E(RB3LYP) =  -494.423729098     A.U. after   12 cycles
 SCF Done:  E(RB3LYP) =  -494.423757759     A.U. after   11 cycles
 SCF Done:  E(RB3LYP) =  -494.423785346     A.U. after   10 cycles
 SCF Done:  E(RB3LYP) =  -494.423791017     A.U. after   10 cycles
 SCF Done:  E(RB3LYP) =  -494.423791916     A.U. after    9 cycles
 Optimization completed.
    -- Stationary point found.
 Normal termination of Gaussian 16 at Tue Dec  8 19:12:35 2020.

 --------------------------------------------------------------------
 #N Geom=AllCheck Guess=TCheck SCRF=Check GenChk RB3LYP/6-31G(d) Freq
 --------------------------------------------------------------------

 Structure from the checkpoint file:  "JID_1087.chk"
 -------------------------------
 CID_146208387_JID_1087_neutraal
 -------------------------------
 Charge =  0 Multiplicity = 1

 SCF Done:  E(RB3LYP) =  -494.423791916     A.U. after    1 cycles

  Exact polarizability: 142.437   8.508 127.486   0.005   0.004  34.718
 Approx polarizability: 212.109  19.489 245.766   0.005  -0.004  53.968

                      1                      2                      3
                      A                      A                      A
 Frequencies --     66.5181               139.2595               162.0320
 Red. masses --      5.0295                 5.2493                 3.5586
 Frc consts  --      0.0131                 0.0600                 0.0550
 IR Inten    --      3.9797                 2.6369                14.1249

                      4                      5                      6
                      A                      A                      A
 Frequencies --    214.8952               276.2753               289.9584
 Red. masses --      5.8330                 5.1104                 1.4992
 Frc consts  --      0.1587                 0.2298                 0.0743
 IR Inten    --     15.6300                 0.2949               120.0140

                      7                      8                      9
                      A                      A                      A
 Frequencies --    339.5777               358.4218               416.2836
 Red. masses --      5.5095                 2.5144                 3.0754
 Frc consts  --      0.3743                 0.1903                 0.3140
 IR Inten    --      2.9963                17.8492                 1.2591

                     10                     11                     12
                      A                      A                      A
 Frequencies --    452.6708               474.1779               526.5371
 Red. masses --      2.0680                 4.9853                 6.1672
 Frc consts  --      0.2497                 0.6604                 1.0074
 IR Inten    --     40.2860                 1.2973                 5.2008

                     13                     14                     15
                      A                      A                      A
 Frequencies --    586.1721               651.7299               713.9823
 Red. masses --      2.6581                 7.0553                 4.0895
 Frc consts  --      0.5381                 1.7656                 1.2283
 IR Inten    --     15.7840                 4.8203                39.3293

                     16                     17                     18
                      A                      A                      A
 Frequencies --    760.7781               771.6779               795.5188
 Red. masses --      2.0631                 5.8363                 1.3273
 Frc consts  --      0.7035                 2.0477                 0.4949
 IR Inten    --     16.6155                10.9640                 7.2398

                     19                     20                     21
                      A                      A                      A
 Frequencies --    820.5246               924.7422               970.0984
 Red. masses --      2.0341                 1.3221                 1.3368
 Frc consts  --      0.8069                 0.6661                 0.7412
 IR Inten    --     35.9589                 2.2126                 4.5722

                     22                     23                     24
                      A                      A                      A
 Frequencies --    970.8190              1020.0317              1020.5082
 Red. masses --      1.3431                 7.3551                 1.4861
 Frc consts  --      0.7458                 4.5088                 0.9119
 IR Inten    --     15.9129                 1.7087                 1.2205

                     25                     26                     27
                      A                      A                      A
 Frequencies --   1026.7551              1080.6716              1107.8292
 Red. masses --      1.3215                 2.6789                 1.7773
 Frc consts  --      0.8208                 1.8433                 1.2852
 IR Inten    --      2.1191                12.6518                24.2431

                     28                     29                     30
                      A                      A                      A
 Frequencies --   1124.7991              1191.2923              1218.7818
 Red. masses --      1.5933                 1.1276                 2.0149
 Frc consts  --      1.1877                 0.9428                 1.7634
 IR Inten    --     17.6768                 4.2679                 2.6592

                     31                     32                     33
                      A                      A                      A
 Frequencies --   1254.3588              1315.2648              1336.3912
 Red. masses --      2.8992                 7.1715                 1.6998
 Frc consts  --      2.6876                 7.3095                 1.7886
 IR Inten    --     68.7407                 1.1721                 6.8389

                     34                     35                     36
                      A                      A                      A
 Frequencies --   1384.0951              1431.8570              1474.6782
 Red. masses --      1.6616                 2.7392                 1.8228
 Frc consts  --      1.8754                 3.3089                 2.3356
 IR Inten    --    120.6323                26.9024                29.2679

                     37                     38                     39
                      A                      A                      A
 Frequencies --   1492.5458              1524.2633              1573.0392
 Red. masses --      1.2677                 2.7561                 1.4580
 Frc consts  --      1.6639                 3.7728                 2.1257
 IR Inten    --      2.3334               160.9721                14.4708

                     40                     41                     42
                      A                      A                      A
 Frequencies --   1615.6906              1655.8650              1706.3235
 Red. masses --      4.4452                 5.2994                 3.1392
 Frc consts  --      6.8369                 8.5611                 5.3850
 IR Inten    --      5.2600               122.1442               612.3226

                     43                     44                     45
                      A                      A                      A
 Frequencies --   1768.7574              2863.3780              3169.1892
 Red. masses --      9.0602                 1.0813                 1.0892
 Frc consts  --     16.7003                 5.2234                 6.4452
 IR Inten    --    199.7434               159.0388                30.2592

                     46                     47                     48
                      A                      A                      A
 Frequencies --   3173.1512              3194.0726              3217.4593
 Red. masses --      1.0895                 1.0894                 1.0962
 Frc consts  --      6.4633                 6.5483                 6.6862
 IR Inten    --     13.0926                16.4181                22.5377

                     49                     50                     51
                      A                      A                      A
 Frequencies --   3263.0029              3384.9260              3689.1918
 Red. masses --      1.0929                 1.0608                 1.0904
 Frc consts  --      6.8561                 7.1612                 8.7440
 IR Inten    --     11.1417               160.7807               110.7599

 - Thermochemistry -
 -------------------
 Temperature   298.150 Kelvin.  Pressure   1.00000 Atm.
 Atom     1 has atomic number  6 and mass  12.00000

 Molecular mass:   148.06366 amu.
 Principal axes and moments of inertia in atomic units:
                           1         2         3
     Eigenvalues --  1107.547251805.405452912.95255
           X            0.99898   0.04522   0.00001
           Y           -0.04522   0.99898   0.00003
           Z           -0.00001  -0.00003   1.00000
 This molecule is an asymmetric top.
 Rotational symmetry number  1.
 Warning -- assumption of classical behavior for rotation
           may cause significant error
 Rotational temperatures (Kelvin)      0.07820     0.04797     0.02973
 Rotational constants (GHZ):           1.62949     0.99963     0.61956
 Zero-point vibrational energy     394533.3 (Joules/Mol)
                                   94.29573 (Kcal/Mol)
 Warning -- explicit consideration of  13 degrees of freedom as
           vibrations may cause significant error
 Vibrational temperatures:     95.70   200.36   233.13   309.19   397.50
          (Kelvin)            417.19   488.58   515.69   598.94   651.29
                              682.24   757.57   843.37   937.69  1027.26
                             1094.59  1110.27  1144.57  1180.55  1330.50
                             1395.76  1396.79  1467.60  1468.28  1477.27
                             1554.85  1593.92  1618.34  1714.00  1753.56
                             1804.74  1892.37  1922.77  1991.40  2060.12
                             2121.73  2147.44  2193.07  2263.25  2324.62
                             2382.42  2455.02  2544.85  4119.76  4559.76
                             4565.46  4595.56  4629.21  4694.73  4870.15
                             5307.92

 Zero-point correction=                           0.150270 (Hartree/Particle)
 Thermal correction to Energy=                    0.159493
 Thermal correction to Enthalpy=                  0.160437
 Thermal correction to Gibbs Free Energy=         0.115743
 Sum of electronic and zero-point Energies=           -494.273522
 Sum of electronic and thermal Energies=              -494.264299
 Sum of electronic and thermal Enthalpies=            -494.263355
 Sum of electronic and thermal Free Energies=         -494.308049

                     E (Thermal)             CV                S
                      KCal/Mol        Cal/Mol-Kelvin    Cal/Mol-Kelvin
 Total                  100.083             35.561             94.066
 Electronic               0.000              0.000              0.000
 Translational            0.889              2.981             40.888
 Rotational               0.889              2.981             30.144
 Vibrational             98.306             29.599             23.033
 Vibration     1          0.598              1.970              4.254
 Vibration     2          0.615              1.914              2.814
 Vibration     3          0.622              1.889              2.526
 Vibration     4          0.645              1.818              2.002
 Vibration     5          0.678              1.717              1.557
 Vibration     6          0.686              1.692              1.474
 Vibration     7          0.719              1.596              1.214
 Vibration     8          0.733              1.558              1.129
 Vibration     9          0.780              1.435              0.905
 Vibration    10          0.811              1.355              0.788
 Vibration    11          0.831              1.307              0.726
 Vibration    12          0.881              1.191              0.595
 Vibration    13          0.943              1.061              0.474

                           ! Non-Optimized Parameters !
 Normal termination of Gaussian 16 at Tue Dec  8 19:15:57 2020.

 ----------------------------------------------------------------------
 # B3LYP/6-311++G(d,p) empiricaldispersion=gd3bj scf=xqc pop=npa geom=c
 heck
 ----------------------------------------------------------------------

 ---------------------------------------
 CID_146208387_JID_1087_Energie_neutraal
 ---------------------------------------
 Structure from the checkpoint file:  "JID_1087.chk"
 Charge =  0 Multiplicity = 1

 SCF Done:  E(RB3LYP) =  -494.565974528     A.U. after   15 cycles
 Normal termination of Gaussian 16 at Tue Dec  8 19:17:05 2020.

 ----------------------------------------------------------------------
 # B3LYP/6-311++G(d,p) empiricaldispersion=gd3bj scf=xqc pop=npa geom=c
 heck
 ----------------------------------------------------------------------

 -------------------------------------
 CID_146208387_JID_1087_Energie_kation
 -------------------------------------
 Structure from the checkpoint file:  "JID_1087.chk"
 Charge =  1 Multiplicity = 2

 SCF Done:  E(UB3LYP) =  -494.276561230     A.U. after   21 cycles
 Normal termination of Gaussian 16 at Tue Dec  8 19:19:52 2020.
 Gaussian 16:  ES64L-G16RevA.03 25-Dec-2016

 ----------------------------------------------------------------------
 # B3LYP/6-311++G(d,p) empiricaldispersion=gd3bj scf=xqc pop=npa geom=c
 heck
 ----------------------------------------------------------------------

 ------------------------------------
 CID_146208387_JID_1087_Energie_anion
 ------------------------------------
 Structure from the checkpoint file:  "JID_1087.chk"
 Charge = -1 Multiplicity = 2

                         Standard orientation:
 ---------------------------------------------------------------------
 Center     Atomic      Atomic             Coordinates (Angstroms)
 Number     Number       Type             X           Y           Z
 ---------------------------------------------------------------------
      1          6           0       -2.307385   -1.194518   -0.000419
      2          6           0       -2.945367    0.047473   -0.000043
      3          6           0       -2.143585    1.183327    0.000351
      4          7           0       -0.807293    1.146649    0.000476
      5          6           0       -0.178726   -0.056207    0.000219
      6          6           0       -0.920597   -1.255318   -0.000277
      7          6           0        1.292848   -0.048369   -0.000122
      8          6           0        2.039624    1.116037   -0.000298
      9          7           0        1.576350    2.369411   -0.000679
     10          6           0        2.101526   -1.260511    0.000175
     11          8           0        1.724827   -2.425955    0.000271
     12          1           0       -2.888351   -2.112857   -0.000802
     13          1           0       -4.027012    0.135087   -0.000197
     14          1           0       -2.589567    2.176351    0.000821
     15          1           0       -0.388938   -2.196806   -0.000311
     16          1           0        3.124214    1.020276   -0.000210
     17          1           0        2.202805    3.158560    0.001222
     18          1           0        0.557891    2.472279    0.000560
     19          1           0        3.196913   -1.049147    0.000642
 ---------------------------------------------------------------------

 SCF Done:  E(UB3LYP) =  -494.560036123     A.U. after   33 cycles
 SCF Done:  E(UB3LYP) =  -494.560036123     a.u. after    1 cycles

 The electronic state is 2-A.
 Alpha  occ. eigenvalues --  -18.97041 -14.20130 -14.17439 -10.11753 -10.09136
 Alpha  occ. eigenvalues --  -10.08432 -10.08218 -10.05762 -10.05092 -10.04446
 Alpha  occ. eigenvalues --  -10.04053  -0.90069  -0.82092  -0.79926  -0.67601
 Alpha  occ. eigenvalues --   -0.66883  -0.61828  -0.51565  -0.50913  -0.49097
 Alpha  occ. eigenvalues --   -0.44993  -0.40827  -0.38120  -0.37221  -0.35730
 Alpha  occ. eigenvalues --   -0.33127  -0.30637  -0.29159  -0.29038  -0.28449
 Alpha  occ. eigenvalues --   -0.27210  -0.25861  -0.24167  -0.23207  -0.16922
 Alpha  occ. eigenvalues --   -0.15486  -0.13720  -0.12122  -0.08843   0.04977
 Alpha virt. eigenvalues --    0.07248   0.07757   0.09201   0.09320   0.10008
 Alpha virt. eigenvalues --    0.10075   0.10908   0.12981   0.13768   0.14764
 Alpha virt. eigenvalues --    0.15102   0.15731   0.17039   0.18165   0.18281

  Beta  occ. eigenvalues --  -18.97062 -14.19948 -14.17227 -10.11748 -10.08865
  Beta  occ. eigenvalues --  -10.08460 -10.08064 -10.05622 -10.05006 -10.04502
  Beta  occ. eigenvalues --  -10.04105  -0.90103  -0.81753  -0.79546  -0.67329
  Beta  occ. eigenvalues --   -0.66687  -0.61641  -0.51155  -0.50821  -0.48848
  Beta  occ. eigenvalues --   -0.44853  -0.40685  -0.38030  -0.37068  -0.35609
  Beta  occ. eigenvalues --   -0.33028  -0.30549  -0.29106  -0.28476  -0.28369
  Beta  occ. eigenvalues --   -0.27085  -0.25584  -0.24067  -0.22408  -0.15936
  Beta  occ. eigenvalues --   -0.15023  -0.13484  -0.12131  -0.08380
  Beta virt. eigenvalues --    0.07641   0.08834   0.09254   0.09374   0.09997
  Beta virt. eigenvalues --    0.10287   0.10503   0.11139   0.13363   0.13932
  Beta virt. eigenvalues --    0.14979   0.15045   0.15668   0.17331   0.18069

 Mulliken charges and spin densities:
               1          2
     1  C   -0.538235   0.012631
     2  C   -0.149643   0.008878
     3  C    0.070503  -0.165789
     4  N    0.007182   0.069985
     5  C   -0.839350   0.558880
     6  C    0.240807   0.090920
     7  C    1.562448  -0.945851
     8  C   -0.246300   0.089829
     9  N   -0.257665  -0.108516
    10  C   -0.077155  -0.523468
    11  O   -0.343765  -0.010232
    12  H    0.124526   0.004659
    13  H    0.108095   0.016330
    14  H   -0.058161   0.199248
    15  H    0.224412   0.004451
    16  H   -0.605187   0.767309
    17  H   -0.706081   1.007076
    18  H    0.385944  -0.034608
    19  H    0.097624  -0.041731
 Sum of Mulliken charges =  -1.00000   1.00000

 Dipole moment (field-independent basis, Debye):
    X=             -5.7242    Y=             -3.5204    Z=              0.1244  Tot=              6.7213
 Quadrupole moment (field-independent basis, Debye-Ang):
   XX=           -101.7990   YY=           -112.9538   ZZ=            -79.2453
   XY=            -11.7147   XZ=              2.0861   YZ=             -0.6094

 Summary of Natural Population Analysis:

                                       Natural Population
                Natural  -----------------------------------------------
    Atom  No    Charge         Core      Valence    Rydberg      Total
 -----------------------------------------------------------------------
      C    1   -0.06414      0.99957     2.05616    0.00841     3.06414
      C    2   -0.12797      0.99956     2.11912    0.00929     3.12797
      C    3    0.02204      0.99959     1.96275    0.01562     2.97796
      N    4   -0.24274      0.99967     2.73110    0.01196     3.74274
      C    5    0.12750      0.99951     1.85955    0.01343     2.87250
      C    6   -0.12966      0.99953     2.12214    0.00799     3.12966
      C    7   -0.15792      0.99946     2.14705    0.01141     3.15792
      C    8    0.12130      0.99956     1.86336    0.01579     2.87870
      N    9   -0.34899      0.99971     2.83919    0.01008     3.84899
      C   10    0.19375      0.99967     1.78498    0.02161     2.80625
      O   11   -0.32428      0.99988     3.31725    0.00714     4.32428
      H   12    0.09126      0.00000     0.40750    0.00124     0.40874
      H   13    0.09507      0.00000     0.40410    0.00083     0.40493
      H   14    0.08444      0.00000     0.41460    0.00096     0.41556
      H   15    0.12121      0.00000     0.37753    0.00126     0.37879
      H   16    0.08811      0.00000     0.40984    0.00205     0.41189
      H   17    0.19553      0.00000     0.28175    0.02272     0.30447
      H   18    0.21377      0.00000     0.28386    0.00238     0.28623
      H   19    0.04172      0.00000     0.45564    0.00264     0.45828
 =======================================================================
   * Total *   -0.00000     10.99572    27.83748    0.16681    39.00000

 Normal termination of Gaussian 16 at Tue Dec  8 19:24:17 2020.
