 Gaussian 16, Revision A.03,

 -----------------------------------------------------------
 # opt freq B3LYP/6-31G(d) empiricaldispersion=gd3bj scf=xqc
 -----------------------------------------------------------

 ------------------------------
 CID_62678632_JID_6319_neutraal
 ------------------------------
 Symbolic Z-matrix:
 Charge =  0 Multiplicity = 1

 SCF Done:  E(RB3LYP) =  -750.433314926     A.U. after   14 cycles
 SCF Done:  E(RB3LYP) =  -750.437167730     A.U. after   13 cycles
 SCF Done:  E(RB3LYP) =  -750.435036476     A.U. after   13 cycles
 SCF Done:  E(RB3LYP) =  -750.437389215     A.U. after   12 cycles
 SCF Done:  E(RB3LYP) =  -750.438519479     A.U. after   12 cycles
 SCF Done:  E(RB3LYP) =  -750.438260623     A.U. after   12 cycles
 SCF Done:  E(RB3LYP) =  -750.439058629     A.U. after   12 cycles
 SCF Done:  E(RB3LYP) =  -750.438776412     A.U. after   12 cycles
 SCF Done:  E(RB3LYP) =  -750.439348636     A.U. after   12 cycles
 SCF Done:  E(RB3LYP) =  -750.439345571     A.U. after   12 cycles
 SCF Done:  E(RB3LYP) =  -750.439425605     A.U. after   10 cycles
 SCF Done:  E(RB3LYP) =  -750.439430176     A.U. after    9 cycles
 SCF Done:  E(RB3LYP) =  -750.439432889     A.U. after    9 cycles
 SCF Done:  E(RB3LYP) =  -750.439433844     A.U. after    8 cycles
 SCF Done:  E(RB3LYP) =  -750.439433958     A.U. after    6 cycles
 SCF Done:  E(RB3LYP) =  -750.439434224     A.U. after    8 cycles
 Optimization completed.
    -- Stationary point found.
 Normal termination of Gaussian 16 at Thu Dec 10 22:17:51 2020.

 --------------------------------------------------------------------
 #N Geom=AllCheck Guess=TCheck SCRF=Check GenChk RB3LYP/6-31G(d) Freq
 --------------------------------------------------------------------

 Structure from the checkpoint file:  "JID_6319.chk"
 ------------------------------
 CID_62678632_JID_6319_neutraal
 ------------------------------
 Charge =  0 Multiplicity = 1

 SCF Done:  E(RB3LYP) =  -750.439434224     A.U. after    1 cycles

  Exact polarizability: 148.809  -5.152 139.999  -3.297  -2.349 118.678
 Approx polarizability: 191.162  -1.563 197.397  -9.575 -14.838 186.105

                      1                      2                      3
                      A                      A                      A
 Frequencies --     30.5508                40.5832                55.6398
 Red. masses --      3.0324                 3.7993                 5.1058
 Frc consts  --      0.0017                 0.0037                 0.0093
 IR Inten    --      0.1798                 0.1728                 0.9976

                      4                      5                      6
                      A                      A                      A
 Frequencies --     72.5642                90.7578               122.5550
 Red. masses --      4.0528                 2.9775                 2.5898
 Frc consts  --      0.0126                 0.0144                 0.0229
 IR Inten    --      4.1006                 0.4864                 0.2532

                      7                      8                      9
                      A                      A                      A
 Frequencies --    137.6735               154.0871               165.1297
 Red. masses --      1.2849                 1.8333                 2.0981
 Frc consts  --      0.0143                 0.0256                 0.0337
 IR Inten    --      0.4275                 0.2260                 0.2747

                     10                     11                     12
                      A                      A                      A
 Frequencies --    196.1110               210.5739               217.0386
 Red. masses --      1.6051                 2.4925                 1.8539
 Frc consts  --      0.0364                 0.0651                 0.0515
 IR Inten    --      0.3687                 1.0978                 0.5916

                     13                     14                     15
                      A                      A                      A
 Frequencies --    242.0565               247.1868               275.9260
 Red. masses --      2.5085                 1.5079                 1.5660
 Frc consts  --      0.0866                 0.0543                 0.0702
 IR Inten    --      1.4197                 1.3283                 0.4382

                     16                     17                     18
                      A                      A                      A
 Frequencies --    286.1825               293.9935               312.3469
 Red. masses --      3.0787                 1.9448                 2.5187
 Frc consts  --      0.1486                 0.0990                 0.1448
 IR Inten    --      2.1884                 0.0592                 0.6561

                     19                     20                     21
                      A                      A                      A
 Frequencies --    348.9747               357.3833               370.3962
 Red. masses --      3.4598                 3.1595                 2.7429
 Frc consts  --      0.2482                 0.2378                 0.2217
 IR Inten    --     10.5006                 8.5709                 4.8715

                     22                     23                     24
                      A                      A                      A
 Frequencies --    411.1407               436.0956               486.3090
 Red. masses --      3.7397                 7.0789                 3.0138
 Frc consts  --      0.3724                 0.7932                 0.4199
 IR Inten    --      6.3277                15.6092                 0.8665

                     25                     26                     27
                      A                      A                      A
 Frequencies --    559.1494               587.2183               629.0259
 Red. masses --      2.9686                 2.2206                 4.0816
 Frc consts  --      0.5468                 0.4511                 0.9515
 IR Inten    --      3.4528                 3.6039                 7.0663

                     28                     29                     30
                      A                      A                      A
 Frequencies --    667.8873               748.8799               759.3132
 Red. masses --      4.4205                 3.9103                 6.0828
 Frc consts  --      1.1618                 1.2921                 2.0663
 IR Inten    --     10.4908                 0.6006                 6.8873

                     31                     32                     33
                      A                      A                      A
 Frequencies --    778.8450               798.8885               835.7420
 Red. masses --      2.1133                 1.7983                 3.9236
 Frc consts  --      0.7553                 0.6762                 1.6146
 IR Inten    --      2.8413                16.9806                10.1437

                     34                     35                     36
                      A                      A                      A
 Frequencies --    851.4127               899.8027               920.1247
 Red. masses --      2.2907                 2.0174                 1.9045
 Frc consts  --      0.9784                 0.9623                 0.9500
 IR Inten    --      2.8083                 6.4249                 4.5469

                     37                     38                     39
                      A                      A                      A
 Frequencies --    937.4230               940.6352               959.9343
 Red. masses --      2.2001                 2.0743                 1.5009
 Frc consts  --      1.1391                 1.0814                 0.8149
 IR Inten    --      3.9359                 3.6125                 0.7296

                     40                     41                     42
                      A                      A                      A
 Frequencies --    976.6632              1008.7991              1030.8917
 Red. masses --      2.8151                 1.9520                 1.3109
 Frc consts  --      1.5821                 1.1704                 0.8208
 IR Inten    --      8.1502                 3.6564                 1.5903

                     43                     44                     45
                      A                      A                      A
 Frequencies --   1034.2372              1038.0653              1076.1383
 Red. masses --      1.6820                 2.8411                 2.2851
 Frc consts  --      1.0600                 1.8038                 1.5592
 IR Inten    --     12.4394                19.7165                26.4844

                     46                     47                     48
                      A                      A                      A
 Frequencies --   1083.9170              1102.5881              1127.9782
 Red. masses --      2.0403                 1.5552                 1.9680
 Frc consts  --      1.4123                 1.1139                 1.4753
 IR Inten    --      2.9606                14.7998                36.8847

                     49                     50                     51
                      A                      A                      A
 Frequencies --   1178.8504              1186.7134              1205.4041
 Red. masses --      1.3462                 1.2782                 2.1296
 Frc consts  --      1.1023                 1.0606                 1.8231
 IR Inten    --     36.5588                 0.8248                17.0608

                     52                     53                     54
                      A                      A                      A
 Frequencies --   1207.8956              1218.0749              1222.0911
 Red. masses --      2.1188                 2.5231                 1.7883
 Frc consts  --      1.8213                 2.2056                 1.5736
 IR Inten    --      8.9260                31.0888                22.2713

                     55                     56                     57
                      A                      A                      A
 Frequencies --   1245.0385              1252.8779              1275.9291
 Red. masses --      2.3417                 2.2691                 1.7386
 Frc consts  --      2.1387                 2.0986                 1.6676
 IR Inten    --     10.4078                58.6287                54.6890

                     58                     59                     60
                      A                      A                      A
 Frequencies --   1306.3155              1319.3694              1344.7519
 Red. masses --      1.6200                 2.3319                 1.3817
 Frc consts  --      1.6288                 2.3916                 1.4721
 IR Inten    --     50.0547                84.6740                 6.1314

                     61                     62                     63
                      A                      A                      A
 Frequencies --   1351.5920              1367.6910              1376.8557
 Red. masses --      1.3225                 1.2996                 1.3584
 Frc consts  --      1.4234                 1.4323                 1.5173
 IR Inten    --     11.7858                12.2189                 2.9582

                     64                     65                     66
                      A                      A                      A
 Frequencies --   1390.2797              1395.0221              1414.0063
 Red. masses --      1.3956                 1.3871                 3.8962
 Frc consts  --      1.5894                 1.5905                 4.5899
 IR Inten    --     15.0701                 3.6088               218.7720

                     67                     68                     69
                      A                      A                      A
 Frequencies --   1429.2044              1434.6318              1457.7806
 Red. masses --      1.2324                 1.2439                 1.3438
 Frc consts  --      1.4831                 1.5084                 1.6826
 IR Inten    --      2.1334                 7.7475                41.1962

                     70                     71                     72
                      A                      A                      A
 Frequencies --   1491.4508              1505.9191              1512.4684
 Red. masses --      1.2040                 1.0803                 1.0479
 Frc consts  --      1.5779                 1.4434                 1.4123
 IR Inten    --      5.3427                 1.4074                 6.2457

                     73                     74                     75
                      A                      A                      A
 Frequencies --   1514.6743              1518.8590              1524.4510
 Red. masses --      1.0490                 1.0873                 1.0483
 Frc consts  --      1.4179                 1.4779                 1.4354
 IR Inten    --      1.2951                 3.0515                 9.4074

                     76                     77                     78
                      A                      A                      A
 Frequencies --   1525.2386              1530.2772              1531.0697
 Red. masses --      1.0708                 1.0549                 1.0825
 Frc consts  --      1.4677                 1.4555                 1.4951
 IR Inten    --      1.6183                 5.2870                 4.2600

                     79                     80                     81
                      A                      A                      A
 Frequencies --   1540.5874              1541.7967              1548.0055
 Red. masses --      1.0709                 1.0574                 1.0591
 Frc consts  --      1.4976                 1.4809                 1.4954
 IR Inten    --     18.8249                 8.2910                 5.4371

                     82                     83                     84
                      A                      A                      A
 Frequencies --   1555.9217              1712.7420              1836.1067
 Red. masses --      1.0777                11.1736                11.2970
 Frc consts  --      1.5371                19.3120                22.4392
 IR Inten    --      6.1080               196.7141               229.2583

                     85                     86                     87
                      A                      A                      A
 Frequencies --   3027.3239              3034.2277              3055.7947
 Red. masses --      1.0743                 1.0673                 1.0390
 Frc consts  --      5.8008                 5.7896                 5.7162
 IR Inten    --     42.9903                30.1522                20.4837

                     88                     89                     90
                      A                      A                      A
 Frequencies --   3056.3700              3062.6093              3072.0962
 Red. masses --      1.0391                 1.0400                 1.0677
 Frc consts  --      5.7191                 5.7472                 5.9369
 IR Inten    --     41.1702                30.1821                21.3390

                     91                     92                     93
                      A                      A                      A
 Frequencies --   3076.4500              3081.4848              3096.4634
 Red. masses --      1.0291                 1.0597                 1.0963
 Frc consts  --      5.7387                 5.9287                 6.1930
 IR Inten    --     30.8957                22.3599                 4.5178

                     94                     95                     96
                      A                      A                      A
 Frequencies --   3113.3714              3117.3301              3125.1306
 Red. masses --      1.1005                 1.1009                 1.0978
 Frc consts  --      6.2847                 6.3034                 6.3170
 IR Inten    --     26.6396                49.1533                29.9589

                     97                     98                     99
                      A                      A                      A
 Frequencies --   3127.0634              3127.8251              3137.2374
 Red. masses --      1.0866                 1.1017                 1.1035
 Frc consts  --      6.2602                 6.3503                 6.3992
 IR Inten    --      7.6076                23.2871                20.4494

                    100                    101                    102
                      A                      A                      A
 Frequencies --   3143.5897              3149.0680              3153.1118
 Red. masses --      1.1022                 1.0975                 1.1075
 Frc consts  --      6.4176                 6.4123                 6.4875
 IR Inten    --     25.6763                34.7608                19.2116

                    103                    104                    105
                      A                      A                      A
 Frequencies --   3163.4046              3174.4115              3180.6161
 Red. masses --      1.0990                 1.0887                 1.1075
 Frc consts  --      6.4799                 6.4636                 6.6012
 IR Inten    --     16.5102                22.2751                16.4333

 - Thermochemistry -
 -------------------
 Temperature   298.150 Kelvin.  Pressure   1.00000 Atm.
 Atom     1 has atomic number  6 and mass  12.00000

 Molecular mass:   227.15214 amu.
 Principal axes and moments of inertia in atomic units:
                           1         2         3
     Eigenvalues --  2417.688004209.653315326.06845
           X            0.99975  -0.02201   0.00335
           Y            0.02193   0.99955   0.02060
           Z           -0.00381  -0.02052   0.99978
 This molecule is an asymmetric top.
 Rotational symmetry number  1.
 Warning -- assumption of classical behavior for rotation
           may cause significant error
 Rotational temperatures (Kelvin)      0.03583     0.02058     0.01626
 Rotational constants (GHZ):           0.74647     0.42871     0.33885
 Zero-point vibrational energy     856285.4 (Joules/Mol)
                                  204.65712 (Kcal/Mol)
 Warning -- explicit consideration of  26 degrees of freedom as
           vibrations may cause significant error
 Vibrational temperatures:     43.96    58.39    80.05   104.40   130.58
          (Kelvin)            176.33   198.08   221.70   237.58   282.16
                              302.97   312.27   348.27   355.65   397.00
                              411.75   422.99   449.40   502.10   514.19
                              532.92   591.54   627.44   699.69   804.49
                              844.88   905.03   960.94  1077.47  1092.48
                             1120.58  1149.42  1202.45  1224.99  1294.62
                             1323.85  1348.74  1353.36  1381.13  1405.20
                             1451.44  1483.22  1488.04  1493.54  1548.32
                             1559.51  1586.38  1622.91  1696.10  1707.42
                             1734.31  1737.89  1752.54  1758.32  1791.33
                             1802.61  1835.78  1879.50  1898.28  1934.80
                             1944.64  1967.80  1980.99  2000.30  2007.13
                             2034.44  2056.31  2064.12  2097.42  2145.87
                             2166.68  2176.10  2179.28  2185.30  2193.34
                             2194.48  2201.73  2202.87  2216.56  2218.30
                             2227.23  2238.62  2464.25  2641.75  4355.64
                             4365.58  4396.61  4397.43  4406.41  4420.06
                             4426.33  4433.57  4455.12  4479.45  4485.14
                             4496.37  4499.15  4500.24  4513.78  4522.92
                             4530.81  4536.62  4551.43  4567.27  4576.20

 Zero-point correction=                           0.326142 (Hartree/Particle)
 Thermal correction to Energy=                    0.343816
 Thermal correction to Enthalpy=                  0.344760
 Thermal correction to Gibbs Free Energy=         0.280442
 Sum of electronic and zero-point Energies=           -750.113292
 Sum of electronic and thermal Energies=              -750.095619
 Sum of electronic and thermal Enthalpies=            -750.094674
 Sum of electronic and thermal Free Energies=         -750.158992

                     E (Thermal)             CV                S
                      KCal/Mol        Cal/Mol-Kelvin    Cal/Mol-Kelvin
 Total                  215.748             65.285            135.368
 Electronic               0.000              0.000              0.000
 Translational            0.889              2.981             42.164
 Rotational               0.889              2.981             32.361
 Vibrational            213.970             59.323             60.844
 Vibration     1          0.594              1.984              5.793
 Vibration     2          0.594              1.981              5.230
 Vibration     3          0.596              1.975              4.606
 Vibration     4          0.599              1.967              4.083
 Vibration     5          0.602              1.956              3.644
 Vibration     6          0.610              1.930              3.060
 Vibration     7          0.614              1.916              2.836
 Vibration     8          0.620              1.898              2.621
 Vibration     9          0.624              1.885              2.490
 Vibration    10          0.636              1.845              2.169
 Vibration    11          0.643              1.825              2.039
 Vibration    12          0.646              1.815              1.984
 Vibration    13          0.658              1.776              1.788
 Vibration    14          0.661              1.767              1.751
 Vibration    15          0.678              1.718              1.559
 Vibration    16          0.684              1.699              1.496
 Vibration    17          0.689              1.685              1.451
 Vibration    18          0.701              1.650              1.350
 Vibration    19          0.726              1.577              1.171
 Vibration    20          0.733              1.560              1.133
 Vibration    21          0.742              1.533              1.078
 Vibration    22          0.775              1.446              0.923
 Vibration    23          0.797              1.392              0.839
 Vibration    24          0.842              1.280              0.693
 Vibration    25          0.915              1.120              0.526
 Vibration    26          0.944              1.059              0.472

                           ! Non-Optimized Parameters !
 Normal termination of Gaussian 16 at Thu Dec 10 22:32:38 2020.

 ----------------------------------------------------------------------
 # B3LYP/6-311++G(d,p) empiricaldispersion=gd3bj scf=xqc pop=npa geom=c
 heck
 ----------------------------------------------------------------------

 --------------------------------------
 CID_62678632_JID_6319_Energie_neutraal
 --------------------------------------
 Structure from the checkpoint file:  "JID_6319.chk"
 Charge =  0 Multiplicity = 1

 SCF Done:  E(RB3LYP) =  -750.653573602     A.U. after   14 cycles
 Normal termination of Gaussian 16 at Thu Dec 10 22:38:53 2020.

 ----------------------------------------------------------------------
 # B3LYP/6-311++G(d,p) empiricaldispersion=gd3bj scf=xqc pop=npa geom=c
 heck
 ----------------------------------------------------------------------

 ------------------------------------
 CID_62678632_JID_6319_Energie_kation
 ------------------------------------
 Structure from the checkpoint file:  "JID_6319.chk"
 Charge =  1 Multiplicity = 2

 SCF Done:  E(UB3LYP) =  -750.340488272     A.U. after   29 cycles
 Normal termination of Gaussian 16 at Thu Dec 10 22:56:58 2020.
 Gaussian 16:  ES64L-G16RevA.03 25-Dec-2016

 ----------------------------------------------------------------------
 # B3LYP/6-311++G(d,p) empiricaldispersion=gd3bj scf=xqc pop=npa geom=c
 heck
 ----------------------------------------------------------------------

 -----------------------------------
 CID_62678632_JID_6319_Energie_anion
 -----------------------------------
 Structure from the checkpoint file:  "JID_6319.chk"
 Charge = -1 Multiplicity = 2

                         Standard orientation:
 ---------------------------------------------------------------------
 Center     Atomic      Atomic             Coordinates (Angstroms)
 Number     Number       Type             X           Y           Z
 ---------------------------------------------------------------------
      1          6           0       -3.046929    2.048451   -0.071423
      2          6           0       -3.176319    0.589921   -0.520959
      3          6           0       -2.147769   -0.414343    0.065434
      4          6           0       -2.082337   -0.236355    1.598894
      5          6           0       -2.630713   -1.834707   -0.293236
      6          6           0       -0.771765   -0.132258   -0.580332
      7          8           0       -0.611968    0.826260   -1.338729
      8          7           0        0.312882   -0.931829   -0.322779
      9          6           0        0.484474   -2.098484    0.552621
     10          6           0        1.991215   -2.113757    0.832765
     11          6           0        2.582210   -1.595538   -0.483435
     12          6           0        1.584895   -0.498254   -0.909076
     13          6           0        2.028207    0.877325   -0.415685
     14          8           0        2.780115    1.596407   -1.032697
     15          8           0        1.562127    1.157752    0.821251
     16          6           0        1.932171    2.450744    1.323205
     17          1           0       -3.210140    2.160798    1.006206
     18          1           0       -3.799353    2.662471   -0.579243
     19          1           0       -2.060822    2.443696   -0.321422
     20          1           0       -4.172829    0.219788   -0.243258
     21          1           0       -3.112998    0.545307   -1.612695
     22          1           0       -3.099630   -0.153340    1.998171
     23          1           0       -1.609539   -1.080955    2.105105
     24          1           0       -1.535112    0.669897    1.873596
     25          1           0       -2.710039   -1.955295   -1.379468
     26          1           0       -1.972035   -2.618767    0.087016
     27          1           0       -3.624461   -2.004461    0.136287
     28          1           0        0.179737   -3.018464    0.034971
     29          1           0       -0.102953   -2.012361    1.464661
     30          1           0        2.220520   -1.419543    1.647513
     31          1           0        2.352717   -3.107856    1.110498
     32          1           0        3.600843   -1.210500   -0.392532
     33          1           0        2.589127   -2.389441   -1.238550
     34          1           0        1.505794   -0.406032   -1.993607
     35          1           0        3.019642    2.546062    1.378894
     36          1           0        1.538441    3.233464    0.670041
     37          1           0        1.486682    2.518516    2.316035
 ---------------------------------------------------------------------

 SCF Done:  E(UB3LYP) =  -750.642761137     A.U. after   31 cycles

 The electronic state is 2-A.
 Alpha  occ. eigenvalues --  -19.07606 -19.01742 -18.98843 -14.24521 -10.20555
 Alpha  occ. eigenvalues --  -10.17222 -10.13270 -10.12496 -10.10924 -10.10013
 Alpha  occ. eigenvalues --  -10.08539 -10.07645 -10.07085 -10.06913 -10.06759
 Alpha  occ. eigenvalues --  -10.05882  -1.01614  -0.94414  -0.92828  -0.84875
 Alpha  occ. eigenvalues --   -0.73243  -0.69968  -0.67212  -0.64050  -0.62789
 Alpha  occ. eigenvalues --   -0.59878  -0.56517  -0.53618  -0.51346  -0.50490
 Alpha  occ. eigenvalues --   -0.47084  -0.46047  -0.42585  -0.39537  -0.38944
 Alpha  occ. eigenvalues --   -0.38536  -0.37493  -0.36447  -0.35205  -0.34651
 Alpha  occ. eigenvalues --   -0.33972  -0.33479  -0.32546  -0.31830  -0.31603
 Alpha  occ. eigenvalues --   -0.30460  -0.29941  -0.28910  -0.27977  -0.27293
 Alpha  occ. eigenvalues --   -0.27005  -0.26742  -0.25967  -0.25296  -0.24388
 Alpha  occ. eigenvalues --   -0.24160  -0.23395  -0.22449  -0.21617  -0.19403
 Alpha  occ. eigenvalues --   -0.15650  -0.14762   0.04149
 Alpha virt. eigenvalues --    0.06247   0.06584   0.07679   0.08133   0.08585
 Alpha virt. eigenvalues --    0.08740   0.09307   0.09818   0.10154   0.10735
 Alpha virt. eigenvalues --    0.10984   0.11091   0.11410   0.12001   0.12540

  Beta  occ. eigenvalues --  -19.07598 -19.01732 -18.98841 -14.24522 -10.20552
  Beta  occ. eigenvalues --  -10.17221 -10.13246 -10.12492 -10.10891 -10.10009
  Beta  occ. eigenvalues --  -10.08514 -10.07610 -10.07079 -10.06892 -10.06730
  Beta  occ. eigenvalues --  -10.05873  -1.01600  -0.94409  -0.92812  -0.84863
  Beta  occ. eigenvalues --   -0.73227  -0.69940  -0.67174  -0.64030  -0.62745
  Beta  occ. eigenvalues --   -0.59829  -0.56476  -0.53583  -0.51274  -0.50445
  Beta  occ. eigenvalues --   -0.47055  -0.46006  -0.42554  -0.39511  -0.38915
  Beta  occ. eigenvalues --   -0.38506  -0.37462  -0.36423  -0.35177  -0.34627
  Beta  occ. eigenvalues --   -0.33948  -0.33443  -0.32517  -0.31808  -0.31576
  Beta  occ. eigenvalues --   -0.30422  -0.29911  -0.28883  -0.27948  -0.27271
  Beta  occ. eigenvalues --   -0.26976  -0.26716  -0.25923  -0.25258  -0.24348
  Beta  occ. eigenvalues --   -0.24144  -0.23370  -0.22430  -0.21587  -0.19389
  Beta  occ. eigenvalues --   -0.15642  -0.14749
  Beta virt. eigenvalues --    0.06318   0.07007   0.07223   0.08224   0.08459
  Beta virt. eigenvalues --    0.08965   0.09179   0.09587   0.10051   0.10601
  Beta virt. eigenvalues --    0.10974   0.11330   0.11351   0.11704   0.12156

 Mulliken charges and spin densities:
               1          2
     1  C   -0.285683  -0.315253
     2  C   -0.887672   0.442507
     3  C   -0.240207   1.350204
     4  C    0.670301  -1.342154
     5  C    0.607676  -1.015489
     6  C   -1.158761  -0.062698
     7  O   -0.236983   0.002420
     8  N    0.285446   0.059648
     9  C    0.059698  -0.194338
    10  C    1.624870  -2.133043
    11  C   -0.350611  -0.033806
    12  C    0.448976  -0.115631
    13  C   -0.017489  -0.248625
    14  O   -0.235710   0.021835
    15  O   -0.054891   0.048897
    16  C    0.304034  -0.537799
    17  H    0.036529   0.090883
    18  H    0.021489   0.104114
    19  H    0.175155   0.005508
    20  H    0.024533   0.115413
    21  H    0.127813   0.040658
    22  H   -0.055500   0.236161
    23  H   -0.506704   0.631693
    24  H    0.175684  -0.009566
    25  H   -0.000411   0.161612
    26  H   -0.478414   0.633036
    27  H   -0.107952   0.264723
    28  H   -0.156404   0.352335
    29  H    0.201985  -0.054664
    30  H    0.041166   0.128979
    31  H   -0.806225   1.001477
    32  H    0.016675   0.174835
    33  H   -0.213486   0.388166
    34  H    0.161521   0.114775
    35  H   -0.049410   0.223127
    36  H    0.114043   0.066716
    37  H   -0.255078   0.403346
 Sum of Mulliken charges =  -1.00000   1.00000

 Dipole moment (field-independent basis, Debye):
    X=             -1.5516    Y=              4.5743    Z=             -1.5608  Tot=              5.0762
 Quadrupole moment (field-independent basis, Debye-Ang):
   XX=           -153.1677   YY=           -160.6931   ZZ=           -140.2581
   XY=              1.9796   XZ=              3.5702   YZ=              8.0887

 Summary of Natural Population Analysis:

                                       Natural Population
                Natural  -----------------------------------------------
    Atom  No    Charge         Core      Valence    Rydberg      Total
 -----------------------------------------------------------------------
      C    1   -0.28883      0.99966     2.28453    0.00465     3.28883
      C    2   -0.18353      0.99961     2.17475    0.00916     3.18353
      C    3   -0.07898      0.99955     2.06667    0.01275     3.07898
      C    4   -0.28397      0.99963     2.27623    0.00811     3.28397
      C    5   -0.28180      0.99963     2.27448    0.00769     3.28180
      C    6    0.37470      0.99958     1.60122    0.02450     2.62530
      O    7   -0.33274      0.99988     3.32623    0.00663     4.33274
      N    8   -0.25947      0.99964     2.74730    0.01253     3.75947
      C    9   -0.08140      0.99960     2.07056    0.01124     3.08140
      C   10   -0.19325      0.99963     2.18470    0.00892     3.19325
      C   11   -0.18720      0.99961     2.17884    0.00874     3.18720
      C   12   -0.04657      0.99954     2.03080    0.01623     3.04657
      C   13    0.41762      0.99965     1.55664    0.02608     2.58238
      O   14   -0.30743      0.99987     3.30209    0.00548     4.30743
      O   15   -0.27887      0.99986     3.26972    0.00929     4.27887
      C   16   -0.10602      0.99959     2.09674    0.00969     3.10602
      H   17    0.09355      0.00000     0.40546    0.00099     0.40645
      H   18    0.09426      0.00000     0.40492    0.00083     0.40574
      H   19    0.10971      0.00000     0.38891    0.00138     0.39029
      H   20    0.09220      0.00000     0.40674    0.00106     0.40780
      H   21    0.10350      0.00000     0.39532    0.00117     0.39650
      H   22    0.10016      0.00000     0.39882    0.00102     0.39984
      H   23    0.10142      0.00000     0.39721    0.00138     0.39858
      H   24    0.10553      0.00000     0.39288    0.00160     0.39447
      H   25    0.10112      0.00000     0.39772    0.00115     0.39888
      H   26    0.10428      0.00000     0.39438    0.00134     0.39572
      H   27    0.09998      0.00000     0.39890    0.00112     0.40002
      H   28    0.09543      0.00000     0.40201    0.00256     0.40457
      H   29    0.10365      0.00000     0.39420    0.00215     0.39635
      H   30    0.10093      0.00000     0.39699    0.00207     0.39907
      H   31    0.10853      0.00000     0.38857    0.00290     0.39147
      H   32    0.10700      0.00000     0.39205    0.00095     0.39300
      H   33    0.10371      0.00000     0.39488    0.00141     0.39629
      H   34    0.11655      0.00000     0.38197    0.00148     0.38345
      H   35    0.09089      0.00000     0.40810    0.00101     0.40911
      H   36    0.09199      0.00000     0.40707    0.00093     0.40801
      H   37    0.09344      0.00000     0.40549    0.00107     0.40656
 =======================================================================
   * Total *    0.00009     15.99454    45.79411    0.21126    61.99991

 Normal termination of Gaussian 16 at Thu Dec 10 23:15:50 2020.
