 Gaussian 16, Revision A.03,

 -----------------------------------------------------------
 # opt freq B3LYP/6-31G(d) empiricaldispersion=gd3bj scf=xqc
 -----------------------------------------------------------

 ------------------------------
 CID_79155017_JID_6981_neutraal
 ------------------------------
 Symbolic Z-matrix:
 Charge =  0 Multiplicity = 1

 SCF Done:  E(RB3LYP) =  -731.758570557     A.U. after   14 cycles
 SCF Done:  E(RB3LYP) =  -731.761211459     A.U. after   12 cycles
 SCF Done:  E(RB3LYP) =  -731.760997170     A.U. after   12 cycles
 SCF Done:  E(RB3LYP) =  -731.762419678     A.U. after   11 cycles
 SCF Done:  E(RB3LYP) =  -731.762739544     A.U. after   11 cycles
 SCF Done:  E(RB3LYP) =  -731.762918647     A.U. after   12 cycles
 SCF Done:  E(RB3LYP) =  -731.762994036     A.U. after   10 cycles
 SCF Done:  E(RB3LYP) =  -731.763017509     A.U. after   10 cycles
 SCF Done:  E(RB3LYP) =  -731.763025528     A.U. after    9 cycles
 SCF Done:  E(RB3LYP) =  -731.763028956     A.U. after    8 cycles
 SCF Done:  E(RB3LYP) =  -731.763029768     A.U. after    8 cycles
 SCF Done:  E(RB3LYP) =  -731.763030018     A.U. after    7 cycles
 SCF Done:  E(RB3LYP) =  -731.763030204     A.U. after    7 cycles
 SCF Done:  E(RB3LYP) =  -731.763030264     A.U. after    7 cycles
 Optimization completed.
    -- Stationary point found.
 Normal termination of Gaussian 16 at Fri Dec 11 01:24:05 2020.

 --------------------------------------------------------------------
 #N Geom=AllCheck Guess=TCheck SCRF=Check GenChk RB3LYP/6-31G(d) Freq
 --------------------------------------------------------------------

 Structure from the checkpoint file:  "JID_6981.chk"
 ------------------------------
 CID_79155017_JID_6981_neutraal
 ------------------------------
 Charge =  0 Multiplicity = 1

 SCF Done:  E(RB3LYP) =  -731.763030264     A.U. after    1 cycles

  Exact polarizability: 162.448   5.788 146.620   3.626  -2.158 122.899
 Approx polarizability: 205.616   0.644 209.792   9.270  -2.451 181.598

                      1                      2                      3
                      A                      A                      A
 Frequencies --     29.4410                45.5394                52.4023
 Red. masses --      4.4747                 3.7298                 3.5423
 Frc consts  --      0.0023                 0.0046                 0.0057
 IR Inten    --      0.5496                 1.6040                 0.2266

                      4                      5                      6
                      A                      A                      A
 Frequencies --     69.6948                89.7077               110.0590
 Red. masses --      3.0512                 3.4698                 3.0420
 Frc consts  --      0.0087                 0.0165                 0.0217
 IR Inten    --      1.3236                 1.0912                 5.0227

                      7                      8                      9
                      A                      A                      A
 Frequencies --    129.6565               145.7615               176.2036
 Red. masses --      3.9438                 2.7879                 2.5237
 Frc consts  --      0.0391                 0.0349                 0.0462
 IR Inten    --      3.8020                 2.6628                 3.5910

                     10                     11                     12
                      A                      A                      A
 Frequencies --    210.1179               232.6690               241.6748
 Red. masses --      2.4895                 1.2415                 1.1320
 Frc consts  --      0.0648                 0.0396                 0.0390
 IR Inten    --      3.5818                 3.3560                 0.0361

                     13                     14                     15
                      A                      A                      A
 Frequencies --    250.4078               266.1049               292.6106
 Red. masses --      2.0481                 2.1142                 2.3763
 Frc consts  --      0.0757                 0.0882                 0.1199
 IR Inten    --      1.6892                15.9989                 5.0709

                     16                     17                     18
                      A                      A                      A
 Frequencies --    298.5369               318.1328               328.9893
 Red. masses --      2.7463                 1.2057                 2.3495
 Frc consts  --      0.1442                 0.0719                 0.1498
 IR Inten    --      1.8086               134.7530                 7.7968

                     19                     20                     21
                      A                      A                      A
 Frequencies --    374.3701               412.1680               438.3719
 Red. masses --      2.7015                 2.5481                 2.7002
 Frc consts  --      0.2231                 0.2550                 0.3057
 IR Inten    --      2.6533                 3.7908                11.1371

                     22                     23                     24
                      A                      A                      A
 Frequencies --    445.5402               459.8488               473.8163
 Red. masses --      2.7628                 3.2573                 2.7103
 Frc consts  --      0.3231                 0.4058                 0.3585
 IR Inten    --      6.3017                10.3089                 0.9887

                     25                     26                     27
                      A                      A                      A
 Frequencies --    490.7120               537.0051               592.2155
 Red. masses --      3.2043                 2.1172                 2.1618
 Frc consts  --      0.4546                 0.3597                 0.4467
 IR Inten    --      3.0903                 8.2644                 1.3099

                     28                     29                     30
                      A                      A                      A
 Frequencies --    638.9660               742.4785               782.1208
 Red. masses --      3.7073                 2.9995                 1.9855
 Frc consts  --      0.8918                 0.9743                 0.7156
 IR Inten    --      6.8161                 0.5419                13.6344

                     31                     32                     33
                      A                      A                      A
 Frequencies --    787.4258               820.7544               823.2183
 Red. masses --      3.5804                 1.9110                 2.1241
 Frc consts  --      1.3080                 0.7585                 0.8481
 IR Inten    --      5.5782                 0.0224                 0.1230

                     34                     35                     36
                      A                      A                      A
 Frequencies --    859.9102               867.7797               884.8195
 Red. masses --      2.6801                 1.4571                 2.0358
 Frc consts  --      1.1676                 0.6465                 0.9391
 IR Inten    --      1.2612                14.0317                 6.4428

                     37                     38                     39
                      A                      A                      A
 Frequencies --    905.6169               923.2422               941.7105
 Red. masses --      2.5490                 2.3974                 1.7509
 Frc consts  --      1.2317                 1.2040                 0.9148
 IR Inten    --      0.9242                16.5554                 0.8349

                     40                     41                     42
                      A                      A                      A
 Frequencies --    945.6350               963.7185               975.1903
 Red. masses --      1.2331                 1.5123                 1.3320
 Frc consts  --      0.6497                 0.8275                 0.7463
 IR Inten    --      1.8128                 0.1060                 4.5148

                     43                     44                     45
                      A                      A                      A
 Frequencies --    997.8501              1044.2060              1068.5820
 Red. masses --      2.1429                 2.3136                 2.0647
 Frc consts  --      1.2571                 1.4863                 1.3891
 IR Inten    --     16.7799                35.9397                 7.0429

                     46                     47                     48
                      A                      A                      A
 Frequencies --   1070.1009              1082.6206              1089.9355
 Red. masses --      2.3055                 1.6361                 3.3362
 Frc consts  --      1.5555                 1.1299                 2.3351
 IR Inten    --     55.3375                 1.7584                84.9863

                     49                     50                     51
                      A                      A                      A
 Frequencies --   1126.8288              1144.2306              1157.9011
 Red. masses --      1.9917                 2.4805                 2.0262
 Frc consts  --      1.4900                 1.9134                 1.6006
 IR Inten    --     24.4586                12.8279                37.9859

                     52                     53                     54
                      A                      A                      A
 Frequencies --   1166.5564              1182.1100              1196.8940
 Red. masses --      2.1697                 1.9757                 1.4099
 Frc consts  --      1.7397                 1.6266                 1.1900
 IR Inten    --      9.8634                 3.7092                20.0227

                     55                     56                     57
                      A                      A                      A
 Frequencies --   1206.8197              1228.5975              1239.9270
 Red. masses --      1.5705                 1.8279                 1.8801
 Frc consts  --      1.3476                 1.6257                 1.7030
 IR Inten    --     25.2898                24.2278                26.6786

                     58                     59                     60
                      A                      A                      A
 Frequencies --   1253.6670              1270.6679              1299.3463
 Red. masses --      1.9289                 1.9345                 1.2412
 Frc consts  --      1.7862                 1.8403                 1.2346
 IR Inten    --    102.3680                64.2715                 2.8737

                     61                     62                     63
                      A                      A                      A
 Frequencies --   1319.8529              1334.4360              1361.1619
 Red. masses --      1.4335                 1.2150                 1.3478
 Frc consts  --      1.4713                 1.2748                 1.4713
 IR Inten    --    128.2429                36.5502                 7.2468

                     64                     65                     66
                      A                      A                      A
 Frequencies --   1372.0257              1372.9560              1380.4477
 Red. masses --      1.3214                 1.2968                 1.3698
 Frc consts  --      1.4656                 1.4402                 1.5379
 IR Inten    --     22.6712                 0.1635                 9.4313

                     67                     68                     69
                      A                      A                      A
 Frequencies --   1394.1578              1398.6912              1407.2410
 Red. masses --      1.5049                 1.4377                 1.4678
 Frc consts  --      1.7233                 1.6572                 1.7126
 IR Inten    --     48.8998                16.9950                17.7888

                     70                     71                     72
                      A                      A                      A
 Frequencies --   1408.7769              1419.1973              1421.9926
 Red. masses --      1.2033                 1.2998                 1.3154
 Frc consts  --      1.4070                 1.5425                 1.5672
 IR Inten    --      5.1859                45.5464                30.7386

                     73                     74                     75
                      A                      A                      A
 Frequencies --   1427.3171              1433.1127              1435.5290
 Red. masses --      1.3768                 1.3543                 1.2756
 Frc consts  --      1.6526                 1.6388                 1.5487
 IR Inten    --     50.5414                 2.3858                21.3611

                     76                     77                     78
                      A                      A                      A
 Frequencies --   1441.7376              1472.2777              1501.2940
 Red. masses --      1.3640                 1.5719                 1.0907
 Frc consts  --      1.6705                 2.0075                 1.4484
 IR Inten    --     82.9882               102.5646                11.4835

                     79                     80                     81
                      A                      A                      A
 Frequencies --   1509.4723              1509.8598              1511.6940
 Red. masses --      1.0540                 1.0990                 1.0868
 Frc consts  --      1.4150                 1.4761                 1.4633
 IR Inten    --      0.3919                 7.6249                 2.9271

                     82                     83                     84
                      A                      A                      A
 Frequencies --   1515.9876              1519.1102              1524.0147
 Red. masses --      1.1167                 1.0965                 1.0676
 Frc consts  --      1.5121                 1.4908                 1.4609
 IR Inten    --     10.7150                14.0285                17.1045

                     85                     86                     87
                      A                      A                      A
 Frequencies --   1531.6100              1532.8406              1534.4889
 Red. masses --      1.0878                 1.0872                 1.0739
 Frc consts  --      1.5034                 1.5051                 1.4898
 IR Inten    --      3.2845                 0.6793                 5.3741

                     88                     89                     90
                      A                      A                      A
 Frequencies --   1545.1978              1552.6758              1732.4214
 Red. masses --      1.1155                 1.0584                 9.3656
 Frc consts  --      1.5692                 1.5033                16.5613
 IR Inten    --     22.0290                 8.7743               250.5628

                     91                     92                     93
                      A                      A                      A
 Frequencies --   2992.4421              3002.4399              3019.2736
 Red. masses --      1.0721                 1.0720                 1.0686
 Frc consts  --      5.6562                 5.6939                 5.7393
 IR Inten    --     53.0361                38.9727                24.7901

                     94                     95                     96
                      A                      A                      A
 Frequencies --   3030.6483              3035.5154              3039.4210
 Red. masses --      1.0724                 1.0701                 1.0654
 Frc consts  --      5.8033                 5.8093                 5.7991
 IR Inten    --     16.0565                35.8637                51.9271

                     97                     98                     99
                      A                      A                      A
 Frequencies --   3051.9991              3053.5804              3055.0383
 Red. masses --      1.0451                 1.0634                 1.0568
 Frc consts  --      5.7353                 5.8419                 5.8113
 IR Inten    --     15.1904                36.8298                51.6919

                    100                    101                    102
                      A                      A                      A
 Frequencies --   3058.1672              3067.8707              3076.7489
 Red. masses --      1.0464                 1.0748                 1.0937
 Frc consts  --      5.7661                 5.9599                 6.0999
 IR Inten    --      8.3375                24.3889                57.1596

                    103                    104                    105
                      A                      A                      A
 Frequencies --   3082.2588              3096.1511              3105.6124
 Red. masses --      1.1037                 1.0983                 1.1015
 Frc consts  --      6.1780                 6.2029                 6.2591
 IR Inten    --     52.2241                30.1573                46.6336

                    106                    107                    108
                      A                      A                      A
 Frequencies --   3106.0825              3108.8843              3119.6466
 Red. masses --      1.0936                 1.1014                 1.1022
 Frc consts  --      6.2165                 6.2720                 6.3203
 IR Inten    --     39.3957                36.8640                43.2934

                    109                    110                    111
                      A                      A                      A
 Frequencies --   3126.3253              3156.8318              3167.8997
 Red. masses --      1.0923                 1.0931                 1.0991
 Frc consts  --      6.2902                 6.4181                 6.4987
 IR Inten    --     28.8859                 9.6868                 4.5853

                    112                    113                    114
                      A                      A                      A
 Frequencies --   3173.7397              3190.7645              3761.4237
 Red. masses --      1.0984                 1.0883                 1.0663
 Frc consts  --      6.5188                 6.5283                 8.8888
 IR Inten    --     13.4027                12.4471                10.1328

 - Thermochemistry -
 -------------------
 Temperature   298.150 Kelvin.  Pressure   1.00000 Atm.
 Atom     1 has atomic number  6 and mass  12.00000

 Molecular mass:   228.18378 amu.
 Principal axes and moments of inertia in atomic units:
                           1         2         3
     Eigenvalues --  2693.170585271.322576742.50578
           X            0.99972   0.02344  -0.00085
           Y           -0.02344   0.99972   0.00381
           Z            0.00094  -0.00379   0.99999
 This molecule is an asymmetric top.
 Rotational symmetry number  1.
 Warning -- assumption of classical behavior for rotation
           may cause significant error
 Rotational temperatures (Kelvin)      0.03216     0.01643     0.01285
 Rotational constants (GHZ):           0.67012     0.34237     0.26767
 Zero-point vibrational energy     955227.3 (Joules/Mol)
                                  228.30480 (Kcal/Mol)
 Warning -- explicit consideration of  27 degrees of freedom as
           vibrations may cause significant error
 Vibrational temperatures:     42.36    65.52    75.40   100.28   129.07
          (Kelvin)            158.35   186.55   209.72   253.52   302.31
                              334.76   347.72   360.28   382.87   421.00
                              429.53   457.72   473.34   538.64   593.02
                              630.72   641.03   661.62   681.72   706.03
                              772.63   852.07   919.33  1068.26  1125.30
                             1132.93  1180.88  1184.43  1237.22  1248.54
                             1273.06  1302.98  1328.34  1354.91  1360.56
                             1386.58  1403.08  1435.68  1502.38  1537.45
                             1539.64  1557.65  1568.17  1621.26  1646.29
                             1665.96  1678.41  1700.79  1722.06  1736.34
                             1767.68  1783.98  1803.75  1828.21  1869.47
                             1898.97  1919.96  1958.41  1974.04  1975.38
                             1986.16  2005.88  2012.40  2024.71  2026.92
                             2041.91  2045.93  2053.59  2061.93  2065.41
                             2074.34  2118.28  2160.03  2171.79  2172.35
                             2174.99  2181.17  2185.66  2192.72  2203.65
                             2205.42  2207.79  2223.20  2233.95  2492.57
                             4305.46  4319.84  4344.06  4360.43  4367.43
                             4373.05  4391.15  4393.42  4395.52  4400.02
                             4413.98  4426.76  4434.68  4454.67  4468.28
                             4468.96  4472.99  4488.48  4498.08  4541.98
                             4557.90  4566.30  4590.80  5411.85

 Zero-point correction=                           0.363827 (Hartree/Particle)
 Thermal correction to Energy=                    0.381378
 Thermal correction to Enthalpy=                  0.382322
 Thermal correction to Gibbs Free Energy=         0.318079
 Sum of electronic and zero-point Energies=           -731.399203
 Sum of electronic and thermal Energies=              -731.381653
 Sum of electronic and thermal Enthalpies=            -731.380708
 Sum of electronic and thermal Free Energies=         -731.444951

                     E (Thermal)             CV                S
                      KCal/Mol        Cal/Mol-Kelvin    Cal/Mol-Kelvin
 Total                  239.318             66.444            135.210
 Electronic               0.000              0.000              0.000
 Translational            0.889              2.981             42.177
 Rotational               0.889              2.981             32.926
 Vibrational            237.541             60.482             60.107
 Vibration     1          0.593              1.984              5.867
 Vibration     2          0.595              1.979              5.002
 Vibration     3          0.596              1.977              4.725
 Vibration     4          0.598              1.969              4.162
 Vibration     5          0.602              1.956              3.666
 Vibration     6          0.606              1.941              3.268
 Vibration     7          0.612              1.924              2.951
 Vibration     8          0.617              1.907              2.727
 Vibration     9          0.628              1.872              2.368
 Vibration    10          0.642              1.825              2.043
 Vibration    11          0.653              1.791              1.858
 Vibration    12          0.658              1.776              1.791
 Vibration    13          0.663              1.762              1.728
 Vibration    14          0.672              1.735              1.621
 Vibration    15          0.688              1.688              1.459
 Vibration    16          0.692              1.676              1.425
 Vibration    17          0.705              1.639              1.320
 Vibration    18          0.712              1.618              1.265
 Vibration    19          0.745              1.525              1.062
 Vibration    20          0.776              1.444              0.919
 Vibration    21          0.799              1.387              0.832
 Vibration    22          0.805              1.371              0.809
 Vibration    23          0.818              1.339              0.767
 Vibration    24          0.831              1.308              0.727
 Vibration    25          0.847              1.271              0.682
 Vibration    26          0.892              1.168              0.572
 Vibration    27          0.950              1.048              0.463

 Optimization completed.
    -- Stationary point found.
 Normal termination of Gaussian 16 at Fri Dec 11 01:39:13 2020.

 ----------------------------------------------------------------------
 # B3LYP/6-311++G(d,p) empiricaldispersion=gd3bj scf=xqc pop=npa geom=c
 heck
 ----------------------------------------------------------------------

 --------------------------------------
 CID_79155017_JID_6981_Energie_neutraal
 --------------------------------------
 Structure from the checkpoint file:  "JID_6981.chk"
 Charge =  0 Multiplicity = 1

 SCF Done:  E(RB3LYP) =  -731.978455651     A.U. after   14 cycles
 Normal termination of Gaussian 16 at Fri Dec 11 01:45:47 2020.

 ----------------------------------------------------------------------
 # B3LYP/6-311++G(d,p) empiricaldispersion=gd3bj scf=xqc pop=npa geom=c
 heck
 ----------------------------------------------------------------------

 ------------------------------------
 CID_79155017_JID_6981_Energie_kation
 ------------------------------------
 Structure from the checkpoint file:  "JID_6981.chk"
 Charge =  1 Multiplicity = 2

 SCF Done:  E(UB3LYP) =  -731.684577397     A.U. after   22 cycles
 Normal termination of Gaussian 16 at Fri Dec 11 01:59:30 2020.
 Gaussian 16:  ES64L-G16RevA.03 25-Dec-2016

 ----------------------------------------------------------------------
 # B3LYP/6-311++G(d,p) empiricaldispersion=gd3bj scf=xqc pop=npa geom=c
 heck
 ----------------------------------------------------------------------

 -----------------------------------
 CID_79155017_JID_6981_Energie_anion
 -----------------------------------
 Structure from the checkpoint file:  "JID_6981.chk"
 Charge = -1 Multiplicity = 2

                         Standard orientation:
 ---------------------------------------------------------------------
 Center     Atomic      Atomic             Coordinates (Angstroms)
 Number     Number       Type             X           Y           Z
 ---------------------------------------------------------------------
      1          6           0        1.667600    2.855563   -0.659656
      2          6           0        1.342245    1.903822    0.499662
      3          6           0        0.554099    2.587288    1.619654
      4          7           0        0.685441    0.651257    0.056422
      5          6           0        1.607115   -0.389633   -0.409546
      6          6           0        2.356296   -1.123464    0.708077
      7          6           0        3.270015   -2.224591    0.165306
      8          8           0        4.330341   -1.724018   -0.644036
      9          6           0       -0.601263    0.741954   -0.464101
     10          8           0       -1.145730    1.819852   -0.703705
     11          7           0       -1.245516   -0.473681   -0.716447
     12          6           0       -2.529817   -0.365267   -1.420866
     13          6           0       -3.698754   -0.116426   -0.461166
     14          6           0       -3.743893   -1.198930    0.625092
     15          6           0       -2.383518   -1.322852    1.322788
     16          6           0       -1.254938   -1.531432    0.303344
     17          1           0        0.748111    3.245746   -1.097861
     18          1           0        2.237616    2.342014   -1.442845
     19          1           0        2.278516    3.690698   -0.298289
     20          1           0        2.290987    1.571144    0.934423
     21          1           0       -0.397111    2.972415    1.249056
     22          1           0        0.356538    1.879705    2.432355
     23          1           0        1.137071    3.421882    2.024412
     24          1           0        1.038339   -1.099973   -1.013936
     25          1           0        2.346431    0.076532   -1.079051
     26          1           0        2.968365   -0.417517    1.280646
     27          1           0        1.641376   -1.568330    1.411436
     28          1           0        3.755682   -2.744357    0.996755
     29          1           0        2.673643   -2.972431   -0.383303
     30          1           0        3.953584   -1.451682   -1.493645
     31          1           0       -2.680228   -1.311125   -1.959778
     32          1           0       -2.447316    0.439118   -2.151676
     33          1           0       -4.640629   -0.093173   -1.023410
     34          1           0       -3.560329    0.871660   -0.008213
     35          1           0       -4.530544   -0.980638    1.357076
     36          1           0       -4.000174   -2.165435    0.165562
     37          1           0       -2.172357   -0.406700    1.890892
     38          1           0       -2.386001   -2.154637    2.038856
     39          1           0       -0.293674   -1.556555    0.811046
     40          1           0       -1.385387   -2.494261   -0.209934
 ---------------------------------------------------------------------

 SCF Done:  E(UB3LYP) =  -731.967408038     A.U. after   31 cycles

 The electronic state is 2-A.
 Alpha  occ. eigenvalues --  -19.02595 -18.98520 -14.23645 -14.23049 -10.19270
 Alpha  occ. eigenvalues --  -10.12098 -10.11910 -10.10924 -10.10403 -10.09926
 Alpha  occ. eigenvalues --  -10.07618 -10.07219 -10.07190 -10.06935 -10.06804
 Alpha  occ. eigenvalues --  -10.06503  -0.95119  -0.92675  -0.84358  -0.82889
 Alpha  occ. eigenvalues --   -0.70462  -0.69506  -0.67203  -0.66206  -0.60108
 Alpha  occ. eigenvalues --   -0.59221  -0.57160  -0.53892  -0.51947  -0.50802
 Alpha  occ. eigenvalues --   -0.48698  -0.43451  -0.42921  -0.40975  -0.39079
 Alpha  occ. eigenvalues --   -0.38161  -0.37210  -0.36603  -0.35644  -0.35019
 Alpha  occ. eigenvalues --   -0.34642  -0.33613  -0.32744  -0.31914  -0.31301
 Alpha  occ. eigenvalues --   -0.30592  -0.30367  -0.29358  -0.28842  -0.28037
 Alpha  occ. eigenvalues --   -0.27082  -0.26561  -0.25796  -0.25531  -0.24901
 Alpha  occ. eigenvalues --   -0.24634  -0.23743  -0.23122  -0.22708  -0.18471
 Alpha  occ. eigenvalues --   -0.17789  -0.14478  -0.13456   0.04152
 Alpha virt. eigenvalues --    0.06104   0.06555   0.06978   0.07940   0.08279
 Alpha virt. eigenvalues --    0.08858   0.09222   0.09345   0.10551   0.10639
 Alpha virt. eigenvalues --    0.11030   0.11500   0.11722   0.12014   0.12586

  Beta  occ. eigenvalues --  -19.02554 -18.98511 -14.23642 -14.23052 -10.19261
  Beta  occ. eigenvalues --  -10.12068 -10.11907 -10.10896 -10.10381 -10.09914
  Beta  occ. eigenvalues --  -10.07605 -10.07201 -10.07172 -10.06929 -10.06797
  Beta  occ. eigenvalues --  -10.06493  -0.95103  -0.92587  -0.84344  -0.82879
  Beta  occ. eigenvalues --   -0.70438  -0.69474  -0.67171  -0.66177  -0.60075
  Beta  occ. eigenvalues --   -0.59171  -0.57117  -0.53858  -0.51916  -0.50728
  Beta  occ. eigenvalues --   -0.48663  -0.43411  -0.42867  -0.40895  -0.39052
  Beta  occ. eigenvalues --   -0.38133  -0.37179  -0.36574  -0.35623  -0.34981
  Beta  occ. eigenvalues --   -0.34612  -0.33586  -0.32707  -0.31892  -0.31263
  Beta  occ. eigenvalues --   -0.30562  -0.30347  -0.29328  -0.28815  -0.28015
  Beta  occ. eigenvalues --   -0.27035  -0.26538  -0.25764  -0.25510  -0.24886
  Beta  occ. eigenvalues --   -0.24605  -0.23706  -0.23089  -0.22678  -0.18414
  Beta  occ. eigenvalues --   -0.17774  -0.14455  -0.13449
  Beta virt. eigenvalues --    0.06228   0.06763   0.07298   0.07458   0.08450
  Beta virt. eigenvalues --    0.08702   0.09023   0.09295   0.09616   0.10863
  Beta virt. eigenvalues --    0.10945   0.11346   0.11572   0.11772   0.12223

 Mulliken charges and spin densities:
               1          2
     1  C   -0.176626  -0.377833
     2  C   -0.247893   0.295500
     3  C   -0.142324  -0.225176
     4  N    0.347984   0.025037
     5  C   -0.264023  -0.822116
     6  C   -0.712042   1.198994
     7  C    1.474552  -2.063515
     8  O   -0.261044   0.031065
     9  C   -0.111832  -0.395384
    10  O   -0.299596   0.013321
    11  N   -0.035308   0.159510
    12  C    0.205103  -0.350626
    13  C   -0.435646   0.264180
    14  C    0.364261  -0.938069
    15  C    0.424356  -0.585905
    16  C   -0.408343   0.240877
    17  H    0.178373   0.010825
    18  H   -0.138453   0.260329
    19  H    0.096565   0.043473
    20  H    0.201925  -0.081321
    21  H    0.164419   0.019262
    22  H   -0.030246   0.157284
    23  H    0.062684   0.079950
    24  H   -0.114525   0.325700
    25  H    0.053329   0.071353
    26  H    0.024091   0.135867
    27  H   -0.345571   0.508789
    28  H   -0.022584   0.195832
    29  H   -0.458999   0.626158
    30  H   -0.187135   0.442205
    31  H   -0.238003   0.414128
    32  H    0.190334  -0.001361
    33  H   -0.048630   0.210949
    34  H    0.150077   0.022615
    35  H   -0.221493   0.377074
    36  H    0.060156   0.076995
    37  H    0.282051  -0.142845
    38  H   -0.699732   0.889091
    39  H    0.789354  -0.771671
    40  H   -0.469566   0.659459
 Sum of Mulliken charges =  -1.00000   1.00000

 Dipole moment (field-independent basis, Debye):
    X=             -1.0864    Y=              5.8253    Z=              1.6567  Tot=              6.1530
 Quadrupole moment (field-independent basis, Debye-Ang):
   XX=           -178.7340   YY=           -157.5251   ZZ=           -138.3126
   XY=              2.9957   XZ=             11.7840   YZ=              1.6331

 Summary of Natural Population Analysis:

                                       Natural Population
                Natural  -----------------------------------------------
    Atom  No    Charge         Core      Valence    Rydberg      Total
 -----------------------------------------------------------------------
      C    1   -0.29470      0.99964     2.29031    0.00475     3.29470
      C    2   -0.00379      0.99961     1.99250    0.01168     3.00379
      C    3   -0.28975      0.99964     2.28543    0.00468     3.28975
      N    4   -0.27546      0.99963     2.76427    0.01156     3.77546
      C    5   -0.09149      0.99958     2.07983    0.01208     3.09149
      C    6   -0.20576      0.99961     2.19838    0.00777     3.20576
      C    7   -0.00852      0.99960     1.99590    0.01302     3.00852
      O    8   -0.36998      0.99990     3.36343    0.00666     4.36998
      C    9    0.42339      0.99963     1.55214    0.02484     2.57661
      O   10   -0.34180      0.99988     3.33754    0.00438     4.34180
      N   11   -0.27691      0.99967     2.76570    0.01155     3.77691
      C   12   -0.08356      0.99961     2.07263    0.01132     3.08356
      C   13   -0.19960      0.99962     2.19196    0.00802     3.19960
      C   14   -0.19068      0.99963     2.18283    0.00822     3.19068
      C   15   -0.19571      0.99963     2.18756    0.00853     3.19571
      C   16   -0.08484      0.99959     2.07363    0.01162     3.08484
      H   17    0.11256      0.00000     0.38648    0.00096     0.38744
      H   18    0.09979      0.00000     0.39918    0.00102     0.40021
      H   19    0.09488      0.00000     0.40434    0.00078     0.40512
      H   20    0.09324      0.00000     0.40456    0.00220     0.40676
      H   21    0.11140      0.00000     0.38760    0.00100     0.38860
      H   22    0.10043      0.00000     0.39850    0.00108     0.39957
      H   23    0.09556      0.00000     0.40372    0.00072     0.40444
      H   24    0.10920      0.00000     0.38847    0.00233     0.39080
      H   25    0.09233      0.00000     0.40590    0.00177     0.40767
      H   26    0.09602      0.00000     0.40244    0.00154     0.40398
      H   27    0.09930      0.00000     0.39905    0.00165     0.40070
      H   28    0.08574      0.00000     0.41312    0.00114     0.41426
      H   29    0.07926      0.00000     0.41853    0.00221     0.42074
      H   30    0.23082      0.00000     0.26347    0.00571     0.26918
      H   31    0.09233      0.00000     0.40649    0.00119     0.40767
      H   32    0.10859      0.00000     0.39046    0.00095     0.39141
      H   33    0.09695      0.00000     0.40223    0.00082     0.40305
      H   34    0.10293      0.00000     0.39583    0.00124     0.39707
      H   35    0.09827      0.00000     0.40074    0.00098     0.40173
      H   36    0.09404      0.00000     0.40443    0.00154     0.40596
      H   37    0.09405      0.00000     0.40457    0.00138     0.40595
      H   38    0.10327      0.00000     0.39511    0.00162     0.39673
      H   39    0.10295      0.00000     0.39459    0.00246     0.39705
      H   40    0.09526      0.00000     0.40259    0.00215     0.40474
 =======================================================================
   * Total *   -0.00000     15.99447    46.80643    0.19911    63.00000

 Normal termination of Gaussian 16 at Fri Dec 11 02:18:53 2020.
