 Gaussian 16, Revision A.03,

 -----------------------------------------------------------
 # opt freq B3LYP/6-31G(d) empiricaldispersion=gd3bj scf=xqc
 -----------------------------------------------------------

 -------------------------------
 CID_151937458_JID_1269_neutraal
 -------------------------------
 Symbolic Z-matrix:
 Charge =  0 Multiplicity = 1

 SCF Done:  E(RB3LYP) =  -938.286933518     A.U. after   23 cycles
 SCF Done:  E(RB3LYP) =  -938.318087872     A.U. after   18 cycles
 SCF Done:  E(RB3LYP) =  -938.329347528     A.U. after   17 cycles
 SCF Done:  E(RB3LYP) =  -938.333611797     A.U. after   15 cycles
 SCF Done:  E(RB3LYP) =  -938.338638981     A.U. after   16 cycles
 SCF Done:  E(RB3LYP) =  -938.341624136     A.U. after   15 cycles
 SCF Done:  E(RB3LYP) =  -938.343106511     A.U. after   15 cycles
 SCF Done:  E(RB3LYP) =  -938.343530861     A.U. after   14 cycles
 SCF Done:  E(RB3LYP) =  -938.343893871     A.U. after   14 cycles
 SCF Done:  E(RB3LYP) =  -938.344159001     A.U. after   13 cycles
 SCF Done:  E(RB3LYP) =  -938.344638044     A.U. after   12 cycles
 SCF Done:  E(RB3LYP) =  -938.344638875     A.U. after   10 cycles
 SCF Done:  E(RB3LYP) =  -938.344641993     A.U. after   11 cycles
 SCF Done:  E(RB3LYP) =  -938.344642804     A.U. after   10 cycles
 SCF Done:  E(RB3LYP) =  -938.344642950     A.U. after    9 cycles
 Optimization completed.
    -- Stationary point found.
 Normal termination of Gaussian 16 at Tue Dec  8 19:38:04 2020.

 --------------------------------------------------------------------
 #N Geom=AllCheck Guess=TCheck SCRF=Check GenChk RB3LYP/6-31G(d) Freq
 --------------------------------------------------------------------

 Structure from the checkpoint file:  "JID_1269.chk"
 -------------------------------
 CID_151937458_JID_1269_neutraal
 -------------------------------
 Charge =  0 Multiplicity = 1

 SCF Done:  E(RB3LYP) =  -938.344642950     A.U. after    1 cycles

  Exact polarizability: 140.613   0.170  91.200   4.615   1.601  43.867
 Approx polarizability: 242.028  -6.212 163.602  13.239  -2.194  79.410

                      1                      2                      3
                      A                      A                      A
 Frequencies --     43.2276                60.8359                75.7465
 Red. masses --     14.2393                10.5985                12.6892
 Frc consts  --      0.0157                 0.0231                 0.0429
 IR Inten    --      0.6270                 3.9637                14.0951

                      4                      5                      6
                      A                      A                      A
 Frequencies --    109.8237               134.6871               209.5591
 Red. masses --      8.9644                 9.7624                 5.6296
 Frc consts  --      0.0637                 0.1043                 0.1457
 IR Inten    --      5.3782                22.3748                 3.7256

                      7                      8                      9
                      A                      A                      A
 Frequencies --    262.5272               282.0278               334.2597
 Red. masses --      9.7374                 1.6468                 5.3997
 Frc consts  --      0.3954                 0.0772                 0.3555
 IR Inten    --      8.4209               136.8369                23.3262

                     10                     11                     12
                      A                      A                      A
 Frequencies --    413.3221               446.2303               515.1377
 Red. masses --     10.6359                 9.1221                13.8928
 Frc consts  --      1.0705                 1.0702                 2.1721
 IR Inten    --    115.4140                 7.8815                31.4543

                     13                     14                     15
                      A                      A                      A
 Frequencies --    530.2755               562.1220               601.9018
 Red. masses --     13.0085                11.6713                 2.7613
 Frc consts  --      2.1552                 2.1729                 0.5894
 IR Inten    --     12.0591                10.0533                 7.7755

                     16                     17                     18
                      A                      A                      A
 Frequencies --    676.3959               766.0894               784.3629
 Red. masses --      6.1158                 8.8217                 1.4101
 Frc consts  --      1.6486                 3.0504                 0.5111
 IR Inten    --      3.9857                 9.4300                 3.4691

                     19                     20                     21
                      A                      A                      A
 Frequencies --    845.4864               935.5845               992.3272
 Red. masses --      1.1927                 4.3078                 2.9997
 Frc consts  --      0.5023                 2.2216                 1.7404
 IR Inten    --    112.3136                40.3203               126.2305

                     22                     23                     24
                      A                      A                      A
 Frequencies --   1028.1062              1088.1659              1175.0348
 Red. masses --      8.1211                 2.3568                 1.8448
 Frc consts  --      5.0575                 1.6443                 1.5007
 IR Inten    --     37.3180                66.8689                12.7610

                     25                     26                     27
                      A                      A                      A
 Frequencies --   1199.8164              1247.9732              1267.4335
 Red. masses --      5.9526                 3.0943                 2.7826
 Frc consts  --      5.0488                 2.8394                 2.6336
 IR Inten    --    155.2024                34.7435                42.4738

                     28                     29                     30
                      A                      A                      A
 Frequencies --   1387.4535              1403.1249              1463.1274
 Red. masses --      6.2129                 3.7497                 4.7910
 Frc consts  --      7.0466                 4.3495                 6.0429
 IR Inten    --    135.9386                19.7752                62.3718

                     31                     32                     33
                      A                      A                      A
 Frequencies --   1518.7453              1581.6374              2274.0060
 Red. masses --      2.4175                 6.4031                13.9867
 Frc consts  --      3.2854                 9.4374                42.6135
 IR Inten    --      0.3828               115.8079               700.7413

                     34                     35                     36
                      A                      A                      A
 Frequencies --   3163.8908              3278.2705              3632.0231
 Red. masses --      1.0874                 1.0979                 1.0823
 Frc consts  --      6.4131                 6.9517                 8.4117
 IR Inten    --    324.3309                 1.2737               110.9208

 - Thermochemistry -
 -------------------
 Temperature   298.150 Kelvin.  Pressure   1.00000 Atm.
 Atom     1 has atomic number  6 and mass  12.00000

 Molecular mass:   173.00075 amu.
 Principal axes and moments of inertia in atomic units:
                           1         2         3
     Eigenvalues --   966.722543163.002003948.65369
           X            0.99999   0.00471   0.00141
           Y           -0.00472   0.99995   0.00842
           Z           -0.00137  -0.00843   0.99996
 This molecule is an asymmetric top.
 Rotational symmetry number  1.
 Warning -- assumption of classical behavior for rotation
           may cause significant error
 Rotational temperatures (Kelvin)      0.08960     0.02738     0.02194
 Rotational constants (GHZ):           1.86687     0.57058     0.45705
 Zero-point vibrational energy     217066.8 (Joules/Mol)
                                   51.88022 (Kcal/Mol)
 Warning -- explicit consideration of  15 degrees of freedom as
           vibrations may cause significant error
 Vibrational temperatures:     62.19    87.53   108.98   158.01   193.78
          (Kelvin)            301.51   377.72   405.78   480.93   594.68
                              642.03   741.17   762.95   808.77   866.00
                              973.18  1102.23  1128.52  1216.47  1346.10
                             1427.74  1479.22  1565.63  1690.61  1726.27
                             1795.56  1823.55  1996.24  2018.78  2105.11
                             2185.14  2275.62  3271.79  4552.13  4716.70
                             5225.67

 Zero-point correction=                           0.082676 (Hartree/Particle)
 Thermal correction to Energy=                    0.093092
 Thermal correction to Enthalpy=                  0.094037
 Thermal correction to Gibbs Free Energy=         0.044714
 Sum of electronic and zero-point Energies=           -938.261967
 Sum of electronic and thermal Energies=              -938.251551
 Sum of electronic and thermal Enthalpies=            -938.250606
 Sum of electronic and thermal Free Energies=         -938.299929

                     E (Thermal)             CV                S
                      KCal/Mol        Cal/Mol-Kelvin    Cal/Mol-Kelvin
 Total                   58.416             35.486            103.808
 Electronic               0.000              0.000              0.000
 Translational            0.889              2.981             41.352
 Rotational               0.889              2.981             30.869
 Vibrational             56.639             29.524             31.588
 Vibration     1          0.595              1.980              5.105
 Vibration     2          0.597              1.973              4.430
 Vibration     3          0.599              1.965              3.998
 Vibration     4          0.606              1.941              3.272
 Vibration     5          0.613              1.919              2.878
 Vibration     6          0.642              1.826              2.048
 Vibration     7          0.670              1.741              1.645
 Vibration     8          0.681              1.707              1.521
 Vibration     9          0.716              1.607              1.239
 Vibration    10          0.777              1.441              0.915
 Vibration    11          0.805              1.369              0.807
 Vibration    12          0.870              1.216              0.621
 Vibration    13          0.885              1.183              0.587
 Vibration    14          0.918              1.113              0.520
 Vibration    15          0.960              1.028              0.446

 Optimization completed.
    -- Stationary point found.
 Normal termination of Gaussian 16 at Tue Dec  8 19:40:15 2020.

 ----------------------------------------------------------------------
 # B3LYP/6-311++G(d,p) empiricaldispersion=gd3bj scf=xqc pop=npa geom=c
 heck
 ----------------------------------------------------------------------

 ---------------------------------------
 CID_151937458_JID_1269_Energie_neutraal
 ---------------------------------------
 Structure from the checkpoint file:  "JID_1269.chk"
 Charge =  0 Multiplicity = 1

 SCF Done:  E(RB3LYP) =  -938.533948347     A.U. after   17 cycles
 Normal termination of Gaussian 16 at Tue Dec  8 19:41:07 2020.

 ----------------------------------------------------------------------
 # B3LYP/6-311++G(d,p) empiricaldispersion=gd3bj scf=xqc pop=npa geom=c
 heck
 ----------------------------------------------------------------------

 -------------------------------------
 CID_151937458_JID_1269_Energie_kation
 -------------------------------------
 Structure from the checkpoint file:  "JID_1269.chk"
 Charge =  1 Multiplicity = 2

 SCF Done:  E(UB3LYP) =  -938.214524711     A.U. after   31 cycles
 Normal termination of Gaussian 16 at Tue Dec  8 19:42:59 2020.
 Gaussian 16:  ES64L-G16RevA.03 25-Dec-2016

 ----------------------------------------------------------------------
 # B3LYP/6-311++G(d,p) empiricaldispersion=gd3bj scf=xqc pop=npa geom=c
 heck
 ----------------------------------------------------------------------

 ------------------------------------
 CID_151937458_JID_1269_Energie_anion
 ------------------------------------
 Structure from the checkpoint file:  "JID_1269.chk"
 Charge = -1 Multiplicity = 2

                         Standard orientation:
 ---------------------------------------------------------------------
 Center     Atomic      Atomic             Coordinates (Angstroms)
 Number     Number       Type             X           Y           Z
 ---------------------------------------------------------------------
      1          6           0        1.499936    1.442549    0.219952
      2          6           0        1.092687    0.157277   -0.125071
      3          6           0       -0.315324    0.184671   -0.289323
      4         16           0       -2.223933   -0.862661   -0.297638
      5          8           0       -2.158008   -1.547521    1.013782
      6          8           0       -2.967581    0.457702   -0.287994
      7          7           0       -0.670186    1.440025   -0.067738
      8          7           0        0.380934    2.213260    0.299409
      9          7           0        1.851662   -1.011409   -0.295446
     10          7           0        3.070616   -0.927736   -0.090631
     11          7           0        4.198775   -0.990304    0.063982
     12          1           0        2.475153    1.859609    0.428382
     13          1           0       -1.686226    1.665690    0.007286
     14          1           0        0.312310    3.222008    0.319865
 ---------------------------------------------------------------------

 SCF Done:  E(UB3LYP) =  -938.550593888     A.U. after   33 cycles
 SCF Done:  E(UB3LYP) =  -938.550593888     a.u. after    1 cycles

 The electronic state is 2-A.
 Alpha  occ. eigenvalues --  -88.85590 -18.97666 -18.97275 -14.36888 -14.29017
 Alpha  occ. eigenvalues --  -14.28278 -14.27312 -14.26096 -10.11475 -10.10788
 Alpha  occ. eigenvalues --  -10.09375  -7.92568  -5.88845  -5.88818  -5.88173
 Alpha  occ. eigenvalues --   -1.03597  -0.97504  -0.94106  -0.88176  -0.84847
 Alpha  occ. eigenvalues --   -0.75446  -0.70166  -0.57473  -0.52408  -0.51493
 Alpha  occ. eigenvalues --   -0.47192  -0.42620  -0.40838  -0.40656  -0.37627
 Alpha  occ. eigenvalues --   -0.36002  -0.35332  -0.33280  -0.31733  -0.30542
 Alpha  occ. eigenvalues --   -0.30114  -0.22691  -0.21231  -0.19357  -0.18354
 Alpha  occ. eigenvalues --   -0.17591  -0.16319  -0.12057  -0.11381   0.03320
 Alpha virt. eigenvalues --    0.05706   0.06651   0.08407   0.09188   0.09696
 Alpha virt. eigenvalues --    0.12255   0.13023   0.13860   0.14134   0.15557
 Alpha virt. eigenvalues --    0.16161   0.16674   0.17882   0.18245   0.18962

  Beta  occ. eigenvalues --  -88.85575 -18.97664 -18.97243 -14.36712 -14.28708
  Beta  occ. eigenvalues --  -14.28112 -14.27132 -14.26114 -10.11499 -10.10528
  Beta  occ. eigenvalues --  -10.09296  -7.92554  -5.88816  -5.88800  -5.88163
  Beta  occ. eigenvalues --   -1.03298  -0.97130  -0.94046  -0.88048  -0.84806
  Beta  occ. eigenvalues --   -0.74994  -0.69882  -0.57201  -0.51994  -0.51269
  Beta  occ. eigenvalues --   -0.47047  -0.42358  -0.40563  -0.40083  -0.37195
  Beta  occ. eigenvalues --   -0.35326  -0.34911  -0.33005  -0.31591  -0.30474
  Beta  occ. eigenvalues --   -0.30036  -0.22302  -0.20912  -0.18528  -0.17904
  Beta  occ. eigenvalues --   -0.17481  -0.16196  -0.11375  -0.11272
  Beta virt. eigenvalues --    0.07235   0.07449   0.08294   0.08817   0.09843
  Beta virt. eigenvalues --    0.10309   0.12554   0.13095   0.13991   0.14176
  Beta virt. eigenvalues --    0.15644   0.16346   0.16784   0.17870   0.18335

 Mulliken charges and spin densities:
               1          2
     1  C    0.507566  -0.475120
     2  C   -0.852495   0.377755
     3  C    0.074787  -0.261645
     4  S    0.462738   0.028809
     5  O   -0.410142   0.007526
     6  O   -0.452542   0.000468
     7  N   -0.255403   0.269299
     8  N    0.383187  -0.390955
     9  N    0.010349  -0.032160
    10  N    0.238693   0.059415
    11  N   -0.282928   0.121207
    12  H   -0.333235   0.487138
    13  H    0.422132  -0.026911
    14  H   -0.512708   0.835175
 Sum of Mulliken charges =  -1.00000   1.00000

 Dipole moment (field-independent basis, Debye):
    X=              0.8330    Y=             -1.4857    Z=             -1.5277  Tot=              2.2880
 Quadrupole moment (field-independent basis, Debye-Ang):
   XX=           -119.4696   YY=           -105.3524   ZZ=            -82.6474
   XY=             -5.3542   XZ=              3.2040   YZ=              2.0640

 Summary of Natural Population Analysis:

                                       Natural Population
                Natural  -----------------------------------------------
    Atom  No    Charge         Core      Valence    Rydberg      Total
 -----------------------------------------------------------------------
      C    1    0.03786      0.99954     1.94967    0.01294     2.96214
      C    2   -0.01463      0.99937     2.00102    0.01425     3.01463
      C    3    0.00946      0.99932     1.96727    0.02395     2.99054
      S    4    0.75014      4.99961     2.16708    0.08317     7.24986
      O    5   -0.46261      0.99992     3.45458    0.00811     4.46261
      O    6   -0.49886      0.99993     3.49152    0.00741     4.49886
      N    7   -0.16209      0.99959     2.64880    0.01369     3.66209
      N    8   -0.13288      0.99970     2.61922    0.01396     3.63288
      N    9   -0.16716      0.99964     2.65481    0.01272     3.66716
      N   10    0.13332      0.99971     2.35222    0.01476     3.36668
      N   11   -0.03329      0.99982     2.52031    0.01316     3.53329
      H   12    0.10817      0.00000     0.39047    0.00137     0.39183
      H   13    0.22384      0.00000     0.27257    0.00359     0.27616
      H   14    0.20873      0.00000     0.27045    0.02082     0.29127
 =======================================================================
   * Total *    0.00000     14.99613    28.75998    0.24389    44.00000

 Normal termination of Gaussian 16 at Tue Dec  8 19:45:14 2020.
