 Gaussian 16, Revision A.03,

 -----------------------------------------------------------
 # opt freq B3LYP/6-31G(d) empiricaldispersion=gd3bj scf=xqc
 -----------------------------------------------------------

 -------------------------------
 CID_116724915_JID_3926_neutraal
 -------------------------------
 Symbolic Z-matrix:
 Charge =  0 Multiplicity = 1

 SCF Done:  E(RB3LYP) =  -564.239472808     A.U. after   12 cycles
 SCF Done:  E(RB3LYP) =  -564.243904707     A.U. after   11 cycles
 SCF Done:  E(RB3LYP) =  -564.244029301     A.U. after   11 cycles
 SCF Done:  E(RB3LYP) =  -564.243697565     A.U. after   10 cycles
 SCF Done:  E(RB3LYP) =  -564.244712317     A.U. after   10 cycles
 SCF Done:  E(RB3LYP) =  -564.244940578     A.U. after   10 cycles
 SCF Done:  E(RB3LYP) =  -564.244816660     A.U. after   10 cycles
 SCF Done:  E(RB3LYP) =  -564.245047636     A.U. after   10 cycles
 SCF Done:  E(RB3LYP) =  -564.245070454     A.U. after    9 cycles
 SCF Done:  E(RB3LYP) =  -564.245079155     A.U. after    9 cycles
 SCF Done:  E(RB3LYP) =  -564.245081059     A.U. after    7 cycles
 SCF Done:  E(RB3LYP) =  -564.245081815     A.U. after    7 cycles
 SCF Done:  E(RB3LYP) =  -564.245082036     A.U. after    6 cycles
 SCF Done:  E(RB3LYP) =  -564.245082143     A.U. after    6 cycles
 SCF Done:  E(RB3LYP) =  -564.245082213     A.U. after    6 cycles
 SCF Done:  E(RB3LYP) =  -564.245082224     A.U. after    5 cycles
 Optimization completed.
    -- Stationary point found.
 Normal termination of Gaussian 16 at Mon Dec 14 13:19:41 2020.

 --------------------------------------------------------------------
 #N Geom=AllCheck Guess=TCheck SCRF=Check GenChk RB3LYP/6-31G(d) Freq
 --------------------------------------------------------------------

 Structure from the checkpoint file:  "JID_3926.chk"
 -------------------------------
 CID_116724915_JID_3926_neutraal
 -------------------------------
 Charge =  0 Multiplicity = 1

 SCF Done:  E(RB3LYP) =  -564.245082224     A.U. after    1 cycles

  Exact polarizability: 143.123  -1.677 128.018  -1.370   1.555 111.452
 Approx polarizability: 175.059  -2.513 172.176  -1.105   2.410 170.325

                      1                      2                      3
                      A                      A                      A
 Frequencies --     34.0010                49.6017                80.4234
 Red. masses --      2.6184                 2.7215                 2.8758
 Frc consts  --      0.0018                 0.0039                 0.0110
 IR Inten    --      0.1729                 0.3261                 0.3084

                      4                      5                      6
                      A                      A                      A
 Frequencies --     91.7627               110.3359               155.1822
 Red. masses --      2.2567                 2.7147                 1.4009
 Frc consts  --      0.0112                 0.0195                 0.0199
 IR Inten    --      0.0530                 0.4672                 0.1317

                      7                      8                      9
                      A                      A                      A
 Frequencies --    173.0932               188.8500               208.3555
 Red. masses --      1.9744                 1.4703                 1.5393
 Frc consts  --      0.0349                 0.0309                 0.0394
 IR Inten    --      0.9002                 0.9363                 0.6653

                     10                     11                     12
                      A                      A                      A
 Frequencies --    214.8967               234.2817               245.9466
 Red. masses --      1.4041                 1.4078                 1.5231
 Frc consts  --      0.0382                 0.0455                 0.0543
 IR Inten    --      0.1644                 1.2513                 0.3775

                     13                     14                     15
                      A                      A                      A
 Frequencies --    264.6090               270.1076               285.2238
 Red. masses --      1.4686                 1.4125                 1.3108
 Frc consts  --      0.0606                 0.0607                 0.0628
 IR Inten    --      0.2698                 0.1685                 0.5906

                     16                     17                     18
                      A                      A                      A
 Frequencies --    296.1516               316.7487               331.7980
 Red. masses --      2.1251                 2.2646                 2.4694
 Frc consts  --      0.1098                 0.1339                 0.1602
 IR Inten    --      1.7931                 2.6293                 0.6535

                     19                     20                     21
                      A                      A                      A
 Frequencies --    342.9228               359.6929               392.8749
 Red. masses --      2.7946                 3.1892                 2.4733
 Frc consts  --      0.1936                 0.2431                 0.2249
 IR Inten    --      3.2273                 7.6295                 2.0536

                     22                     23                     24
                      A                      A                      A
 Frequencies --    400.2751               430.9016               479.3417
 Red. masses --      2.3288                 2.3358                 2.3747
 Frc consts  --      0.2198                 0.2555                 0.3215
 IR Inten    --      0.9229                 1.8941                 5.3451

                     25                     26                     27
                      A                      A                      A
 Frequencies --    508.1027               543.0432               619.3428
 Red. masses --      3.0484                 2.6221                 2.9376
 Frc consts  --      0.4637                 0.4556                 0.6639
 IR Inten    --      1.2009                 4.7394                 3.4733

                     28                     29                     30
                      A                      A                      A
 Frequencies --    766.7930               781.0809               802.1451
 Red. masses --      1.4264                 2.8344                 1.2901
 Frc consts  --      0.4941                 1.0188                 0.4891
 IR Inten    --     21.1528                 8.3442                51.2510

                     31                     32                     33
                      A                      A                      A
 Frequencies --    868.2395               897.1682               905.7994
 Red. masses --      2.3949                 2.5819                 1.5778
 Frc consts  --      1.0637                 1.2244                 0.7627
 IR Inten    --      0.6355                 0.5653                 3.2471

                     34                     35                     36
                      A                      A                      A
 Frequencies --    934.8877               945.7264               948.8322
 Red. masses --      1.4106                 1.7277                 2.0834
 Frc consts  --      0.7264                 0.9104                 1.1051
 IR Inten    --     16.7759                 0.4686                 5.8670

                     37                     38                     39
                      A                      A                      A
 Frequencies --    955.8638               971.9671               980.7460
 Red. masses --      2.2015                 1.3318                 1.6972
 Frc consts  --      1.1851                 0.7413                 0.9618
 IR Inten    --     18.1077                10.0843                14.0838

                     40                     41                     42
                      A                      A                      A
 Frequencies --   1032.0047              1049.2018              1064.9109
 Red. masses --      1.6244                 1.4277                 1.4569
 Frc consts  --      1.0193                 0.9260                 0.9734
 IR Inten    --      5.4920                 2.0420                 6.8206

                     43                     44                     45
                      A                      A                      A
 Frequencies --   1084.9681              1103.8593              1131.0320
 Red. masses --      2.5775                 1.9243                 3.7579
 Frc consts  --      1.7876                 1.3815                 2.8324
 IR Inten    --      5.8637                 6.3832               121.9757

                     46                     47                     48
                      A                      A                      A
 Frequencies --   1139.4910              1158.6211              1177.7934
 Red. masses --      2.4724                 1.9353                 2.3467
 Frc consts  --      1.8914                 1.5306                 1.9180
 IR Inten    --     27.8983                 8.7651                29.0600

                     49                     50                     51
                      A                      A                      A
 Frequencies --   1189.2396              1207.1612              1230.2468
 Red. masses --      1.3273                 2.1580                 1.7886
 Frc consts  --      1.1060                 1.8528                 1.5949
 IR Inten    --      2.0060                19.2991                14.4233

                     52                     53                     54
                      A                      A                      A
 Frequencies --   1243.6667              1260.2848              1282.4160
 Red. masses --      1.6796                 2.6490                 2.1041
 Frc consts  --      1.5306                 2.4790                 2.0388
 IR Inten    --     15.5529                 5.3359                 3.2507

                     55                     56                     57
                      A                      A                      A
 Frequencies --   1287.6780              1313.5417              1338.5946
 Red. masses --      1.6562                 1.2535                 1.3922
 Frc consts  --      1.6180                 1.2743                 1.4698
 IR Inten    --      1.5414                 0.0339                 2.3216

                     58                     59                     60
                      A                      A                      A
 Frequencies --   1377.9288              1395.3917              1399.7328
 Red. masses --      1.2185                 1.3561                 1.3596
 Frc consts  --      1.3631                 1.5557                 1.5695
 IR Inten    --     11.7641                 2.7100                 4.2899

                     61                     62                     63
                      A                      A                      A
 Frequencies --   1413.7236              1417.1637              1426.9699
 Red. masses --      1.2011                 1.2393                 1.2720
 Frc consts  --      1.4143                 1.4665                 1.5260
 IR Inten    --      1.1919                 5.3168                 3.1616

                     64                     65                     66
                      A                      A                      A
 Frequencies --   1430.1652              1437.3782              1444.8086
 Red. masses --      1.2954                 1.2336                 1.2763
 Frc consts  --      1.5610                 1.5016                 1.5697
 IR Inten    --      3.1837                12.8740                13.5070

                     67                     68                     69
                      A                      A                      A
 Frequencies --   1458.4235              1500.5514              1508.9893
 Red. masses --      1.2265                 1.1403                 1.0876
 Frc consts  --      1.5371                 1.5128                 1.4591
 IR Inten    --     10.7250                11.4228                 0.7970

                     70                     71                     72
                      A                      A                      A
 Frequencies --   1509.3251              1513.5559              1517.7248
 Red. masses --      1.0585                 1.0972                 1.0675
 Frc consts  --      1.4207                 1.4809                 1.4488
 IR Inten    --      1.4557                 8.3933                 4.3065

                     73                     74                     75
                      A                      A                      A
 Frequencies --   1521.4985              1523.8192              1525.9939
 Red. masses --      1.0549                 1.0493                 1.0544
 Frc consts  --      1.4387                 1.4356                 1.4467
 IR Inten    --      1.8772                 0.8880                 4.4182

                     76                     77                     78
                      A                      A                      A
 Frequencies --   1528.3402              1532.5337              1534.9490
 Red. masses --      1.0511                 1.0868                 1.0605
 Frc consts  --      1.4465                 1.5039                 1.4721
 IR Inten    --      4.6702                13.6814                 1.2260

                     79                     80                     81
                      A                      A                      A
 Frequencies --   1541.3003              1545.1125              1547.3995
 Red. masses --      1.0820                 1.0525                 1.0641
 Frc consts  --      1.5144                 1.4805                 1.5012
 IR Inten    --     10.8155                 1.3118                 3.2519

                     82                     83                     84
                      A                      A                      A
 Frequencies --   1548.7622              1561.6902              2948.4963
 Red. masses --      1.0624                 1.0551                 1.0721
 Frc consts  --      1.5015                 1.5161                 5.4914
 IR Inten    --      3.1252                 7.6369                74.8428

                     85                     86                     87
                      A                      A                      A
 Frequencies --   3021.5380              3028.2668              3039.9163
 Red. masses --      1.0537                 1.0643                 1.0416
 Frc consts  --      5.6679                 5.7507                 5.6710
 IR Inten    --     42.5108                 5.6252                32.0240

                     88                     89                     90
                      A                      A                      A
 Frequencies --   3041.1635              3042.6010              3046.7917
 Red. masses --      1.0569                 1.0434                 1.0497
 Frc consts  --      5.7592                 5.6911                 5.7413
 IR Inten    --     14.5967                30.9967                13.7826

                     91                     92                     93
                      A                      A                      A
 Frequencies --   3049.6561              3055.9437              3057.6785
 Red. masses --      1.0392                 1.0517                 1.0647
 Frc consts  --      5.6942                 5.7869                 5.8650
 IR Inten    --     24.7857                 9.8307                40.9714

                     94                     95                     96
                      A                      A                      A
 Frequencies --   3064.1755              3079.2217              3080.4205
 Red. masses --      1.0842                 1.1007                 1.1014
 Frc consts  --      5.9980                 6.1488                 6.1574
 IR Inten    --     77.5386                57.6130                13.0752

                     97                     98                     99
                      A                      A                      A
 Frequencies --   3095.6959              3109.3960              3111.9847
 Red. masses --      1.1011                 1.1024                 1.0989
 Frc consts  --      6.2170                 6.2798                 6.2700
 IR Inten    --     29.3884                55.8494                12.7925

                    100                    101                    102
                      A                      A                      A
 Frequencies --   3115.6466              3116.0602              3116.2460
 Red. masses --      1.0974                 1.1000                 1.0993
 Frc consts  --      6.2762                 6.2930                 6.2899
 IR Inten    --     24.7017                53.1308                84.3554

                    103                    104                    105
                      A                      A                      A
 Frequencies --   3126.3929              3138.3401              3142.4328
 Red. masses --      1.1006                 1.1017                 1.0989
 Frc consts  --      6.3381                 6.3929                 6.3937
 IR Inten    --     38.9487                10.9700                39.5401

                    106                    107                    108
                      A                      A                      A
 Frequencies --   3152.4976              3165.3536              3485.4889
 Red. masses --      1.0989                 1.0964                 1.0729
 Frc consts  --      6.4346                 6.4721                 7.6795
 IR Inten    --     26.4392                10.0361                 0.5713

 - Thermochemistry -
 -------------------
 Temperature   298.150 Kelvin.  Pressure   1.00000 Atm.
 Atom     1 has atomic number  6 and mass  12.00000

 Molecular mass:   187.19361 amu.
 Principal axes and moments of inertia in atomic units:
                           1         2         3
     Eigenvalues --  1640.004833809.882124668.79556
           X            0.99993   0.00555  -0.01012
           Y           -0.00542   0.99991   0.01243
           Z            0.01018  -0.01238   0.99987
 This molecule is an asymmetric top.
 Rotational symmetry number  1.
 Warning -- assumption of classical behavior for rotation
           may cause significant error
 Rotational temperatures (Kelvin)      0.05281     0.02273     0.01855
 Rotational constants (GHZ):           1.10045     0.47370     0.38655
 Zero-point vibrational energy     931750.2 (Joules/Mol)
                                  222.69364 (Kcal/Mol)
 Warning -- explicit consideration of  27 degrees of freedom as
           vibrations may cause significant error
 Vibrational temperatures:     48.92    71.37   115.71   132.03   158.75
          (Kelvin)            223.27   249.04   271.71   299.78   309.19
                              337.08   353.86   380.71   388.62   410.37
                              426.10   455.73   477.38   493.39   517.52
                              565.26   575.91   619.97   689.67   731.05
                              781.32   891.10  1103.24  1123.80  1154.11
                             1249.20  1290.82  1303.24  1345.09  1360.69
                             1365.16  1375.27  1398.44  1411.07  1484.82
                             1509.57  1532.17  1561.03  1588.21  1627.30
                             1639.47  1667.00  1694.58  1711.05  1736.84
                             1770.05  1789.36  1813.27  1845.11  1852.68
                             1889.89  1925.94  1982.53  2007.66  2013.90
                             2034.03  2038.98  2053.09  2057.69  2068.07
                             2078.76  2098.35  2158.96  2171.10  2171.58
                             2177.67  2183.67  2189.10  2192.44  2195.56
                             2198.94  2204.97  2208.45  2217.59  2223.07
                             2226.36  2228.32  2246.92  4242.23  4347.32
                             4357.00  4373.76  4375.56  4377.62  4383.65
                             4387.77  4396.82  4399.32  4408.67  4430.31
                             4432.04  4454.02  4473.73  4477.45  4482.72
                             4483.32  4483.58  4498.18  4515.37  4521.26
                             4535.74  4554.24  5014.84

 Zero-point correction=                           0.354885 (Hartree/Particle)
 Thermal correction to Energy=                    0.371725
 Thermal correction to Enthalpy=                  0.372669
 Thermal correction to Gibbs Free Energy=         0.311575
 Sum of electronic and zero-point Energies=           -563.890197
 Sum of electronic and thermal Energies=              -563.873357
 Sum of electronic and thermal Enthalpies=            -563.872413
 Sum of electronic and thermal Free Energies=         -563.933508

                     E (Thermal)             CV                S
                      KCal/Mol        Cal/Mol-Kelvin    Cal/Mol-Kelvin
 Total                  233.261             63.149            128.585
 Electronic               0.000              0.000              0.000
 Translational            0.889              2.981             41.587
 Rotational               0.889              2.981             31.745
 Vibrational            231.484             57.187             55.253
 Vibration     1          0.594              1.983              5.581
 Vibration     2          0.595              1.978              4.833
 Vibration     3          0.600              1.962              3.881
 Vibration     4          0.602              1.955              3.622
 Vibration     5          0.606              1.941              3.263
 Vibration     6          0.620              1.897              2.608
 Vibration     7          0.627              1.876              2.402
 Vibration     8          0.633              1.855              2.239
 Vibration     9          0.642              1.828              2.058
 Vibration    10          0.645              1.818              2.002
 Vibration    11          0.654              1.788              1.846
 Vibration    12          0.660              1.769              1.759
 Vibration    13          0.671              1.738              1.631
 Vibration    14          0.674              1.728              1.596
 Vibration    15          0.683              1.701              1.502
 Vibration    16          0.690              1.681              1.439
 Vibration    17          0.704              1.642              1.327
 Vibration    18          0.714              1.612              1.251
 Vibration    19          0.722              1.590              1.199
 Vibration    20          0.734              1.555              1.123
 Vibration    21          0.760              1.485              0.989
 Vibration    22          0.766              1.470              0.962
 Vibration    23          0.792              1.403              0.856
 Vibration    24          0.836              1.296              0.712
 Vibration    25          0.863              1.232              0.638
 Vibration    26          0.898              1.155              0.559
 Vibration    27          0.979              0.991              0.418

 Optimization completed.
    -- Stationary point found.
 Normal termination of Gaussian 16 at Mon Dec 14 13:31:22 2020.

 ----------------------------------------------------------------------
 # B3LYP/6-311++G(d,p) empiricaldispersion=gd3bj scf=xqc pop=npa geom=c
 heck
 ----------------------------------------------------------------------

 ---------------------------------------
 CID_116724915_JID_3926_Energie_neutraal
 ---------------------------------------
 Structure from the checkpoint file:  "JID_3926.chk"
 Charge =  0 Multiplicity = 1

 SCF Done:  E(RB3LYP) =  -564.409261771     A.U. after   13 cycles
 Normal termination of Gaussian 16 at Mon Dec 14 13:37:14 2020.

 ----------------------------------------------------------------------
 # B3LYP/6-311++G(d,p) empiricaldispersion=gd3bj scf=xqc pop=npa geom=c
 heck
 ----------------------------------------------------------------------

 -------------------------------------
 CID_116724915_JID_3926_Energie_kation
 -------------------------------------
 Structure from the checkpoint file:  "JID_3926.chk"
 Charge =  1 Multiplicity = 2

 SCF Done:  E(UB3LYP) =  -564.113124538     A.U. after   21 cycles
 Normal termination of Gaussian 16 at Mon Dec 14 13:49:59 2020.
 Gaussian 16:  ES64L-G16RevA.03 25-Dec-2016

 ----------------------------------------------------------------------
 # B3LYP/6-311++G(d,p) empiricaldispersion=gd3bj scf=xqc pop=npa geom=c
 heck
 ----------------------------------------------------------------------

 ------------------------------------
 CID_116724915_JID_3926_Energie_anion
 ------------------------------------
 Structure from the checkpoint file:  "JID_3926.chk"
 Charge = -1 Multiplicity = 2

                         Standard orientation:
 ---------------------------------------------------------------------
 Center     Atomic      Atomic             Coordinates (Angstroms)
 Number     Number       Type             X           Y           Z
 ---------------------------------------------------------------------
      1          6           0        4.158028   -0.640778   -0.684528
      2          6           0        3.585010   -0.342828    0.704348
      3          6           0        2.454320    0.688770    0.691442
      4          7           0        1.305126    0.204903   -0.069960
      5          6           0        0.091118    1.019735    0.031809
      6          6           0        0.236340    2.404801   -0.620799
      7          6           0       -1.114856    0.257753   -0.573717
      8          6           0       -1.395133   -1.184874   -0.024104
      9          6           0       -1.133121   -1.321232    1.487480
     10          6           0       -2.853855   -1.566828   -0.343524
     11          6           0       -0.490088   -2.196836   -0.759404
     12          8           0       -2.277276    1.101087   -0.586292
     13          6           0       -2.764258    1.591188    0.647389
     14          1           0        3.412061   -1.113130   -1.334215
     15          1           0        5.010814   -1.325195   -0.621718
     16          1           0        4.502983    0.277831   -1.176229
     17          1           0        3.208494   -1.269151    1.155248
     18          1           0        4.385691    0.031946    1.355442
     19          1           0        2.112586    0.863709    1.719525
     20          1           0        2.851910    1.653138    0.324230
     21          1           0        1.560480    0.118699   -1.052521
     22          1           0       -0.085759    1.152950    1.106078
     23          1           0        0.440548    2.293502   -1.693785
     24          1           0       -0.672505    3.002254   -0.522678
     25          1           0        1.065997    2.962168   -0.174488
     26          1           0       -0.914836    0.142298   -1.647936
     27          1           0       -1.735421   -0.628880    2.084134
     28          1           0       -1.382228   -2.337378    1.816301
     29          1           0       -0.077680   -1.145521    1.713827
     30          1           0       -3.070904   -1.436198   -1.409214
     31          1           0       -3.019854   -2.620626   -0.090213
     32          1           0       -3.579630   -0.970670    0.214593
     33          1           0       -0.649881   -2.150341   -1.844241
     34          1           0        0.563130   -2.004988   -0.550307
     35          1           0       -0.730928   -3.216352   -0.434550
     36          1           0       -3.133722    0.795745    1.306093
     37          1           0       -2.018116    2.178974    1.199675
     38          1           0       -3.601938    2.248963    0.398640
 ---------------------------------------------------------------------

 SCF Done:  E(UB3LYP) =  -564.393735513     A.U. after   27 cycles

 The electronic state is 2-A.
 Alpha  occ. eigenvalues --  -19.02327 -14.19663 -10.12093 -10.11141 -10.10023
 Alpha  occ. eigenvalues --  -10.09019 -10.08557 -10.06610 -10.06052 -10.05829
 Alpha  occ. eigenvalues --  -10.05576 -10.05506 -10.05264  -0.93396  -0.81223
 Alpha  occ. eigenvalues --   -0.71979  -0.68426  -0.64405  -0.61272  -0.58761
 Alpha  occ. eigenvalues --   -0.58317  -0.57423  -0.54631  -0.49302  -0.48261
 Alpha  occ. eigenvalues --   -0.44320  -0.40027  -0.39232  -0.37915  -0.37492
 Alpha  occ. eigenvalues --   -0.34936  -0.34539  -0.33480  -0.32156  -0.31878
 Alpha  occ. eigenvalues --   -0.31081  -0.30726  -0.30066  -0.29673  -0.28525
 Alpha  occ. eigenvalues --   -0.28240  -0.27127  -0.26504  -0.25355  -0.25027
 Alpha  occ. eigenvalues --   -0.24384  -0.23938  -0.23807  -0.22792  -0.22238
 Alpha  occ. eigenvalues --   -0.19534  -0.16068  -0.12590   0.04413
 Alpha virt. eigenvalues --    0.06339   0.06952   0.07378   0.08155   0.08756
 Alpha virt. eigenvalues --    0.09080   0.09381   0.09891   0.10438   0.11107
 Alpha virt. eigenvalues --    0.11203   0.11740   0.12086   0.12626   0.12794

  Beta  occ. eigenvalues --  -19.02322 -14.19652 -10.12089 -10.11107 -10.10014
  Beta  occ. eigenvalues --  -10.08999 -10.08554 -10.06592 -10.06015 -10.05817
  Beta  occ. eigenvalues --  -10.05554 -10.05487 -10.05250  -0.93381  -0.81200
  Beta  occ. eigenvalues --   -0.71966  -0.68393  -0.64370  -0.61230  -0.58732
  Beta  occ. eigenvalues --   -0.58285  -0.57366  -0.54581  -0.49260  -0.48185
  Beta  occ. eigenvalues --   -0.44285  -0.39996  -0.39204  -0.37889  -0.37467
  Beta  occ. eigenvalues --   -0.34906  -0.34504  -0.33451  -0.32132  -0.31842
  Beta  occ. eigenvalues --   -0.31048  -0.30691  -0.30039  -0.29647  -0.28505
  Beta  occ. eigenvalues --   -0.28207  -0.27104  -0.26486  -0.25316  -0.24994
  Beta  occ. eigenvalues --   -0.24344  -0.23897  -0.23776  -0.22774  -0.22221
  Beta  occ. eigenvalues --   -0.19510  -0.16055  -0.12570
  Beta virt. eigenvalues --    0.06418   0.07219   0.07541   0.07869   0.08719
  Beta virt. eigenvalues --    0.09087   0.09445   0.09784   0.10133   0.10819
  Beta virt. eigenvalues --    0.11457   0.11527   0.12063   0.12440   0.12876

 Mulliken charges and spin densities:
               1          2
     1  C    1.168824  -1.713304
     2  C   -0.693652   0.480325
     3  C    0.445010  -0.727083
     4  N    0.183481  -0.031760
     5  C   -1.193582   0.632776
     6  C    0.712477  -1.265761
     7  C   -0.484659  -0.188105
     8  C    0.105801   0.918352
     9  C    0.001208  -0.595830
    10  C   -0.307762  -0.204740
    11  C   -0.242620  -0.546333
    12  O   -0.041466   0.032274
    13  C    0.630545  -0.900507
    14  H   -0.319020   0.443822
    15  H   -0.342267   0.487275
    16  H   -0.249199   0.393112
    17  H    0.014578   0.117875
    18  H   -0.277624   0.420062
    19  H   -0.397389   0.534221
    20  H    0.088701   0.049129
    21  H    0.318955  -0.087135
    22  H    0.545289  -0.347909
    23  H   -0.062406   0.213811
    24  H    0.009594   0.131932
    25  H   -0.336232   0.486582
    26  H    0.048672   0.170531
    27  H   -0.148249   0.270008
    28  H   -0.095928   0.258992
    29  H    0.134857   0.045086
    30  H    0.099288   0.060428
    31  H    0.037383   0.103175
    32  H   -0.030479   0.146888
    33  H   -0.117726   0.239365
    34  H    0.532988  -0.340874
    35  H   -0.066793   0.195275
    36  H   -0.034847   0.163487
    37  H   -0.456024   0.605761
    38  H   -0.179725   0.348797
 Sum of Mulliken charges =  -1.00000   1.00000

 Dipole moment (field-independent basis, Debye):
    X=             -3.1733    Y=             -1.7458    Z=             -0.7691  Tot=              3.7026
 Quadrupole moment (field-independent basis, Debye-Ang):
   XX=           -167.1625   YY=           -134.6503   ZZ=           -124.2315
   XY=              4.0125   XZ=              5.1063   YZ=             -2.7017

 Summary of Natural Population Analysis:

                                       Natural Population
                Natural  -----------------------------------------------
    Atom  No    Charge         Core      Valence    Rydberg      Total
 -----------------------------------------------------------------------
      C    1   -0.28852      0.99967     2.28378    0.00507     3.28852
      C    2   -0.19155      0.99964     2.18335    0.00857     3.19155
      C    3   -0.08243      0.99962     2.07242    0.01040     3.08243
      N    4   -0.34701      0.99973     2.83621    0.01106     3.84701
      C    5   -0.02253      0.99958     2.01123    0.01172     3.02253
      C    6   -0.29479      0.99965     2.28821    0.00693     3.29479
      C    7    0.08054      0.99947     1.90348    0.01652     2.91946
      C    8   -0.05666      0.99957     2.04620    0.01089     3.05666
      C    9   -0.29017      0.99962     2.28316    0.00739     3.29017
      C   10   -0.28141      0.99963     2.27498    0.00680     3.28141
      C   11   -0.28666      0.99962     2.27969    0.00734     3.28666
      O   12   -0.30684      0.99989     3.29661    0.01034     4.30684
      C   13   -0.10148      0.99959     2.09234    0.00955     3.10148
      H   14    0.09510      0.00000     0.40357    0.00133     0.40490
      H   15    0.10030      0.00000     0.39849    0.00120     0.39970
      H   16    0.09681      0.00000     0.40184    0.00135     0.40319
      H   17    0.09544      0.00000     0.40314    0.00142     0.40456
      H   18    0.09552      0.00000     0.40328    0.00120     0.40448
      H   19    0.09308      0.00000     0.40536    0.00155     0.40692
      H   20    0.07941      0.00000     0.41897    0.00162     0.42059
      H   21    0.17199      0.00000     0.32501    0.00300     0.32801
      H   22    0.09434      0.00000     0.40293    0.00272     0.40566
      H   23    0.09610      0.00000     0.40276    0.00114     0.40390
      H   24    0.10572      0.00000     0.39322    0.00106     0.39428
      H   25    0.10060      0.00000     0.39841    0.00099     0.39940
      H   26    0.08993      0.00000     0.40825    0.00182     0.41007
      H   27    0.09823      0.00000     0.40054    0.00123     0.40177
      H   28    0.09791      0.00000     0.40124    0.00085     0.40209
      H   29    0.10772      0.00000     0.39092    0.00136     0.39228
      H   30    0.10063      0.00000     0.39845    0.00092     0.39937
      H   31    0.09544      0.00000     0.40370    0.00087     0.40456
      H   32    0.10056      0.00000     0.39852    0.00092     0.39944
      H   33    0.09529      0.00000     0.40382    0.00089     0.40471
      H   34    0.11343      0.00000     0.38519    0.00138     0.38657
      H   35    0.09552      0.00000     0.40362    0.00085     0.40448
      H   36    0.07892      0.00000     0.41967    0.00142     0.42108
      H   37    0.08127      0.00000     0.41720    0.00153     0.41873
      H   38    0.09023      0.00000     0.40875    0.00102     0.40977
 =======================================================================
   * Total *   -0.00000     12.99527    39.84852    0.15621    53.00000

 Normal termination of Gaussian 16 at Mon Dec 14 14:06:04 2020.
