 Gaussian 16, Revision A.03,

 -----------------------------------------------------------
 # opt freq B3LYP/6-31G(d) empiricaldispersion=gd3bj scf=xqc
 -----------------------------------------------------------

 ------------------------------
 CID_80448080_JID_6642_neutraal
 ------------------------------
 Symbolic Z-matrix:
 Charge =  0 Multiplicity = 1

 SCF Done:  E(RB3LYP) =  -710.648478910     A.U. after   14 cycles
 SCF Done:  E(RB3LYP) =  -710.651366536     A.U. after   12 cycles
 SCF Done:  E(RB3LYP) =  -710.649177577     A.U. after   13 cycles
 SCF Done:  E(RB3LYP) =  -710.652293887     A.U. after   11 cycles
 SCF Done:  E(RB3LYP) =  -710.653261339     A.U. after   12 cycles
 SCF Done:  E(RB3LYP) =  -710.653766671     A.U. after   12 cycles
 SCF Done:  E(RB3LYP) =  -710.653928469     A.U. after   12 cycles
 SCF Done:  E(RB3LYP) =  -710.654269221     A.U. after   11 cycles
 SCF Done:  E(RB3LYP) =  -710.654294527     A.U. after   11 cycles
 SCF Done:  E(RB3LYP) =  -710.654362354     A.U. after   10 cycles
 SCF Done:  E(RB3LYP) =  -710.654545714     A.U. after   10 cycles
 SCF Done:  E(RB3LYP) =  -710.654540999     A.U. after   10 cycles
 SCF Done:  E(RB3LYP) =  -710.654549089     A.U. after    9 cycles
 SCF Done:  E(RB3LYP) =  -710.654549140     A.U. after    6 cycles
 SCF Done:  E(RB3LYP) =  -710.654548962     A.U. after    8 cycles
 SCF Done:  E(RB3LYP) =  -710.654549162     A.U. after    8 cycles
 Optimization completed.
    -- Stationary point found.
 Normal termination of Gaussian 16 at Fri Dec 11 00:24:01 2020.

 --------------------------------------------------------------------
 #N Geom=AllCheck Guess=TCheck SCRF=Check GenChk RB3LYP/6-31G(d) Freq
 --------------------------------------------------------------------

 Structure from the checkpoint file:  "JID_6642.chk"
 ------------------------------
 CID_80448080_JID_6642_neutraal
 ------------------------------
 Charge =  0 Multiplicity = 1

 SCF Done:  E(RB3LYP) =  -710.654549161     A.U. after    1 cycles

  Exact polarizability: 176.899  -0.404 145.802   0.736 -11.476 116.219
 Approx polarizability: 230.259  -1.044 206.656   3.039 -26.057 185.100

                      1                      2                      3
                      A                      A                      A
 Frequencies --     33.8043                39.5687                46.3214
 Red. masses --      3.9100                 3.8317                 3.6469
 Frc consts  --      0.0026                 0.0035                 0.0046
 IR Inten    --      3.0771                 1.0547                 0.1468

                      4                      5                      6
                      A                      A                      A
 Frequencies --     82.2372                88.4177                98.5815
 Red. masses --      1.3000                 2.2803                 2.9857
 Frc consts  --      0.0052                 0.0105                 0.0171
 IR Inten    --      1.0575                 0.8257                 0.7111

                      7                      8                      9
                      A                      A                      A
 Frequencies --    110.7994               127.4310               168.4002
 Red. masses --      2.6062                 2.7387                 3.7864
 Frc consts  --      0.0189                 0.0262                 0.0633
 IR Inten    --      0.9617                 1.3944                 0.5093

                     10                     11                     12
                      A                      A                      A
 Frequencies --    189.7916               202.2517               216.8302
 Red. masses --      3.2644                 3.5830                 1.0510
 Frc consts  --      0.0693                 0.0864                 0.0291
 IR Inten    --      0.3262                 0.5217                 0.1512

                     13                     14                     15
                      A                      A                      A
 Frequencies --    228.5649               279.1139               283.3443
 Red. masses --      1.7661                 1.8568                 1.5432
 Frc consts  --      0.0544                 0.0852                 0.0730
 IR Inten    --      0.9782                 0.9512                 1.7804

                     16                     17                     18
                      A                      A                      A
 Frequencies --    296.7746               311.7900               331.9227
 Red. masses --      3.1761                 1.7761                 2.3935
 Frc consts  --      0.1648                 0.1017                 0.1554
 IR Inten    --     11.8971                 0.4142                 3.2290

                     19                     20                     21
                      A                      A                      A
 Frequencies --    392.0293               403.6053               411.4842
 Red. masses --      2.8171                 3.1000                 2.8173
 Frc consts  --      0.2551                 0.2975                 0.2811
 IR Inten    --      0.3297                 2.6211                 3.8781

                     22                     23                     24
                      A                      A                      A
 Frequencies --    445.7819               454.3437               491.8464
 Red. masses --      2.1507                 1.7150                 2.5608
 Frc consts  --      0.2518                 0.2086                 0.3650
 IR Inten    --      2.3892                 0.1658                 0.2579

                     25                     26                     27
                      A                      A                      A
 Frequencies --    508.4859               589.8164               633.8690
 Red. masses --      2.9695                 1.1571                 3.9620
 Frc consts  --      0.4524                 0.2372                 0.9379
 IR Inten    --     23.0403                95.1209                 2.6644

                     28                     29                     30
                      A                      A                      A
 Frequencies --    659.9112               688.7091               706.6268
 Red. masses --      4.7195                 3.5469                 3.7552
 Frc consts  --      1.2109                 0.9912                 1.1048
 IR Inten    --     16.9399                12.6471                 8.3055

                     31                     32                     33
                      A                      A                      A
 Frequencies --    723.5549               772.6173               804.6131
 Red. masses --      1.3071                 2.1660                 1.6474
 Frc consts  --      0.4032                 0.7618                 0.6284
 IR Inten    --     22.9335                 7.7397                20.6916

                     34                     35                     36
                      A                      A                      A
 Frequencies --    811.9623               847.4119               864.3532
 Red. masses --      3.8588                 1.2998                 2.0380
 Frc consts  --      1.4989                 0.5499                 0.8971
 IR Inten    --      4.3500                 5.4432                 4.2539

                     37                     38                     39
                      A                      A                      A
 Frequencies --    898.7723               930.4575               941.3630
 Red. masses --      2.5101                 2.4035                 4.4517
 Frc consts  --      1.1946                 1.2260                 2.3243
 IR Inten    --      2.2526                 4.8641                 3.4652

                     40                     41                     42
                      A                      A                      A
 Frequencies --    967.7571               984.0145              1007.2850
 Red. masses --      2.2389                 1.3216                 1.5994
 Frc consts  --      1.2354                 0.7540                 0.9561
 IR Inten    --      7.9260                 2.5015                15.9555

                     43                     44                     45
                      A                      A                      A
 Frequencies --   1023.7775              1047.5905              1063.1131
 Red. masses --      1.9132                 2.5865                 2.3474
 Frc consts  --      1.1815                 1.6724                 1.5632
 IR Inten    --     30.7106                37.6399                33.9529

                     46                     47                     48
                      A                      A                      A
 Frequencies --   1067.8961              1097.3193              1112.6092
 Red. masses --      1.8369                 3.0721                 1.2429
 Frc consts  --      1.2342                 2.1795                 0.9065
 IR Inten    --      4.1211                50.0493                 6.3998

                     49                     50                     51
                      A                      A                      A
 Frequencies --   1124.7942              1149.6698              1157.0033
 Red. masses --      2.0262                 1.6741                 1.3227
 Frc consts  --      1.5103                 1.3037                 1.0433
 IR Inten    --     35.0506                20.0469                 2.6278

                     52                     53                     54
                      A                      A                      A
 Frequencies --   1162.2983              1170.6374              1194.8599
 Red. masses --      1.7574                 1.5173                 1.8360
 Frc consts  --      1.3988                 1.2251                 1.5444
 IR Inten    --      8.2478                 2.9980                 1.0069

                     55                     56                     57
                      A                      A                      A
 Frequencies --   1206.0760              1225.3124              1246.0985
 Red. masses --      2.3021                 2.7495                 2.0615
 Frc consts  --      1.9730                 2.4322                 1.8860
 IR Inten    --      6.3997                 0.7135                 7.9892

                     58                     59                     60
                      A                      A                      A
 Frequencies --   1263.8794              1300.8514              1322.0850
 Red. masses --      1.4118                 1.4256                 2.8489
 Frc consts  --      1.3287                 1.4214                 2.9340
 IR Inten    --     20.7539                14.6091                28.6611

                     61                     62                     63
                      A                      A                      A
 Frequencies --   1335.3609              1341.5358              1367.7788
 Red. masses --      1.3023                 1.5106                 1.5512
 Frc consts  --      1.3682                 1.6018                 1.7098
 IR Inten    --      4.4269                 2.1610                 2.8812

                     64                     65                     66
                      A                      A                      A
 Frequencies --   1378.8688              1390.4247              1402.2868
 Red. masses --      1.2672                 1.3045                 2.4467
 Frc consts  --      1.4195                 1.4859                 2.8347
 IR Inten    --      3.7738                14.0604                 2.6955

                     67                     68                     69
                      A                      A                      A
 Frequencies --   1403.6810              1418.4767              1427.2001
 Red. masses --      1.4049                 1.3518                 1.3815
 Frc consts  --      1.6309                 1.6025                 1.6580
 IR Inten    --      0.6750                 1.9928                11.1013

                     70                     71                     72
                      A                      A                      A
 Frequencies --   1433.0989              1440.8730              1458.8542
 Red. masses --      1.2625                 1.2562                 1.3020
 Frc consts  --      1.5276                 1.5366                 1.6327
 IR Inten    --     22.1413                 3.3163                76.0639

                     73                     74                     75
                      A                      A                      A
 Frequencies --   1461.3582              1481.0341              1486.8523
 Red. masses --      1.8626                 1.1610                 2.2468
 Frc consts  --      2.3436                 1.5004                 2.9264
 IR Inten    --     39.9869                 0.8995                 0.6167

                     76                     77                     78
                      A                      A                      A
 Frequencies --   1501.1952              1518.2876              1522.6053
 Red. masses --      1.1229                 1.0929                 1.0864
 Frc consts  --      1.4910                 1.4843                 1.4840
 IR Inten    --      4.8988                18.7555                18.4980

                     79                     80                     81
                      A                      A                      A
 Frequencies --   1524.0799              1525.3951              1530.8838
 Red. masses --      1.0521                 1.0502                 1.1277
 Frc consts  --      1.4399                 1.4397                 1.5571
 IR Inten    --      1.0064                11.7797                10.1035

                     82                     83                     84
                      A                      A                      A
 Frequencies --   1531.9710              1535.6006              1536.7597
 Red. masses --      1.7758                 1.2022                 1.1080
 Frc consts  --      2.4555                 1.6703                 1.5417
 IR Inten    --     23.5935                 0.7209                22.9303

                     85                     86                     87
                      A                      A                      A
 Frequencies --   1545.3264              1546.7021              1547.3204
 Red. masses --      1.0870                 1.0515                 1.0695
 Frc consts  --      1.5294                 1.4821                 1.5087
 IR Inten    --      5.0219                 8.0176                 4.9590

                     88                     89                     90
                      A                      A                      A
 Frequencies --   1570.9199              2971.4152              3001.5303
 Red. masses --      3.6671                 1.0562                 1.0796
 Frc consts  --      5.3318                 5.4946                 5.7306
 IR Inten    --      2.8079                72.9916                12.2806

                     91                     92                     93
                      A                      A                      A
 Frequencies --   3019.0037              3035.9587              3042.7041
 Red. masses --      1.0710                 1.0728                 1.0396
 Frc consts  --      5.7515                 5.8258                 5.6708
 IR Inten    --     15.8216                15.7218                39.5202

                     94                     95                     96
                      A                      A                      A
 Frequencies --   3043.9266              3067.4312              3071.1690
 Red. masses --      1.0532                 1.0549                 1.0524
 Frc consts  --      5.7497                 5.8478                 5.8486
 IR Inten    --     72.2065                19.8867                40.6045

                     97                     98                     99
                      A                      A                      A
 Frequencies --   3073.6685              3078.8001              3089.3035
 Red. masses --      1.0655                 1.0738                 1.0914
 Frc consts  --      5.9309                 5.9973                 6.1372
 IR Inten    --     24.5299                52.8358                 4.3139

                    100                    101                    102
                      A                      A                      A
 Frequencies --   3105.0782              3111.0030              3117.3245
 Red. masses --      1.1002                 1.0955                 1.1049
 Frc consts  --      6.2499                 6.2469                 6.3259
 IR Inten    --     49.7277                33.9279                13.4845

                    103                    104                    105
                      A                      A                      A
 Frequencies --   3123.6938              3129.2670              3139.0041
 Red. masses --      1.0997                 1.1010                 1.1018
 Frc consts  --      6.3221                 6.3520                 6.3965
 IR Inten    --     34.0469                38.9331                13.5310

                    106                    107                    108
                      A                      A                      A
 Frequencies --   3148.5041              3155.4142              3165.3855
 Red. masses --      1.1002                 1.0939                 1.1040
 Frc consts  --      6.4261                 6.4170                 6.5171
 IR Inten    --     14.5236                 7.8681                10.6652

                    109                    110                    111
                      A                      A                      A
 Frequencies --   3261.0560              3286.9826              3603.2948
 Red. masses --      1.0912                 1.1045                 1.0642
 Frc consts  --      6.8371                 7.0309                 8.1412
 IR Inten    --      6.6950                 5.5412                86.5593

 - Thermochemistry -
 -------------------
 Temperature   298.150 Kelvin.  Pressure   1.00000 Atm.
 Atom     1 has atomic number  6 and mass  12.00000

 Molecular mass:   225.18411 amu.
 Principal axes and moments of inertia in atomic units:
                           1         2         3
     Eigenvalues --  2219.414445544.047857007.47078
           X            0.99930  -0.03739   0.00010
           Y            0.03739   0.99930   0.00234
           Z           -0.00018  -0.00234   1.00000
 This molecule is an asymmetric top.
 Rotational symmetry number  1.
 Warning -- assumption of classical behavior for rotation
           may cause significant error
 Rotational temperatures (Kelvin)      0.03903     0.01562     0.01236
 Rotational constants (GHZ):           0.81316     0.32553     0.25755
 Zero-point vibrational energy     921233.0 (Joules/Mol)
                                  220.17998 (Kcal/Mol)
 Warning -- explicit consideration of  26 degrees of freedom as
           vibrations may cause significant error
 Vibrational temperatures:     48.64    56.93    66.65   118.32   127.21
          (Kelvin)            141.84   159.42   183.34   242.29   273.07
                              291.00   311.97   328.85   401.58   407.67
                              426.99   448.60   477.56   564.04   580.70
                              592.03   641.38   653.70   707.66   731.60
                              848.61   912.00   949.47   990.90  1016.68
                             1041.03  1111.62  1157.66  1168.23  1219.24
                             1243.61  1293.13  1338.72  1354.41  1392.39
                             1415.78  1449.26  1472.99  1507.25  1529.58
                             1536.46  1578.80  1600.80  1618.33  1654.12
                             1664.67  1672.29  1684.29  1719.14  1735.27
                             1762.95  1792.86  1818.44  1871.64  1902.19
                             1921.29  1930.17  1967.93  1983.88  2000.51
                             2017.58  2019.58  2040.87  2053.42  2061.91
                             2073.09  2098.97  2102.57  2130.88  2139.25
                             2159.89  2184.48  2190.69  2192.81  2194.70
                             2202.60  2204.16  2209.39  2211.05  2223.38
                             2225.36  2226.25  2260.20  4275.20  4318.53
                             4343.67  4368.07  4377.77  4379.53  4413.35
                             4418.73  4422.32  4429.71  4444.82  4467.51
                             4476.04  4485.13  4494.30  4502.32  4516.33
                             4530.00  4539.94  4554.28  4691.93  4729.23
                             5184.34

 Zero-point correction=                           0.350879 (Hartree/Particle)
 Thermal correction to Energy=                    0.368668
 Thermal correction to Enthalpy=                  0.369612
 Thermal correction to Gibbs Free Energy=         0.304682
 Sum of electronic and zero-point Energies=           -710.303670
 Sum of electronic and thermal Energies=              -710.285882
 Sum of electronic and thermal Enthalpies=            -710.284937
 Sum of electronic and thermal Free Energies=         -710.349867

                     E (Thermal)             CV                S
                      KCal/Mol        Cal/Mol-Kelvin    Cal/Mol-Kelvin
 Total                  231.342             66.521            136.657
 Electronic               0.000              0.000              0.000
 Translational            0.889              2.981             42.138
 Rotational               0.889              2.981             32.822
 Vibrational            229.565             60.559             61.697
 Vibration     1          0.594              1.983              5.593
 Vibration     2          0.594              1.981              5.281
 Vibration     3          0.595              1.979              4.969
 Vibration     4          0.600              1.961              3.837
 Vibration     5          0.601              1.957              3.695
 Vibration     6          0.604              1.950              3.482
 Vibration     7          0.607              1.941              3.255
 Vibration     8          0.611              1.926              2.984
 Vibration     9          0.625              1.881              2.453
 Vibration    10          0.633              1.854              2.230
 Vibration    11          0.639              1.837              2.113
 Vibration    12          0.646              1.815              1.985
 Vibration    13          0.651              1.797              1.890
 Vibration    14          0.679              1.712              1.539
 Vibration    15          0.682              1.705              1.513
 Vibration    16          0.690              1.680              1.435
 Vibration    17          0.700              1.651              1.353
 Vibration    18          0.714              1.612              1.251
 Vibration    19          0.759              1.487              0.992
 Vibration    20          0.769              1.462              0.949
 Vibration    21          0.775              1.445              0.921
 Vibration    22          0.805              1.370              0.809
 Vibration    23          0.813              1.351              0.783
 Vibration    24          0.848              1.268              0.679
 Vibration    25          0.864              1.231              0.637
 Vibration    26          0.947              1.053              0.468

 Optimization completed.
    -- Stationary point found.
 Normal termination of Gaussian 16 at Fri Dec 11 00:38:33 2020.

 ----------------------------------------------------------------------
 # B3LYP/6-311++G(d,p) empiricaldispersion=gd3bj scf=xqc pop=npa geom=c
 heck
 ----------------------------------------------------------------------

 --------------------------------------
 CID_80448080_JID_6642_Energie_neutraal
 --------------------------------------
 Structure from the checkpoint file:  "JID_6642.chk"
 Charge =  0 Multiplicity = 1

 SCF Done:  E(RB3LYP) =  -710.859348438     A.U. after   14 cycles
 Normal termination of Gaussian 16 at Fri Dec 11 00:46:12 2020.

 ----------------------------------------------------------------------
 # B3LYP/6-311++G(d,p) empiricaldispersion=gd3bj scf=xqc pop=npa geom=c
 heck
 ----------------------------------------------------------------------

 ------------------------------------
 CID_80448080_JID_6642_Energie_kation
 ------------------------------------
 Structure from the checkpoint file:  "JID_6642.chk"
 Charge =  1 Multiplicity = 2

 SCF Done:  E(UB3LYP) =  -710.567359735     A.U. after   23 cycles
 Normal termination of Gaussian 16 at Fri Dec 11 01:04:10 2020.
 Gaussian 16:  ES64L-G16RevA.03 25-Dec-2016

 ----------------------------------------------------------------------
 # B3LYP/6-311++G(d,p) empiricaldispersion=gd3bj scf=xqc pop=npa geom=c
 heck
 ----------------------------------------------------------------------

 -----------------------------------
 CID_80448080_JID_6642_Energie_anion
 -----------------------------------
 Structure from the checkpoint file:  "JID_6642.chk"
 Charge = -1 Multiplicity = 2

                         Standard orientation:
 ---------------------------------------------------------------------
 Center     Atomic      Atomic             Coordinates (Angstroms)
 Number     Number       Type             X           Y           Z
 ---------------------------------------------------------------------
      1          6           0       -2.667423    2.751543    0.636150
      2          6           0       -2.239723    1.598173   -0.277269
      3          6           0       -2.628879    0.204104    0.248153
      4          6           0       -4.140273    0.072985    0.479972
      5          6           0       -2.164584   -0.927017   -0.697910
      6          6           0       -0.665113   -0.957092   -1.049669
      7          7           0        0.123251   -1.469079    0.092229
      8          6           0        1.103362   -2.474566   -0.302179
      9          6           0        0.713250   -0.415255    0.936110
     10          6           0        1.753205    0.446506    0.275506
     11          7           0        1.465703    1.490571   -0.488775
     12          6           0        2.667953    1.965822   -0.955493
     13          6           0        3.700372    1.207597   -0.465577
     14          7           0        3.113284    0.235698    0.323460
     15          6           0        3.839341   -0.800642    1.038453
     16          8           0       -2.505072   -2.207186   -0.170744
     17          1           0       -3.756115    2.837211    0.715242
     18          1           0       -2.285201    3.706266    0.258330
     19          1           0       -2.270487    2.615350    1.650476
     20          1           0       -2.689763    1.736534   -1.272120
     21          1           0       -1.155424    1.662047   -0.419328
     22          1           0       -2.132914    0.045127    1.218493
     23          1           0       -4.692820    0.323036   -0.435978
     24          1           0       -4.390290   -0.953888    0.756788
     25          1           0       -4.488810    0.741874    1.272923
     26          1           0       -2.723549   -0.822464   -1.638227
     27          1           0       -0.549175   -1.668736   -1.872365
     28          1           0       -0.290737    0.009456   -1.401660
     29          1           0        1.879944   -2.092499   -0.988303
     30          1           0        1.598994   -2.871795    0.591298
     31          1           0        0.588930   -3.302701   -0.797734
     32          1           0       -0.089189    0.245231    1.265662
     33          1           0        1.120449   -0.899276    1.830971
     34          1           0        2.720849    2.829660   -1.603751
     35          1           0        4.772254    1.266067   -0.582787
     36          1           0        3.970539   -1.695714    0.421994
     37          1           0        4.821606   -0.416884    1.323246
     38          1           0        3.301135   -1.074871    1.947388
     39          1           0       -1.764246   -2.394824    0.439529
 ---------------------------------------------------------------------

 SCF Done:  E(UB3LYP) =  -710.851046042     A.U. after   30 cycles

 The electronic state is 2-A.
 Alpha  occ. eigenvalues --  -19.02020 -14.27503 -14.22381 -14.19706 -10.12846
 Alpha  occ. eigenvalues --  -10.12694 -10.11183 -10.10582 -10.09888 -10.09822
 Alpha  occ. eigenvalues --  -10.09338 -10.08761 -10.08467 -10.07777 -10.07617
 Alpha  occ. eigenvalues --  -10.07118  -0.92866  -0.92161  -0.83278  -0.78886
 Alpha  occ. eigenvalues --   -0.72319  -0.67595  -0.65134  -0.63383  -0.62552
 Alpha  occ. eigenvalues --   -0.60115  -0.57053  -0.54042  -0.50725  -0.50481
 Alpha  occ. eigenvalues --   -0.47681  -0.45427  -0.42744  -0.40159  -0.39571
 Alpha  occ. eigenvalues --   -0.39346  -0.37801  -0.37257  -0.36071  -0.35362
 Alpha  occ. eigenvalues --   -0.34381  -0.33758  -0.32840  -0.31743  -0.31416
 Alpha  occ. eigenvalues --   -0.30522  -0.30196  -0.30024  -0.29793  -0.28427
 Alpha  occ. eigenvalues --   -0.27913  -0.27511  -0.27224  -0.25288  -0.24609
 Alpha  occ. eigenvalues --   -0.23763  -0.22309  -0.18325  -0.18016  -0.17612
 Alpha  occ. eigenvalues --   -0.14101  -0.13031   0.04216
 Alpha virt. eigenvalues --    0.06180   0.07023   0.07444   0.08063   0.08334
 Alpha virt. eigenvalues --    0.08613   0.09353   0.09995   0.10113   0.10663
 Alpha virt. eigenvalues --    0.11129   0.11288   0.11466   0.11942   0.12787

  Beta  occ. eigenvalues --  -19.02017 -14.27500 -14.22378 -14.19704 -10.12845
  Beta  occ. eigenvalues --  -10.12693 -10.11162 -10.10493 -10.09866 -10.09819
  Beta  occ. eigenvalues --  -10.09302 -10.08759 -10.08464 -10.07773 -10.07616
  Beta  occ. eigenvalues --  -10.07116  -0.92859  -0.92150  -0.83263  -0.78871
  Beta  occ. eigenvalues --   -0.72315  -0.67572  -0.65123  -0.63366  -0.62474
  Beta  occ. eigenvalues --   -0.60055  -0.57032  -0.54022  -0.50704  -0.50457
  Beta  occ. eigenvalues --   -0.47670  -0.45358  -0.42677  -0.40137  -0.39555
  Beta  occ. eigenvalues --   -0.39325  -0.37785  -0.37235  -0.36036  -0.35330
  Beta  occ. eigenvalues --   -0.34348  -0.33728  -0.32801  -0.31729  -0.31404
  Beta  occ. eigenvalues --   -0.30487  -0.30168  -0.29985  -0.29757  -0.28408
  Beta  occ. eigenvalues --   -0.27898  -0.27497  -0.27196  -0.25275  -0.24605
  Beta  occ. eigenvalues --   -0.23757  -0.22302  -0.18317  -0.18008  -0.17593
  Beta  occ. eigenvalues --   -0.14085  -0.13017
  Beta virt. eigenvalues --    0.06050   0.07196   0.07410   0.07614   0.08408
  Beta virt. eigenvalues --    0.08846   0.09242   0.09550   0.10159   0.10479
  Beta virt. eigenvalues --    0.11038   0.11197   0.11383   0.11753   0.12460

 Mulliken charges and spin densities:
               1          2
     1  C   -0.509734  -0.156761
     2  C   -0.405488   0.125075
     3  C    0.733159  -0.076447
     4  C   -0.466980  -0.200690
     5  C   -0.830862   0.189911
     6  C   -0.341235  -0.189931
     7  N    0.150050   0.114852
     8  C    0.707619  -1.014907
     9  C    0.135484  -1.547928
    10  C   -0.510435   0.633882
    11  N   -0.154247   0.083882
    12  C    0.385424  -0.317893
    13  C    0.057261  -0.115882
    14  N   -0.197649   0.301893
    15  C    2.119590  -2.382765
    16  O   -0.164676   0.002883
    17  H    0.115123   0.017507
    18  H    0.116354   0.016134
    19  H    0.081941   0.066560
    20  H    0.109389   0.016379
    21  H    0.221060  -0.019197
    22  H    0.122989   0.039468
    23  H    0.124657   0.006363
    24  H    0.139836   0.022117
    25  H    0.101316   0.027576
    26  H    0.171785   0.001727
    27  H    0.080130   0.105774
    28  H    0.163022  -0.017895
    29  H    0.015994   0.156273
    30  H   -0.391944   0.559688
    31  H    0.002470   0.158779
    32  H    0.024432   0.116192
    33  H   -0.289645   0.510188
    34  H    0.032167   0.111855
    35  H   -0.781549   0.966650
    36  H   -0.506709   0.708129
    37  H   -0.934432   1.106217
    38  H   -0.690333   0.859557
    39  H    0.264666   0.014785
 Sum of Mulliken charges =  -1.00000   1.00000

 Dipole moment (field-independent basis, Debye):
    X=            -11.3677    Y=              4.3979    Z=             -3.8776  Tot=             12.7907
 Quadrupole moment (field-independent basis, Debye-Ang):
   XX=           -206.1145   YY=           -147.7271   ZZ=           -135.3649
   XY=              6.8532   XZ=            -13.4404   YZ=              4.6501

 Summary of Natural Population Analysis:

                                       Natural Population
                Natural  -----------------------------------------------
    Atom  No    Charge         Core      Valence    Rydberg      Total
 -----------------------------------------------------------------------
      C    1   -0.28368      0.99967     2.27962    0.00438     3.28368
      C    2   -0.20141      0.99962     2.19455    0.00725     3.20141
      C    3   -0.12376      0.99958     2.11257    0.01160     3.12376
      C    4   -0.28802      0.99965     2.28301    0.00536     3.28802
      C    5    0.06566      0.99953     1.92130    0.01351     2.93434
      C    6   -0.10097      0.99958     2.09085    0.01054     3.10097
      N    7   -0.29251      0.99973     2.77736    0.01541     3.79251
      C    8   -0.17742      0.99963     2.16895    0.00883     3.17742
      C    9   -0.10606      0.99955     2.09320    0.01330     3.10606
      C   10    0.18195      0.99958     1.80112    0.01734     2.81805
      N   11   -0.26915      0.99969     2.75973    0.00973     3.76915
      C   12   -0.03589      0.99958     2.02285    0.01346     3.03589
      C   13   -0.02838      0.99954     2.01701    0.01183     3.02838
      N   14   -0.20295      0.99963     2.69148    0.01184     3.70295
      C   15   -0.17580      0.99963     2.16723    0.00894     3.17580
      O   16   -0.38145      0.99990     3.37524    0.00630     4.38145
      H   17    0.09265      0.00000     0.40642    0.00093     0.40735
      H   18    0.09874      0.00000     0.40040    0.00086     0.40126
      H   19    0.09669      0.00000     0.40243    0.00088     0.40331
      H   20    0.08934      0.00000     0.40963    0.00104     0.41066
      H   21    0.11538      0.00000     0.38288    0.00174     0.38462
      H   22    0.09329      0.00000     0.40498    0.00173     0.40671
      H   23    0.09205      0.00000     0.40707    0.00089     0.40795
      H   24    0.10987      0.00000     0.38917    0.00096     0.39013
      H   25    0.09591      0.00000     0.40326    0.00082     0.40409
      H   26    0.08105      0.00000     0.41751    0.00143     0.41895
      H   27    0.09747      0.00000     0.40158    0.00095     0.40253
      H   28    0.10753      0.00000     0.39096    0.00150     0.39247
      H   29    0.08549      0.00000     0.41309    0.00142     0.41451
      H   30    0.10033      0.00000     0.39796    0.00170     0.39967
      H   31    0.09624      0.00000     0.40268    0.00108     0.40376
      H   32    0.10612      0.00000     0.39188    0.00200     0.39388
      H   33    0.10663      0.00000     0.39159    0.00177     0.39337
      H   34    0.09469      0.00000     0.40449    0.00082     0.40531
      H   35    0.10689      0.00000     0.39170    0.00141     0.39311
      H   36    0.10373      0.00000     0.39178    0.00449     0.39627
      H   37    0.10806      0.00000     0.38687    0.00507     0.39194
      H   38    0.10647      0.00000     0.38917    0.00436     0.39353
      H   39    0.23518      0.00000     0.26165    0.00317     0.26482
 =======================================================================
   * Total *    0.00000     15.99410    45.79526    0.21064    62.00000

 Normal termination of Gaussian 16 at Fri Dec 11 01:26:27 2020.
