 Gaussian 16, Revision A.03,

 ----------------------------------------------------------------------
 # opt=(cartesian,calcfc) freq B3LYP/6-31G(d) empiricaldispersion=gd3bj
  scf=xqc
 ----------------------------------------------------------------------

 ------------------------------
 CID_66445112_JID_2442_neutraal
 ------------------------------
 Symbolic Z-matrix:
 Charge =  0 Multiplicity = 1

 SCF Done:  E(RB3LYP) =  -917.324947191     A.U. after   14 cycles
 SCF Done:  E(RB3LYP) =  -917.325042494     A.U. after   10 cycles
 SCF Done:  E(RB3LYP) =  -917.325055030     A.U. after   10 cycles
 SCF Done:  E(RB3LYP) =  -917.325057544     A.U. after    9 cycles
 SCF Done:  E(RB3LYP) =  -917.325057737     A.U. after    9 cycles
 SCF Done:  E(RB3LYP) =  -917.325058182     A.U. after    8 cycles
 SCF Done:  E(RB3LYP) =  -917.325058210     A.U. after    7 cycles
 Optimization completed.
    -- Stationary point found.
 Normal termination of Gaussian 16 at Mon Jan  4 08:57:22 2021.

 --------------------------------------------------------------------
 #N Geom=AllCheck Guess=TCheck SCRF=Check GenChk RB3LYP/6-31G(d) Freq
 --------------------------------------------------------------------

 Structure from the checkpoint file:  "JID_2442.chk"
 ------------------------------
 CID_66445112_JID_2442_neutraal
 ------------------------------
 Charge =  0 Multiplicity = 1

 SCF Done:  E(RB3LYP) =  -917.325058210     A.U. after    1 cycles

  Exact polarizability: 126.363   0.748 118.756  -3.329  -3.472  85.797
 Approx polarizability: 167.235  -0.217 165.347  -6.108 -12.892 140.923

                      1                      2                      3
                      A                      A                      A
 Frequencies --     32.8638                52.5801                74.5946
 Red. masses --      8.9161                 3.1711                 2.8481
 Frc consts  --      0.0057                 0.0052                 0.0093
 IR Inten    --      0.8488                 0.6423                 0.4686

                      4                      5                      6
                      A                      A                      A
 Frequencies --     92.7543               109.6856               203.1454
 Red. masses --      3.4160                 6.0330                 2.9260
 Frc consts  --      0.0173                 0.0428                 0.0711
 IR Inten    --      0.4079                 0.3306                 3.4350

                      7                      8                      9
                      A                      A                      A
 Frequencies --    218.1976               230.5706               284.9963
 Red. masses --      1.3265                 1.9575                 4.6294
 Frc consts  --      0.0372                 0.0613                 0.2215
 IR Inten    --      0.8966                 2.4374                 1.3966

                     10                     11                     12
                      A                      A                      A
 Frequencies --    295.9519               318.3625               343.0611
 Red. masses --      2.5549                 2.4073                 5.0404
 Frc consts  --      0.1318                 0.1438                 0.3495
 IR Inten    --      1.0357                 1.1250                 0.5992

                     13                     14                     15
                      A                      A                      A
 Frequencies --    431.9755               438.9273               455.0488
 Red. masses --      3.2523                 2.6772                 2.5225
 Frc consts  --      0.3576                 0.3039                 0.3077
 IR Inten    --      1.2500                 0.1235                 2.8632

                     16                     17                     18
                      A                      A                      A
 Frequencies --    513.7309               527.5976               574.1868
 Red. masses --      2.7179                 1.9279                 2.5415
 Frc consts  --      0.4226                 0.3162                 0.4937
 IR Inten    --      4.6513                18.7861                18.1942

                     19                     20                     21
                      A                      A                      A
 Frequencies --    632.5057               683.3631               696.0530
 Red. masses --      4.3576                 1.4952                 3.7432
 Frc consts  --      1.0271                 0.4114                 1.0685
 IR Inten    --     45.1040                96.1658                 6.7159

                     22                     23                     24
                      A                      A                      A
 Frequencies --    754.9024               786.3197               793.1828
 Red. masses --      3.2304                 1.9833                 1.4995
 Frc consts  --      1.0846                 0.7225                 0.5558
 IR Inten    --      1.7181                 6.2574                 1.4343

                     25                     26                     27
                      A                      A                      A
 Frequencies --    837.3540               898.4604               907.5825
 Red. masses --      1.6382                 2.3381                 3.1875
 Frc consts  --      0.6768                 1.1120                 1.5470
 IR Inten    --      1.9799                11.8134                 4.2463

                     28                     29                     30
                      A                      A                      A
 Frequencies --    952.6159              1003.3609              1030.0143
 Red. masses --      2.2532                 1.9599                 1.9285
 Frc consts  --      1.2047                 1.1625                 1.2055
 IR Inten    --      0.5779                13.7545                10.5019

                     31                     32                     33
                      A                      A                      A
 Frequencies --   1043.1424              1078.2438              1086.3672
 Red. masses --      2.1031                 2.5057                 3.0965
 Frc consts  --      1.3484                 1.7164                 2.1532
 IR Inten    --      8.4847                 2.2576                32.9652

                     34                     35                     36
                      A                      A                      A
 Frequencies --   1108.6559              1115.4608              1149.1769
 Red. masses --      2.3547                 1.9783                 2.2257
 Frc consts  --      1.7052                 1.4503                 1.7318
 IR Inten    --     33.2079                 4.6215               135.1432

                     37                     38                     39
                      A                      A                      A
 Frequencies --   1179.2583              1186.2730              1221.2340
 Red. masses --      1.9245                 1.5502                 1.2954
 Frc consts  --      1.5768                 1.2853                 1.1383
 IR Inten    --     88.3833               103.2085                14.9124

                     40                     41                     42
                      A                      A                      A
 Frequencies --   1250.5154              1278.3578              1288.5145
 Red. masses --      1.6481                 1.2158                 1.4344
 Frc consts  --      1.5185                 1.1706                 1.4031
 IR Inten    --     17.1143                21.5934                 0.8817

                     43                     44                     45
                      A                      A                      A
 Frequencies --   1315.0576              1317.7974              1349.0099
 Red. masses --      1.2637                 1.2593                 1.2205
 Frc consts  --      1.2876                 1.2884                 1.3086
 IR Inten    --      0.8549                 2.9285                 1.6502

                     46                     47                     48
                      A                      A                      A
 Frequencies --   1366.4739              1383.4652              1393.9252
 Red. masses --      1.4171                 1.3560                 1.3556
 Frc consts  --      1.5590                 1.5291                 1.5519
 IR Inten    --     21.1923                33.5067                 5.3157

                     49                     50                     51
                      A                      A                      A
 Frequencies --   1407.5578              1428.4933              1436.3113
 Red. masses --      1.3728                 1.7636                 1.3151
 Frc consts  --      1.6025                 2.1203                 1.5984
 IR Inten    --     35.2085                73.3404                24.2389

                     52                     53                     54
                      A                      A                      A
 Frequencies --   1456.2416              1481.4745              1490.4543
 Red. masses --      1.4335                 1.0917                 1.0870
 Frc consts  --      1.7911                 1.4117                 1.4227
 IR Inten    --     15.2349                 0.2586                12.2491

                     55                     56                     57
                      A                      A                      A
 Frequencies --   1492.0011              1518.7391              1521.2203
 Red. masses --      1.0928                 1.0871                 1.0499
 Frc consts  --      1.4332                 1.4773                 1.4314
 IR Inten    --     13.4661                 2.4355                 5.4134

                     58                     59                     60
                      A                      A                      A
 Frequencies --   1528.9913              1551.4685              1842.7781
 Red. masses --      1.0430                 1.0830                 9.4946
 Frc consts  --      1.4367                 1.5358                18.9965
 IR Inten    --      0.5862                 6.4581               227.6246

                     61                     62                     63
                      A                      A                      A
 Frequencies --   2951.9567              2973.2233              3015.9020
 Red. masses --      1.0711                 1.0816                 1.0688
 Frc consts  --      5.4994                 5.6334                 5.7278
 IR Inten    --     52.9829                30.1112                48.1820

                     64                     65                     66
                      A                      A                      A
 Frequencies --   3051.7988              3056.7968              3059.1442
 Red. masses --      1.0374                 1.0822                 1.0697
 Frc consts  --      5.6924                 5.9581                 5.8980
 IR Inten    --     27.6610                 4.6620                20.3640

                     67                     68                     69
                      A                      A                      A
 Frequencies --   3068.9742              3076.3069              3078.0259
 Red. masses --      1.0743                 1.0852                 1.0643
 Frc consts  --      5.9616                 6.0506                 5.9408
 IR Inten    --     14.0212                57.4430                14.9369

                     70                     71                     72
                      A                      A                      A
 Frequencies --   3118.3880              3119.8346              3128.1682
 Red. masses --      1.0979                 1.1001                 1.1048
 Frc consts  --      6.2906                 6.3085                 6.3695
 IR Inten    --     23.4792                20.2633                14.2503

                     73                     74                     75
                      A                      A                      A
 Frequencies --   3133.3931              3159.5404              3683.1269
 Red. masses --      1.1021                 1.0968                 1.0640
 Frc consts  --      6.3752                 6.4512                 8.5037
 IR Inten    --     40.6115                 1.6153                50.7098

 - Thermochemistry -
 -------------------
 Temperature   298.150 Kelvin.  Pressure   1.00000 Atm.
 Atom     1 has atomic number  6 and mass  12.00000

 Molecular mass:   189.08235 amu.
 Principal axes and moments of inertia in atomic units:
                           1         2         3
     Eigenvalues --  1895.229512980.400264530.97636
           X            0.99976  -0.02143  -0.00407
           Y            0.02145   0.99976   0.00540
           Z            0.00395  -0.00549   0.99998
 This molecule is an asymmetric top.
 Rotational symmetry number  1.
 Warning -- assumption of classical behavior for rotation
           may cause significant error
 Rotational temperatures (Kelvin)      0.04570     0.02906     0.01912
 Rotational constants (GHZ):           0.95225     0.60554     0.39831
 Zero-point vibrational energy     610784.4 (Joules/Mol)
                                  145.98099 (Kcal/Mol)
 Warning -- explicit consideration of  18 degrees of freedom as
           vibrations may cause significant error
 Vibrational temperatures:     47.28    75.65   107.33   133.45   157.81
          (Kelvin)            292.28   313.94   331.74   410.05   425.81
                              458.05   493.59   621.52   631.52   654.71
                              739.14   759.10   826.13   910.03   983.21
                             1001.46  1086.14  1131.34  1141.21  1204.77
                             1292.68  1305.81  1370.60  1443.61  1481.96
                             1500.85  1551.35  1563.04  1595.11  1604.90
                             1653.41  1696.69  1706.78  1757.08  1799.21
                             1839.27  1853.88  1892.07  1896.02  1940.92
                             1966.05  1990.50  2005.55  2025.16  2055.28
                             2066.53  2095.21  2131.51  2144.43  2146.66
                             2185.13  2188.70  2199.88  2232.22  2651.35
                             4247.21  4277.81  4339.21  4390.86  4398.05
                             4401.43  4415.57  4426.12  4428.59  4486.66
                             4488.75  4500.74  4508.25  4545.87  5299.20

 Zero-point correction=                           0.232636 (Hartree/Particle)
 Thermal correction to Energy=                    0.245335
 Thermal correction to Enthalpy=                  0.246279
 Thermal correction to Gibbs Free Energy=         0.192387
 Sum of electronic and zero-point Energies=           -917.092423
 Sum of electronic and thermal Energies=              -917.079724
 Sum of electronic and thermal Enthalpies=            -917.078780
 Sum of electronic and thermal Free Energies=         -917.132671

                     E (Thermal)             CV                S
                      KCal/Mol        Cal/Mol-Kelvin    Cal/Mol-Kelvin
 Total                  153.950             47.394            113.425
 Electronic               0.000              0.000              0.000
 Translational            0.889              2.981             41.617
 Rotational               0.889              2.981             31.615
 Vibrational            152.172             41.433             40.193
 Vibration     1          0.594              1.983              5.649
 Vibration     2          0.596              1.977              4.718
 Vibration     3          0.599              1.966              4.028
 Vibration     4          0.602              1.954              3.601
 Vibration     5          0.606              1.941              3.274
 Vibration     6          0.639              1.835              2.104
 Vibration     7          0.646              1.813              1.974
 Vibration     8          0.652              1.794              1.874
 Vibration     9          0.683              1.702              1.503
 Vibration    10          0.690              1.681              1.440
 Vibration    11          0.705              1.638              1.319
 Vibration    12          0.722              1.589              1.198
 Vibration    13          0.793              1.401              0.852
 Vibration    14          0.799              1.385              0.830
 Vibration    15          0.813              1.350              0.781
 Vibration    16          0.869              1.220              0.625
 Vibration    17          0.883              1.189              0.593
 Vibration    18          0.930              1.087              0.496

 Normal termination of Gaussian 16 at Mon Jan  4 09:03:30 2021.

 ----------------------------------------------------------------------
 # B3LYP/6-311++G(d,p) empiricaldispersion=gd3bj scf=xqc pop=npa geom=c
 heck
 ----------------------------------------------------------------------

 --------------------------------------
 CID_66445112_JID_2442_Energie_neutraal
 --------------------------------------
 Structure from the checkpoint file:  "JID_2442.chk"
 Charge =  0 Multiplicity = 1

 SCF Done:  E(RB3LYP) =  -917.510096156     A.U. after   14 cycles
 Normal termination of Gaussian 16 at Mon Jan  4 09:05:54 2021.

 ----------------------------------------------------------------------
 # B3LYP/6-311++G(d,p) empiricaldispersion=gd3bj scf=xqc pop=npa geom=c
 heck
 ----------------------------------------------------------------------

 ------------------------------------
 CID_66445112_JID_2442_Energie_kation
 ------------------------------------
 Structure from the checkpoint file:  "JID_2442.chk"
 Charge =  1 Multiplicity = 2

 SCF Done:  E(UB3LYP) =  -917.216380102     A.U. after   21 cycles
 Normal termination of Gaussian 16 at Mon Jan  4 09:10:33 2021.
 Gaussian 16:  ES64L-G16RevA.03 25-Dec-2016

 ----------------------------------------------------------------------
 # B3LYP/6-311++G(d,p) empiricaldispersion=gd3bj scf=xqc pop=npa geom=c
 heck
 ----------------------------------------------------------------------

 -----------------------------------
 CID_66445112_JID_2442_Energie_anion
 -----------------------------------
 Structure from the checkpoint file:  "JID_2442.chk"
 Charge = -1 Multiplicity = 2

                         Standard orientation:
 ---------------------------------------------------------------------
 Center     Atomic      Atomic             Coordinates (Angstroms)
 Number     Number       Type             X           Y           Z
 ---------------------------------------------------------------------
      1          6           0       -0.099671    3.346090   -0.436909
      2          6           0       -0.495455    2.308652    0.614313
      3          7           0       -0.874013    1.013937    0.012725
      4          6           0       -2.233071    0.645133    0.429842
      5          6           0       -2.813198   -0.528325   -0.346566
      6         16           0       -1.858777   -2.055178   -0.045003
      7          6           0       -0.257351   -1.333078   -0.530660
      8          6           0        0.118656   -0.054287    0.233189
      9          6           0        1.503033    0.391947   -0.265227
     10          6           0        2.616724   -0.556767    0.115582
     11          8           0        2.542079   -1.494133    0.879889
     12          8           0        3.776048   -0.213206   -0.498585
     13          1           0        0.769459    3.023466   -1.018359
     14          1           0        0.139759    4.307444    0.033681
     15          1           0       -0.925292    3.500022   -1.139533
     16          1           0        0.305413    2.179607    1.357305
     17          1           0       -1.348025    2.696069    1.183755
     18          1           0       -2.869921    1.518741    0.246296
     19          1           0       -2.284517    0.418538    1.511205
     20          1           0       -3.840272   -0.720539   -0.023201
     21          1           0       -2.819897   -0.306615   -1.419468
     22          1           0       -0.277394   -1.116667   -1.605463
     23          1           0        0.494976   -2.098944   -0.337151
     24          1           0        0.199883   -0.306825    1.305103
     25          1           0        1.498010    0.518548   -1.353882
     26          1           0        1.788271    1.365771    0.143864
     27          1           0        4.445048   -0.850801   -0.185008
 ---------------------------------------------------------------------

 SCF Done:  E(UB3LYP) =  -917.496361050     A.U. after   33 cycles
 SCF Done:  E(UB3LYP) =  -917.496361050     a.u. after    1 cycles

 The electronic state is 2-A.
 Alpha  occ. eigenvalues --  -88.74574 -19.07043 -19.02213 -14.21407 -10.21408
 Alpha  occ. eigenvalues --  -10.11812 -10.10631 -10.10516 -10.10285 -10.09799
 Alpha  occ. eigenvalues --  -10.09272 -10.05897  -7.83224  -5.79596  -5.79277
 Alpha  occ. eigenvalues --   -5.78591  -1.01400  -0.92614  -0.83845  -0.72070
 Alpha  occ. eigenvalues --   -0.70777  -0.64954  -0.64051  -0.55959  -0.55089
 Alpha  occ. eigenvalues --   -0.51174  -0.49072  -0.46575  -0.41575  -0.39467
 Alpha  occ. eigenvalues --   -0.39288  -0.38976  -0.37188  -0.35432  -0.34622
 Alpha  occ. eigenvalues --   -0.33322  -0.32053  -0.31390  -0.30778  -0.29665
 Alpha  occ. eigenvalues --   -0.29204  -0.27326  -0.26818  -0.26372  -0.24742
 Alpha  occ. eigenvalues --   -0.23750  -0.22952  -0.21384  -0.19151  -0.13536
 Alpha  occ. eigenvalues --   -0.12903   0.04462
 Alpha virt. eigenvalues --    0.05861   0.07187   0.07774   0.08778   0.09041
 Alpha virt. eigenvalues --    0.09343   0.10180   0.10417   0.10782   0.11054
 Alpha virt. eigenvalues --    0.12459   0.12911   0.13425   0.13649   0.14353

  Beta  occ. eigenvalues --  -88.74573 -19.06979 -19.02195 -14.21389 -10.21402
  Beta  occ. eigenvalues --  -10.11810 -10.10620 -10.10496 -10.10279 -10.09779
  Beta  occ. eigenvalues --  -10.09244 -10.05862  -7.83223  -5.79595  -5.79275
  Beta  occ. eigenvalues --   -5.78590  -1.01322  -0.92542  -0.83817  -0.72051
  Beta  occ. eigenvalues --   -0.70743  -0.64913  -0.63992  -0.55907  -0.55039
  Beta  occ. eigenvalues --   -0.51084  -0.48988  -0.46536  -0.41532  -0.39434
  Beta  occ. eigenvalues --   -0.39245  -0.38931  -0.37157  -0.35398  -0.34570
  Beta  occ. eigenvalues --   -0.33278  -0.32023  -0.31361  -0.30743  -0.29614
  Beta  occ. eigenvalues --   -0.29168  -0.27272  -0.26783  -0.26343  -0.24711
  Beta  occ. eigenvalues --   -0.23718  -0.22899  -0.21364  -0.19096  -0.13521
  Beta  occ. eigenvalues --   -0.12815
  Beta virt. eigenvalues --    0.06838   0.07328   0.07853   0.08234   0.08955
  Beta virt. eigenvalues --    0.09515   0.09890   0.10286   0.10682   0.11205
  Beta virt. eigenvalues --    0.11255   0.12697   0.13180   0.13592   0.13805

 Mulliken charges and spin densities:
               1          2
     1  C    1.030290  -1.406378
     2  C   -0.713606   0.338406
     3  N    0.333838   0.067832
     4  C    0.550806  -0.803443
     5  C   -0.202404  -0.291833
     6  S   -0.055460   0.112020
     7  C   -0.179722  -0.280630
     8  C   -0.784615   0.161230
     9  C    0.960678  -0.896161
    10  C    0.143185  -0.405281
    11  O   -0.261623  -0.000753
    12  O   -0.176456   0.048641
    13  H   -0.160881   0.299893
    14  H   -0.359120   0.485034
    15  H   -0.148539   0.289220
    16  H    0.051533   0.079989
    17  H   -0.465227   0.630189
    18  H   -0.489258   0.673938
    19  H    0.112800  -0.013290
    20  H   -0.053584   0.255598
    21  H    0.194618  -0.013721
    22  H    0.097492   0.095248
    23  H    0.242483  -0.023059
    24  H    0.157195   0.022271
    25  H    0.104925   0.126532
    26  H   -0.262671   0.484138
    27  H   -0.666677   0.964370
 Sum of Mulliken charges =  -1.00000   1.00000

 Dipole moment (field-independent basis, Debye):
    X=             -4.3209    Y=             -3.6819    Z=             -0.6038  Tot=              5.7088
 Quadrupole moment (field-independent basis, Debye-Ang):
   XX=           -163.7248   YY=           -139.6189   ZZ=           -105.5227
   XY=             11.5648   XZ=              1.6546   YZ=              1.2433

 Summary of Natural Population Analysis:

                                       Natural Population
                Natural  -----------------------------------------------
    Atom  No    Charge         Core      Valence    Rydberg      Total
 -----------------------------------------------------------------------
      C    1   -0.28603      0.99966     2.28071    0.00566     3.28603
      C    2   -0.08727      0.99962     2.07649    0.01116     3.08727
      N    3   -0.29034      0.99969     2.77659    0.01406     3.79034
      C    4   -0.08713      0.99959     2.07437    0.01316     3.08713
      C    5   -0.25472      0.99959     2.24324    0.01189     3.25472
      S    6    0.08774      4.99963     2.89548    0.01715     7.91226
      C    7   -0.25537      0.99955     2.24640    0.00942     3.25537
      C    8   -0.00668      0.99956     1.99369    0.01343     3.00668
      C    9   -0.24883      0.99955     2.23809    0.01120     3.24883
      C   10    0.41155      0.99972     1.56360    0.02514     2.58845
      O   11   -0.30986      0.99987     3.30421    0.00578     4.30986
      O   12   -0.34240      0.99988     3.33564    0.00688     4.34240
      H   13    0.09641      0.00000     0.40198    0.00162     0.40359
      H   14    0.09831      0.00000     0.40032    0.00136     0.40169
      H   15    0.10019      0.00000     0.39812    0.00170     0.39981
      H   16    0.08765      0.00000     0.41093    0.00141     0.41235
      H   17    0.09584      0.00000     0.40221    0.00195     0.40416
      H   18    0.10250      0.00000     0.39525    0.00224     0.39750
      H   19    0.08244      0.00000     0.41585    0.00171     0.41756
      H   20    0.10741      0.00000     0.39167    0.00092     0.39259
      H   21    0.10182      0.00000     0.39650    0.00168     0.39818
      H   22    0.10003      0.00000     0.39823    0.00174     0.39997
      H   23    0.11820      0.00000     0.38079    0.00101     0.38180
      H   24    0.09180      0.00000     0.40628    0.00191     0.40820
      H   25    0.11655      0.00000     0.38188    0.00157     0.38345
      H   26    0.12418      0.00000     0.37427    0.00155     0.37582
      H   27    0.24600      0.00000     0.22063    0.03336     0.25400
 =======================================================================
   * Total *   -0.00000     15.99590    34.80345    0.20066    51.00000

 Normal termination of Gaussian 16 at Mon Jan  4 09:17:46 2021.
