 Gaussian 16, Revision A.03,

 -----------------------------------------------------------
 # opt freq B3LYP/6-31G(d) empiricaldispersion=gd3bj scf=xqc
 -----------------------------------------------------------

 ------------------------------
 CID_89855663_JID_2561_neutraal
 ------------------------------
 Symbolic Z-matrix:
 Charge =  0 Multiplicity = 1

 SCF Done:  E(RB3LYP) =  -932.146217307     A.U. after   15 cycles
 SCF Done:  E(RB3LYP) =  -932.153635142     A.U. after   12 cycles
 SCF Done:  E(RB3LYP) =  -932.154677659     A.U. after   13 cycles
 SCF Done:  E(RB3LYP) =  -932.155067922     A.U. after   12 cycles
 SCF Done:  E(RB3LYP) =  -932.155404004     A.U. after   12 cycles
 SCF Done:  E(RB3LYP) =  -932.155682852     A.U. after   11 cycles
 SCF Done:  E(RB3LYP) =  -932.156266455     A.U. after   13 cycles
 SCF Done:  E(RB3LYP) =  -932.156800796     A.U. after   12 cycles
 SCF Done:  E(RB3LYP) =  -932.157205771     A.U. after   12 cycles
 SCF Done:  E(RB3LYP) =  -932.157355713     A.U. after   12 cycles
 SCF Done:  E(RB3LYP) =  -932.159415920     A.U. after    9 cycles
 SCF Done:  E(RB3LYP) =  -932.159419508     A.U. after    9 cycles
 SCF Done:  E(RB3LYP) =  -932.159420738     A.U. after    9 cycles
 SCF Done:  E(RB3LYP) =  -932.159420890     A.U. after    7 cycles
 SCF Done:  E(RB3LYP) =  -932.159420955     A.U. after    7 cycles
 Optimization completed.
    -- Stationary point found.
 Normal termination of Gaussian 16 at Wed Dec  9 17:39:55 2020.

 --------------------------------------------------------------------
 #N Geom=AllCheck Guess=TCheck SCRF=Check GenChk RB3LYP/6-31G(d) Freq
 --------------------------------------------------------------------

 Structure from the checkpoint file:  "JID_2561.chk"
 ------------------------------
 CID_89855663_JID_2561_neutraal
 ------------------------------
 Charge =  0 Multiplicity = 1

 SCF Done:  E(RB3LYP) =  -932.159420955     A.U. after    1 cycles

  Exact polarizability: 136.066   3.252  92.856  -5.420   4.163  91.750
 Approx polarizability: 188.731   4.705 131.853 -20.723  10.844 159.958

                      1                      2                      3
                      A                      A                      A
 Frequencies --     43.2129                60.8252                83.6036
 Red. masses --      4.5470                 3.1751                 4.6932
 Frc consts  --      0.0050                 0.0069                 0.0193
 IR Inten    --      2.7738                 0.1749                 0.8085

                      4                      5                      6
                      A                      A                      A
 Frequencies --     96.4499               136.9910               152.7189
 Red. masses --      7.9893                 4.3669                 3.6428
 Frc consts  --      0.0438                 0.0483                 0.0501
 IR Inten    --      0.7580                 0.7636                 5.2163

                      7                      8                      9
                      A                      A                      A
 Frequencies --    210.3844               235.6789               248.5893
 Red. masses --      5.8658                 1.0309                 3.0904
 Frc consts  --      0.1530                 0.0337                 0.1125
 IR Inten    --      6.3016                 0.1620                 5.5802

                     10                     11                     12
                      A                      A                      A
 Frequencies --    264.6905               307.9165               364.1708
 Red. masses --      1.1346                 2.6162                 3.2590
 Frc consts  --      0.0468                 0.1461                 0.2546
 IR Inten    --      0.7162                 2.3852                 3.9576

                     13                     14                     15
                      A                      A                      A
 Frequencies --    395.4655               437.7031               452.0570
 Red. masses --      4.2572                 3.3184                 2.6069
 Frc consts  --      0.3923                 0.3746                 0.3139
 IR Inten    --      4.7017                 6.5386                 9.8016

                     16                     17                     18
                      A                      A                      A
 Frequencies --    502.6658               543.8944               617.0616
 Red. masses --      4.4791                 2.5671                 4.3536
 Frc consts  --      0.6668                 0.4474                 0.9767
 IR Inten    --      8.0811                63.5151                18.2261

                     19                     20                     21
                      A                      A                      A
 Frequencies --    641.5571               672.8351               704.9923
 Red. masses --      7.9845                 3.9251                 2.9184
 Frc consts  --      1.9363                 1.0469                 0.8546
 IR Inten    --      4.5839                40.3582                69.4407

                     22                     23                     24
                      A                      A                      A
 Frequencies --    776.9780               785.0421               830.2934
 Red. masses --      5.1174                 3.4937                 4.0808
 Frc consts  --      1.8202                 1.2686                 1.6575
 IR Inten    --     40.4302                 5.2057                 8.9212

                     25                     26                     27
                      A                      A                      A
 Frequencies --    875.4491               948.6797               962.6108
 Red. masses --      2.5745                 1.2009                 2.0460
 Frc consts  --      1.1626                 0.6368                 1.1170
 IR Inten    --      8.1026                 3.1511                64.1421

                     28                     29                     30
                      A                      A                      A
 Frequencies --    965.8094               984.8117               998.4544
 Red. masses --      1.7983                 2.0836                 2.1759
 Frc consts  --      0.9883                 1.1906                 1.2780
 IR Inten    --     21.5940                 3.7163                19.4437

                     31                     32                     33
                      A                      A                      A
 Frequencies --   1037.6721              1098.8789              1160.1606
 Red. masses --      1.6652                 3.6977                 2.0941
 Frc consts  --      1.0564                 2.6308                 1.6607
 IR Inten    --      1.0956               163.3577                50.1451

                     34                     35                     36
                      A                      A                      A
 Frequencies --   1177.9379              1183.8928              1207.2186
 Red. masses --      1.4876                 2.4935                 1.9431
 Frc consts  --      1.2162                 2.0591                 1.6685
 IR Inten    --     49.3565               264.0464                42.8882

                     37                     38                     39
                      A                      A                      A
 Frequencies --   1220.0336              1279.3014              1330.0246
 Red. masses --      2.5635                 1.2767                 1.8523
 Frc consts  --      2.2482                 1.2310                 1.9306
 IR Inten    --     30.1969                 5.2712                17.6623

                     40                     41                     42
                      A                      A                      A
 Frequencies --   1364.4613              1367.6747              1381.4361
 Red. masses --      1.4133                 1.3864                 2.0514
 Frc consts  --      1.5503                 1.5279                 2.3065
 IR Inten    --     24.7198                78.1363                82.7039

                     43                     44                     45
                      A                      A                      A
 Frequencies --   1412.2420              1432.0253              1432.9869
 Red. masses --      1.1815                 1.2598                 1.2135
 Frc consts  --      1.3883                 1.5221                 1.4682
 IR Inten    --     25.4669                 8.1526                 1.9044

                     46                     47                     48
                      A                      A                      A
 Frequencies --   1451.9190              1484.5741              1507.9510
 Red. masses --      1.2399                 1.4099                 1.0864
 Frc consts  --      1.5400                 1.8308                 1.4555
 IR Inten    --     13.6160                15.7510                 9.7423

                     49                     50                     51
                      A                      A                      A
 Frequencies --   1516.4830              1518.4973              1534.9117
 Red. masses --      1.0474                 1.0506                 1.0819
 Frc consts  --      1.4192                 1.4273                 1.5018
 IR Inten    --      0.6255                 3.0716                 4.2222

                     52                     53                     54
                      A                      A                      A
 Frequencies --   1538.6822              1695.8473              1822.4731
 Red. masses --      1.0611                 7.0154                 9.4019
 Frc consts  --      1.4801                11.8871                18.3987
 IR Inten    --      6.7256               452.4222               238.3420

                     55                     56                     57
                      A                      A                      A
 Frequencies --   3045.1079              3045.8337              3049.2222
 Red. masses --      1.0869                 1.0407                 1.0447
 Frc consts  --      5.9381                 5.6885                 5.7228
 IR Inten    --     94.6289                24.2955                19.5260

                     58                     59                     60
                      A                      A                      A
 Frequencies --   3063.2190              3098.7273              3111.3135
 Red. masses --      1.0782                 1.0790                 1.1004
 Frc consts  --      5.9609                 6.1041                 6.2758
 IR Inten    --     23.0394                14.9074                 5.3823

                     61                     62                     63
                      A                      A                      A
 Frequencies --   3112.0889              3120.4147              3140.9860
 Red. masses --      1.0684                 1.0981                 1.1035
 Frc consts  --      6.0964                 6.2996                 6.4143
 IR Inten    --     46.4654                50.7327                16.2616

                     64                     65                     66
                      A                      A                      A
 Frequencies --   3142.7710              3169.4417              3556.8222
 Red. masses --      1.1025                 1.1072                 1.0746
 Frc consts  --      6.4157                 6.5532                 8.0099
 IR Inten    --     18.8423                 5.0371                17.7076

 - Thermochemistry -
 -------------------
 Temperature   298.150 Kelvin.  Pressure   1.00000 Atm.
 Atom     1 has atomic number  6 and mass  12.00000

 Molecular mass:   188.06195 amu.
 Principal axes and moments of inertia in atomic units:
                           1         2         3
     Eigenvalues --  1220.567263381.285293676.59644
           X            0.99974   0.02240   0.00390
           Y           -0.02227   0.99933  -0.02906
           Z           -0.00455   0.02896   0.99957
 This molecule is an asymmetric top.
 Rotational symmetry number  1.
 Warning -- assumption of classical behavior for rotation
           may cause significant error
 Rotational temperatures (Kelvin)      0.07096     0.02562     0.02356
 Rotational constants (GHZ):           1.47861     0.53374     0.49087
 Zero-point vibrational energy     515081.0 (Joules/Mol)
                                  123.10732 (Kcal/Mol)
 Warning -- explicit consideration of  18 degrees of freedom as
           vibrations may cause significant error
 Vibrational temperatures:     62.17    87.51   120.29   138.77   197.10
          (Kelvin)            219.73   302.70   339.09   357.66   380.83
                              443.02   523.96   568.99   629.76   650.41
                              723.22   782.54   887.81   923.06   968.06
                             1014.33  1117.90  1129.50  1194.61  1259.58
                             1364.94  1384.98  1389.58  1416.92  1436.55
                             1492.98  1581.04  1669.21  1694.79  1703.36
                             1736.92  1755.36  1840.63  1913.61  1963.16
                             1967.78  1987.58  2031.90  2060.36  2061.75
                             2088.99  2135.97  2169.61  2181.88  2184.78
                             2208.40  2213.82  2439.95  2622.13  4381.23
                             4382.28  4387.15  4407.29  4458.38  4476.49
                             4477.60  4489.58  4519.18  4521.75  4560.12
                             5117.47

 Zero-point correction=                           0.196184 (Hartree/Particle)
 Thermal correction to Energy=                    0.208795
 Thermal correction to Enthalpy=                  0.209739
 Thermal correction to Gibbs Free Energy=         0.156550
 Sum of electronic and zero-point Energies=           -931.963237
 Sum of electronic and thermal Energies=              -931.950626
 Sum of electronic and thermal Enthalpies=            -931.949682
 Sum of electronic and thermal Free Energies=         -932.002871

                     E (Thermal)             CV                S
                      KCal/Mol        Cal/Mol-Kelvin    Cal/Mol-Kelvin
 Total                  131.021             45.961            111.947
 Electronic               0.000              0.000              0.000
 Translational            0.889              2.981             41.601
 Rotational               0.889              2.981             31.096
 Vibrational            129.243             39.999             39.250
 Vibration     1          0.595              1.980              5.106
 Vibration     2          0.597              1.973              4.430
 Vibration     3          0.600              1.960              3.804
 Vibration     4          0.603              1.952              3.525
 Vibration     5          0.614              1.916              2.845
 Vibration     6          0.619              1.900              2.638
 Vibration     7          0.643              1.825              2.040
 Vibration     8          0.655              1.786              1.835
 Vibration     9          0.662              1.765              1.741
 Vibration    10          0.671              1.738              1.631
 Vibration    11          0.698              1.659              1.374
 Vibration    12          0.738              1.546              1.104
 Vibration    13          0.762              1.480              0.979
 Vibration    14          0.798              1.388              0.834
 Vibration    15          0.811              1.356              0.790
 Vibration    16          0.858              1.244              0.651
 Vibration    17          0.899              1.153              0.557
 Vibration    18          0.977              0.996              0.421

 Optimization completed.
    -- Stationary point found.
 Normal termination of Gaussian 16 at Wed Dec  9 17:45:18 2020.

 ----------------------------------------------------------------------
 # B3LYP/6-311++G(d,p) empiricaldispersion=gd3bj scf=xqc pop=npa geom=c
 heck
 ----------------------------------------------------------------------

 --------------------------------------
 CID_89855663_JID_2561_Energie_neutraal
 --------------------------------------
 Structure from the checkpoint file:  "JID_2561.chk"
 Charge =  0 Multiplicity = 1

 SCF Done:  E(RB3LYP) =  -932.343619350     A.U. after   15 cycles
 Normal termination of Gaussian 16 at Wed Dec  9 17:47:59 2020.

 ----------------------------------------------------------------------
 # B3LYP/6-311++G(d,p) empiricaldispersion=gd3bj scf=xqc pop=npa geom=c
 heck
 ----------------------------------------------------------------------

 ------------------------------------
 CID_89855663_JID_2561_Energie_kation
 ------------------------------------
 Structure from the checkpoint file:  "JID_2561.chk"
 Charge =  1 Multiplicity = 2

 SCF Done:  E(UB3LYP) =  -932.038003658     A.U. after   27 cycles
 Normal termination of Gaussian 16 at Wed Dec  9 17:54:02 2020.
 Gaussian 16:  ES64L-G16RevA.03 25-Dec-2016

 ----------------------------------------------------------------------
 # B3LYP/6-311++G(d,p) empiricaldispersion=gd3bj scf=xqc pop=npa geom=c
 heck
 ----------------------------------------------------------------------

 -----------------------------------
 CID_89855663_JID_2561_Energie_anion
 -----------------------------------
 Structure from the checkpoint file:  "JID_2561.chk"
 Charge = -1 Multiplicity = 2

                         Standard orientation:
 ---------------------------------------------------------------------
 Center     Atomic      Atomic             Coordinates (Angstroms)
 Number     Number       Type             X           Y           Z
 ---------------------------------------------------------------------
      1          6           0        2.364821    1.441513   -0.777394
      2          6           0        2.581764    0.074409   -0.116794
      3          6           0        3.950274   -0.039694    0.553317
      4          7           0        1.544206   -0.215000    0.881768
      5          6           0        0.255807   -0.495538    0.549704
      6          7           0       -0.732831   -0.284337    1.345343
      7          6           0       -1.990608   -0.633804    0.776714
      8          6           0       -1.842511   -1.343261   -0.605071
      9         16           0       -0.068679   -1.269306   -1.038914
     10          8           0       -2.868655    0.539507    0.690306
     11          6           0       -2.484665    1.585467   -0.054444
     12          8           0       -1.527149    1.656183   -0.786654
     13          1           0        2.475935    2.243437   -0.037143
     14          1           0        1.361562    1.511397   -1.207801
     15          1           0        3.101101    1.608908   -1.571660
     16          1           0        2.506420   -0.709135   -0.880059
     17          1           0        4.056522    0.710163    1.347866
     18          1           0        4.088683   -1.031096    0.994816
     19          1           0        4.747426    0.136118   -0.175622
     20          1           0        1.600203    0.332671    1.734951
     21          1           0       -2.565592   -1.262847    1.460185
     22          1           0       -2.151296   -2.388061   -0.532784
     23          1           0       -2.432617   -0.848075   -1.376500
     24          1           0       -3.211959    2.400714    0.091202
 ---------------------------------------------------------------------

 SCF Done:  E(UB3LYP) =  -932.327644211     A.U. after   33 cycles
 SCF Done:  E(UB3LYP) =  -932.327644211     a.u. after    1 cycles

 The electronic state is 2-A.
 Alpha  occ. eigenvalues --  -88.75569 -19.07663 -19.02597 -14.23787 -14.19029
 Alpha  occ. eigenvalues --  -10.20985 -10.17200 -10.17189 -10.12099 -10.10855
 Alpha  occ. eigenvalues --  -10.06570 -10.06128  -7.84223  -5.80591  -5.80251
 Alpha  occ. eigenvalues --   -5.79613  -1.01514  -0.93588  -0.88000  -0.81211
 Alpha  occ. eigenvalues --   -0.69514  -0.68270  -0.63954  -0.59513  -0.56023
 Alpha  occ. eigenvalues --   -0.52581  -0.48268  -0.47977  -0.43156  -0.40273
 Alpha  occ. eigenvalues --   -0.39435  -0.38396  -0.36409  -0.35542  -0.34813
 Alpha  occ. eigenvalues --   -0.33332  -0.31433  -0.29888  -0.29390  -0.29121
 Alpha  occ. eigenvalues --   -0.28076  -0.27597  -0.25795  -0.25136  -0.24360
 Alpha  occ. eigenvalues --   -0.21941  -0.19531  -0.17473  -0.14881  -0.13377
 Alpha  occ. eigenvalues --    0.04587
 Alpha virt. eigenvalues --    0.06100   0.07458   0.07905   0.08335   0.08614
 Alpha virt. eigenvalues --    0.08913   0.09660   0.10392   0.10966   0.11103
 Alpha virt. eigenvalues --    0.11512   0.12337   0.12592   0.13215   0.14369

  Beta  occ. eigenvalues --  -88.75558 -19.07666 -19.02586 -14.23772 -14.19029
  Beta  occ. eigenvalues --  -10.20970 -10.17182 -10.17175 -10.12097 -10.10808
  Beta  occ. eigenvalues --  -10.06518 -10.06104  -7.84212  -5.80562  -5.80244
  Beta  occ. eigenvalues --   -5.79605  -1.01503  -0.93575  -0.87975  -0.81193
  Beta  occ. eigenvalues --   -0.69470  -0.68223  -0.63909  -0.59446  -0.55948
  Beta  occ. eigenvalues --   -0.52525  -0.48213  -0.47930  -0.43122  -0.40224
  Beta  occ. eigenvalues --   -0.39410  -0.38359  -0.36367  -0.35511  -0.34776
  Beta  occ. eigenvalues --   -0.33284  -0.31382  -0.29842  -0.29346  -0.29059
  Beta  occ. eigenvalues --   -0.28029  -0.27560  -0.25741  -0.25106  -0.24320
  Beta  occ. eigenvalues --   -0.21902  -0.19509  -0.17455  -0.14852  -0.13361
  Beta virt. eigenvalues --    0.06891   0.07326   0.07886   0.08233   0.08965
  Beta virt. eigenvalues --    0.09123   0.09403   0.10011   0.10719   0.11355
  Beta virt. eigenvalues --    0.11590   0.11945   0.12731   0.13050   0.13409

 Mulliken charges and spin densities:
               1          2
     1  C    0.171695  -0.699842
     2  C   -0.905393   0.824170
     3  C    1.314912  -1.804723
     4  N    0.019789   0.089796
     5  C   -0.247003   0.187286
     6  N   -0.016702  -0.149218
     7  C   -0.916320   0.647446
     8  C    1.512315  -1.932339
     9  S    0.271220  -0.352713
    10  O    0.075114  -0.020877
    11  C    0.509257  -0.471038
    12  O   -0.231207  -0.011054
    13  H   -0.061667   0.208181
    14  H    0.058188   0.114302
    15  H   -0.079189   0.211912
    16  H    0.180076  -0.041889
    17  H   -0.447653   0.592185
    18  H   -0.356847   0.523037
    19  H   -0.323425   0.471442
    20  H    0.048491   0.229193
    21  H   -0.645090   0.896333
    22  H   -0.584671   0.819573
    23  H   -0.189923   0.408021
    24  H   -0.155966   0.260818
 Sum of Mulliken charges =  -1.00000   1.00000

 Dipole moment (field-independent basis, Debye):
    X=             -2.4765    Y=              2.0079    Z=             -1.2926  Tot=              3.4403
 Quadrupole moment (field-independent basis, Debye-Ang):
   XX=           -154.9273   YY=           -119.2564   ZZ=           -112.9038
   XY=            -13.6313   XZ=             -4.2183   YZ=              0.2546

 Summary of Natural Population Analysis:

                                       Natural Population
                Natural  -----------------------------------------------
    Atom  No    Charge         Core      Valence    Rydberg      Total
 -----------------------------------------------------------------------
      C    1   -0.29378      0.99964     2.28836    0.00578     3.29378
      C    2   -0.01275      0.99961     2.00227    0.01087     3.01275
      C    3   -0.28619      0.99965     2.28024    0.00630     3.28619
      N    4   -0.31690      0.99963     2.80360    0.01367     3.81690
      C    5    0.18480      0.99957     1.79517    0.02045     2.81520
      N    6   -0.30529      0.99961     2.79291    0.01277     3.80529
      C    7    0.14124      0.99954     1.83929    0.01994     2.85876
      C    8   -0.26294      0.99959     2.25306    0.01030     3.26294
      S    9    0.11008      4.99953     2.87342    0.01697     7.88992
      O   10   -0.28255      0.99988     3.27245    0.01022     4.28255
      C   11    0.33813      0.99976     1.63727    0.02484     2.66187
      O   12   -0.29463      0.99988     3.28787    0.00689     4.29463
      H   13    0.09822      0.00000     0.40064    0.00114     0.40178
      H   14    0.11126      0.00000     0.38715    0.00159     0.38874
      H   15    0.09979      0.00000     0.39930    0.00091     0.40021
      H   16    0.09710      0.00000     0.40076    0.00214     0.40290
      H   17    0.09993      0.00000     0.39763    0.00244     0.40007
      H   18    0.10396      0.00000     0.39474    0.00129     0.39604
      H   19    0.10392      0.00000     0.39459    0.00149     0.39608
      H   20    0.19364      0.00000     0.30305    0.00331     0.30636
      H   21    0.09669      0.00000     0.40107    0.00224     0.40331
      H   22    0.11203      0.00000     0.38404    0.00393     0.38797
      H   23    0.11223      0.00000     0.38639    0.00138     0.38777
      H   24    0.05202      0.00000     0.44612    0.00186     0.44798
 =======================================================================
   * Total *    0.00000     15.99588    33.82138    0.18274    50.00000

 Normal termination of Gaussian 16 at Wed Dec  9 18:01:57 2020.
