 Gaussian 16, Revision A.03,

 -----------------------------------------------------------
 # opt freq B3LYP/6-31G(d) empiricaldispersion=gd3bj scf=xqc
 -----------------------------------------------------------

 -------------------------------
 CID_112552440_JID_7637_neutraal
 -------------------------------
 Symbolic Z-matrix:
 Charge =  0 Multiplicity = 1

 SCF Done:  E(RB3LYP) =  -747.618093067     A.U. after   15 cycles
 SCF Done:  E(RB3LYP) =  -747.622144314     A.U. after   12 cycles
 SCF Done:  E(RB3LYP) =  -747.622908018     A.U. after   12 cycles
 SCF Done:  E(RB3LYP) =  -747.623320221     A.U. after   11 cycles
 SCF Done:  E(RB3LYP) =  -747.623378112     A.U. after   12 cycles
 SCF Done:  E(RB3LYP) =  -747.623443586     A.U. after   11 cycles
 SCF Done:  E(RB3LYP) =  -747.623478320     A.U. after   10 cycles
 SCF Done:  E(RB3LYP) =  -747.623500405     A.U. after   10 cycles
 SCF Done:  E(RB3LYP) =  -747.623507757     A.U. after   10 cycles
 SCF Done:  E(RB3LYP) =  -747.623513821     A.U. after    9 cycles
 SCF Done:  E(RB3LYP) =  -747.623526501     A.U. after    6 cycles
 SCF Done:  E(RB3LYP) =  -747.623526617     A.U. after    7 cycles
 SCF Done:  E(RB3LYP) =  -747.623526901     A.U. after    7 cycles
 SCF Done:  E(RB3LYP) =  -747.623527338     A.U. after    7 cycles
 SCF Done:  E(RB3LYP) =  -747.623527559     A.U. after    6 cycles
 Optimization completed.
    -- Stationary point found.
 Normal termination of Gaussian 16 at Mon Dec 14 16:53:21 2020.

 --------------------------------------------------------------------
 #N Geom=AllCheck Guess=TCheck SCRF=Check GenChk RB3LYP/6-31G(d) Freq
 --------------------------------------------------------------------

 Structure from the checkpoint file:  "JID_7637.chk"
 -------------------------------
 CID_112552440_JID_7637_neutraal
 -------------------------------
 Charge =  0 Multiplicity = 1

 SCF Done:  E(RB3LYP) =  -747.623527559     A.U. after    1 cycles

  Exact polarizability: 182.943   3.386 176.247  -2.476   7.684 110.212
 Approx polarizability: 255.767   2.103 251.454  -3.043  15.859 165.965

                      1                      2                      3
                      A                      A                      A
 Frequencies --     24.2089                41.2627                61.7101
 Red. masses --      3.4689                 3.0436                 3.6070
 Frc consts  --      0.0012                 0.0031                 0.0081
 IR Inten    --      5.0491                 1.0412                 0.0801

                      4                      5                      6
                      A                      A                      A
 Frequencies --     80.7620                89.8481               104.3473
 Red. masses --      2.0301                 2.0946                 2.2078
 Frc consts  --      0.0078                 0.0100                 0.0142
 IR Inten    --      1.3539                 0.1878                 0.0787

                      7                      8                      9
                      A                      A                      A
 Frequencies --    129.6680               147.0122               154.0355
 Red. masses --      2.7010                 3.2289                 2.1071
 Frc consts  --      0.0268                 0.0411                 0.0295
 IR Inten    --      2.2337                 5.2189                 1.1196

                     10                     11                     12
                      A                      A                      A
 Frequencies --    171.4029               205.9724               220.5300
 Red. masses --      2.8839                 2.3626                 2.2330
 Frc consts  --      0.0499                 0.0591                 0.0640
 IR Inten    --      1.3533                 0.3762                 1.0087

                     13                     14                     15
                      A                      A                      A
 Frequencies --    243.2079               256.9992               265.2462
 Red. masses --      2.1271                 1.2706                 2.2517
 Frc consts  --      0.0741                 0.0494                 0.0933
 IR Inten    --      1.4354                 0.7164                 0.9289

                     16                     17                     18
                      A                      A                      A
 Frequencies --    285.7369               329.3204               365.9130
 Red. masses --      2.2630                 2.5799                 2.5769
 Frc consts  --      0.1089                 0.1649                 0.2033
 IR Inten    --      0.7133                 0.8785                 2.1472

                     19                     20                     21
                      A                      A                      A
 Frequencies --    392.3398               395.6524               434.0260
 Red. masses --      4.2445                 2.8255                 2.9348
 Frc consts  --      0.3849                 0.2606                 0.3257
 IR Inten    --      4.1016                 1.2418                 7.8450

                     22                     23                     24
                      A                      A                      A
 Frequencies --    468.0299               507.8920               526.7035
 Red. masses --      2.6302                 2.9775                 2.3722
 Frc consts  --      0.3395                 0.4525                 0.3877
 IR Inten    --      4.6808                 5.1057                10.4356

                     25                     26                     27
                      A                      A                      A
 Frequencies --    537.2277               584.0199               631.1333
 Red. masses --      1.5376                 3.7079                 3.9945
 Frc consts  --      0.2615                 0.7451                 0.9375
 IR Inten    --     46.1655                 3.2717                18.3790

                     28                     29                     30
                      A                      A                      A
 Frequencies --    669.1756               693.8469               713.3152
 Red. masses --      3.6399                 6.4429                 4.5375
 Frc consts  --      0.9603                 1.8275                 1.3603
 IR Inten    --     10.9809                19.5421                 8.6401

                     31                     32                     33
                      A                      A                      A
 Frequencies --    729.3851               779.9291               795.2246
 Red. masses --      3.2254                 2.1900                 9.8864
 Frc consts  --      1.0110                 0.7849                 3.6836
 IR Inten    --      2.3443                 2.0012                 8.8744

                     34                     35                     36
                      A                      A                      A
 Frequencies --    836.6691               852.3604               869.3272
 Red. masses --      1.6650                 2.4334                 2.4308
 Frc consts  --      0.6867                 1.0416                 1.0823
 IR Inten    --      7.3706                 1.3327                 0.4306

                     37                     38                     39
                      A                      A                      A
 Frequencies --    885.9510               914.9899               925.1936
 Red. masses --      1.6639                 1.5791                 1.8145
 Frc consts  --      0.7695                 0.7789                 0.9151
 IR Inten    --      0.7138                 0.9029                 4.1970

                     40                     41                     42
                      A                      A                      A
 Frequencies --    996.2783              1000.0177              1023.7603
 Red. masses --      1.9123                 2.1738                 1.7972
 Frc consts  --      1.1183                 1.2808                 1.1098
 IR Inten    --      0.6694                20.1110                31.7078

                     43                     44                     45
                      A                      A                      A
 Frequencies --   1043.6529              1058.9467              1091.0137
 Red. masses --      1.9335                 1.7633                 2.2376
 Frc consts  --      1.2408                 1.1650                 1.5693
 IR Inten    --     12.3800                16.0538                24.1930

                     46                     47                     48
                      A                      A                      A
 Frequencies --   1103.0218              1109.5958              1122.3762
 Red. masses --      1.8457                 2.3254                 1.7384
 Frc consts  --      1.3231                 1.6868                 1.2902
 IR Inten    --     13.1094                16.4911                 2.8777

                     49                     50                     51
                      A                      A                      A
 Frequencies --   1131.4423              1163.3443              1164.8699
 Red. masses --      1.6027                 1.2614                 1.9814
 Frc consts  --      1.2088                 1.0059                 1.5841
 IR Inten    --      2.6541                 0.2115                 1.4511

                     52                     53                     54
                      A                      A                      A
 Frequencies --   1208.6738              1214.0557              1224.9036
 Red. masses --      2.1771                 1.7746                 1.6597
 Frc consts  --      1.8739                 1.5411                 1.4672
 IR Inten    --      1.7726                 5.8592                10.2535

                     55                     56                     57
                      A                      A                      A
 Frequencies --   1248.3668              1260.4425              1302.5648
 Red. masses --      1.6475                 1.8254                 2.2188
 Frc consts  --      1.5127                 1.7087                 2.2180
 IR Inten    --      7.5074                 0.0734                35.5641

                     58                     59                     60
                      A                      A                      A
 Frequencies --   1306.5703              1310.8033              1339.3054
 Red. masses --      1.6079                 1.2571                 1.5477
 Frc consts  --      1.6173                 1.2726                 1.6357
 IR Inten    --     28.7305                20.9758                 3.6362

                     61                     62                     63
                      A                      A                      A
 Frequencies --   1366.2407              1370.0227              1381.1654
 Red. masses --      1.5811                 1.3856                 1.4690
 Frc consts  --      1.7389                 1.5322                 1.6511
 IR Inten    --      9.3231                19.6524                18.3097

                     64                     65                     66
                      A                      A                      A
 Frequencies --   1382.6609              1393.0959              1406.9788
 Red. masses --      1.5837                 1.7426                 1.4296
 Frc consts  --      1.7839                 1.9925                 1.6674
 IR Inten    --     10.6766                 6.3904                 0.8439

                     67                     68                     69
                      A                      A                      A
 Frequencies --   1420.8323              1431.3089              1433.8747
 Red. masses --      1.6636                 1.7504                 2.1573
 Frc consts  --      1.9787                 2.1128                 2.6132
 IR Inten    --    104.6897                10.4878                79.4002

                     70                     71                     72
                      A                      A                      A
 Frequencies --   1448.4693              1467.2537              1476.2465
 Red. masses --      1.3359                 2.9301                 1.7092
 Frc consts  --      1.6514                 3.7165                 2.1947
 IR Inten    --      6.3968                53.1764                19.1711

                     73                     74                     75
                      A                      A                      A
 Frequencies --   1505.0218              1505.9256              1509.0300
 Red. masses --      1.1040                 1.3211                 1.0425
 Frc consts  --      1.4733                 1.7652                 1.3987
 IR Inten    --      8.5667                16.9363                 4.5429

                     76                     77                     78
                      A                      A                      A
 Frequencies --   1515.5366              1516.7975              1520.1148
 Red. masses --      1.0866                 1.0755                 1.0923
 Frc consts  --      1.4704                 1.4578                 1.4871
 IR Inten    --      4.1593                 0.6039                 6.4525

                     79                     80                     81
                      A                      A                      A
 Frequencies --   1523.8995              1528.5280              1534.8847
 Red. masses --      1.1113                 1.0439                 1.0779
 Frc consts  --      1.5206                 1.4370                 1.4962
 IR Inten    --      3.3757                 6.3729                 5.7014

                     82                     83                     84
                      A                      A                      A
 Frequencies --   1539.6005              1543.4393              1545.8183
 Red. masses --      1.1006                 1.1428                 1.0625
 Frc consts  --      1.5370                 1.6040                 1.4959
 IR Inten    --     62.5716                 0.0324                17.9539

                     85                     86                     87
                      A                      A                      A
 Frequencies --   1583.4734              1599.7863              1726.6477
 Red. masses --      6.3363                 8.1039                 6.5713
 Frc consts  --      9.3607                12.2199                11.5427
 IR Inten    --     46.1102               108.5281               287.6762

                     88                     89                     90
                      A                      A                      A
 Frequencies --   3033.2469              3037.1249              3038.7236
 Red. masses --      1.0617                 1.0664                 1.0690
 Frc consts  --      5.7553                 5.7955                 5.8160
 IR Inten    --     25.4476                17.8957                35.4103

                     91                     92                     93
                      A                      A                      A
 Frequencies --   3048.3164              3049.1392              3052.2324
 Red. masses --      1.0569                 1.0495                 1.0381
 Frc consts  --      5.7862                 5.7488                 5.6979
 IR Inten    --     36.8474                31.3670                18.6771

                     94                     95                     96
                      A                      A                      A
 Frequencies --   3062.8307              3067.0964              3069.9970
 Red. masses --      1.0610                 1.0320                 1.0987
 Frc consts  --      5.8644                 5.7199                 6.1013
 IR Inten    --     24.7647                46.8144                50.9437

                     97                     98                     99
                      A                      A                      A
 Frequencies --   3092.5669              3094.4240              3102.7595
 Red. masses --      1.0927                 1.0907                 1.1002
 Frc consts  --      6.1574                 6.1533                 6.2406
 IR Inten    --     22.3556                23.3820                40.8852

                    100                    101                    102
                      A                      A                      A
 Frequencies --   3107.5611              3112.9989              3115.4888
 Red. masses --      1.0984                 1.0982                 1.1004
 Frc consts  --      6.2497                 6.2704                 6.2930
 IR Inten    --     15.3442                 4.2744                47.0255

                    103                    104                    105
                      A                      A                      A
 Frequencies --   3116.8512              3133.2573              3136.2158
 Red. masses --      1.1013                 1.1017                 1.1053
 Frc consts  --      6.3035                 6.3724                 6.4055
 IR Inten    --     59.9071                36.5388                21.6360

                    106                    107                    108
                      A                      A                      A
 Frequencies --   3142.0306              3163.5700              3615.6150
 Red. masses --      1.1053                 1.0989                 1.0761
 Frc consts  --      6.4292                 6.4799                 8.2880
 IR Inten    --     36.2395                 5.2701                35.4979

 - Thermochemistry -
 -------------------
 Temperature   298.150 Kelvin.  Pressure   1.00000 Atm.
 Atom     1 has atomic number  6 and mass  12.00000

 Molecular mass:   235.16846 amu.
 Principal axes and moments of inertia in atomic units:
                           1         2         3
     Eigenvalues --  3699.196893870.724136704.42500
           X            0.91746   0.39781   0.00162
           Y           -0.39781   0.91746  -0.00270
           Z           -0.00256   0.00184   1.00000
 This molecule is an asymmetric top.
 Rotational symmetry number  1.
 Warning -- assumption of classical behavior for rotation
           may cause significant error
 Rotational temperatures (Kelvin)      0.02341     0.02238     0.01292
 Rotational constants (GHZ):           0.48787     0.46625     0.26919
 Zero-point vibrational energy     881123.1 (Joules/Mol)
                                  210.59348 (Kcal/Mol)
 Warning -- explicit consideration of  26 degrees of freedom as
           vibrations may cause significant error
 Vibrational temperatures:     34.83    59.37    88.79   116.20   129.27
          (Kelvin)            150.13   186.56   211.52   221.62   246.61
                              296.35   317.29   349.92   369.76   381.63
                              411.11   473.82   526.47   564.49   569.26
                              624.47   673.39   730.74   757.81   772.95
                              840.27   908.06   962.79   998.29  1026.30
                             1049.42  1122.14  1144.15  1203.78  1226.36
                             1250.77  1274.69  1316.47  1331.15  1433.42
                             1438.80  1472.96  1501.58  1523.59  1569.73
                             1587.00  1596.46  1614.85  1627.89  1673.79
                             1675.99  1739.01  1746.76  1762.36  1796.12
                             1813.50  1874.10  1879.86  1885.95  1926.96
                             1965.72  1971.16  1987.19  1989.34  2004.35
                             2024.33  2044.26  2059.33  2063.03  2084.02
                             2111.05  2123.99  2165.39  2166.69  2171.16
                             2180.52  2182.33  2187.11  2192.55  2199.21
                             2208.36  2215.14  2220.66  2224.09  2278.27
                             2301.74  2484.26  4364.17  4369.75  4372.05
                             4385.85  4387.03  4391.48  4406.73  4412.87
                             4417.04  4449.51  4452.19  4464.18  4471.09
                             4478.91  4482.49  4484.45  4508.06  4512.32
                             4520.68  4551.67  5202.06

 Zero-point correction=                           0.335602 (Hartree/Particle)
 Thermal correction to Energy=                    0.353144
 Thermal correction to Enthalpy=                  0.354088
 Thermal correction to Gibbs Free Energy=         0.289513
 Sum of electronic and zero-point Energies=           -747.287925
 Sum of electronic and thermal Energies=              -747.270384
 Sum of electronic and thermal Enthalpies=            -747.269440
 Sum of electronic and thermal Free Energies=         -747.334014

                     E (Thermal)             CV                S
                      KCal/Mol        Cal/Mol-Kelvin    Cal/Mol-Kelvin
 Total                  221.601             65.510            135.909
 Electronic               0.000              0.000              0.000
 Translational            0.889              2.981             42.267
 Rotational               0.889              2.981             32.929
 Vibrational            219.823             59.548             60.713
 Vibration     1          0.593              1.985              6.255
 Vibration     2          0.594              1.981              5.198
 Vibration     3          0.597              1.973              4.402
 Vibration     4          0.600              1.962              3.872
 Vibration     5          0.602              1.956              3.663
 Vibration     6          0.605              1.946              3.371
 Vibration     7          0.612              1.924              2.951
 Vibration     8          0.617              1.906              2.711
 Vibration     9          0.620              1.898              2.622
 Vibration    10          0.626              1.878              2.420
 Vibration    11          0.640              1.831              2.079
 Vibration    12          0.647              1.810              1.955
 Vibration    13          0.659              1.774              1.779
 Vibration    14          0.667              1.751              1.682
 Vibration    15          0.671              1.737              1.627
 Vibration    16          0.684              1.700              1.499
 Vibration    17          0.712              1.617              1.263
 Vibration    18          0.739              1.542              1.097
 Vibration    19          0.760              1.487              0.991
 Vibration    20          0.762              1.479              0.979
 Vibration    21          0.795              1.396              0.846
 Vibration    22          0.825              1.321              0.743
 Vibration    23          0.863              1.233              0.639
 Vibration    24          0.882              1.191              0.595
 Vibration    25          0.892              1.168              0.571
 Vibration    26          0.941              1.066              0.478

 Optimization completed.
    -- Stationary point found.
 Normal termination of Gaussian 16 at Mon Dec 14 17:10:32 2020.

 ----------------------------------------------------------------------
 # B3LYP/6-311++G(d,p) empiricaldispersion=gd3bj scf=xqc pop=npa geom=c
 heck
 ----------------------------------------------------------------------

 ---------------------------------------
 CID_112552440_JID_7637_Energie_neutraal
 ---------------------------------------
 Structure from the checkpoint file:  "JID_7637.chk"
 Charge =  0 Multiplicity = 1

 SCF Done:  E(RB3LYP) =  -747.826583770     A.U. after   16 cycles
 Normal termination of Gaussian 16 at Mon Dec 14 17:20:00 2020.

 ----------------------------------------------------------------------
 # B3LYP/6-311++G(d,p) empiricaldispersion=gd3bj scf=xqc pop=npa geom=c
 heck
 ----------------------------------------------------------------------

 -------------------------------------
 CID_112552440_JID_7637_Energie_kation
 -------------------------------------
 Structure from the checkpoint file:  "JID_7637.chk"
 Charge =  1 Multiplicity = 2

 SCF Done:  E(UB3LYP) =  -747.543410504     A.U. after   27 cycles
 Normal termination of Gaussian 16 at Mon Dec 14 17:42:39 2020.
 Gaussian 16:  ES64L-G16RevA.03 25-Dec-2016

 ----------------------------------------------------------------------
 # B3LYP/6-311++G(d,p) empiricaldispersion=gd3bj scf=xqc pop=npa geom=c
 heck
 ----------------------------------------------------------------------

 ------------------------------------
 CID_112552440_JID_7637_Energie_anion
 ------------------------------------
 Structure from the checkpoint file:  "JID_7637.chk"
 Charge = -1 Multiplicity = 2

                         Standard orientation:
 ---------------------------------------------------------------------
 Center     Atomic      Atomic             Coordinates (Angstroms)
 Number     Number       Type             X           Y           Z
 ---------------------------------------------------------------------
      1          6           0        0.065656   -3.610747    1.465810
      2          6           0        1.220945   -3.409626    0.483478
      3          6           0        0.786319   -2.701476   -0.818989
      4          6           0        0.274458   -1.314037   -0.597975
      5          7           0       -0.990434   -0.974812   -0.471099
      6          6           0       -1.003744    0.388627   -0.224069
      7          6           0        0.291706    0.884909   -0.203350
      8          7           0        1.095864   -0.215518   -0.430341
      9          6           0        2.544657   -0.172603   -0.628050
     10          6           0        3.129762    1.109513   -0.037219
     11          6           0        2.310006    2.326154   -0.479890
     12          6           0        0.862742    2.251930    0.047167
     13          6           0        0.764872    2.619934    1.540715
     14          6           0       -2.211797    1.210682   -0.030171
     15          8           0       -2.120481    2.424863    0.201648
     16          7           0       -3.446229    0.629324   -0.109300
     17          6           0       -3.833115   -0.749830   -0.371638
     18          1           0       -0.394105   -2.654928    1.735435
     19          1           0        0.409890   -4.099928    2.383546
     20          1           0       -0.718253   -4.235793    1.022150
     21          1           0        2.018618   -2.829217    0.966992
     22          1           0        1.661483   -4.379664    0.219698
     23          1           0        1.623161   -2.690456   -1.529095
     24          1           0       -0.023343   -3.270605   -1.286993
     25          1           0        2.753952   -0.219345   -1.705167
     26          1           0        2.988435   -1.058475   -0.165769
     27          1           0        4.172732    1.197266   -0.360598
     28          1           0        3.137120    1.038623    1.056720
     29          1           0        2.779228    3.250230   -0.124995
     30          1           0        2.303307    2.371446   -1.577666
     31          1           0        0.236563    2.967124   -0.493636
     32          1           0        1.169956    3.624911    1.708578
     33          1           0       -0.283348    2.613457    1.844878
     34          1           0        1.320446    1.916003    2.170756
     35          1           0       -4.180951    1.307328    0.040637
     36          1           0       -3.438207   -1.434328    0.383372
     37          1           0       -4.925842   -0.791269   -0.356301
     38          1           0       -3.476197   -1.094821   -1.345453
 ---------------------------------------------------------------------

 SCF Done:  E(UB3LYP) =  -747.816157425     A.U. after   33 cycles
 SCF Done:  E(UB3LYP) =  -747.816157425     a.u. after    1 cycles

 The electronic state is 2-A.
 Alpha  occ. eigenvalues --  -18.98314 -14.27466 -14.24251 -14.19792 -10.17619
 Alpha  occ. eigenvalues --  -10.13151 -10.11764 -10.11415 -10.11233 -10.09270
 Alpha  occ. eigenvalues --  -10.08909 -10.08233 -10.07851 -10.07672 -10.07447
 Alpha  occ. eigenvalues --  -10.06272 -10.06197  -0.93725  -0.92377  -0.82449
 Alpha  occ. eigenvalues --   -0.79858  -0.72743  -0.70490  -0.68128  -0.64370
 Alpha  occ. eigenvalues --   -0.61774  -0.59992  -0.59454  -0.54444  -0.54043
 Alpha  occ. eigenvalues --   -0.51215  -0.48508  -0.47270  -0.43132  -0.41862
 Alpha  occ. eigenvalues --   -0.40101  -0.39035  -0.37539  -0.36523  -0.35967
 Alpha  occ. eigenvalues --   -0.35582  -0.35021  -0.34491  -0.33465  -0.32130
 Alpha  occ. eigenvalues --   -0.31878  -0.31236  -0.30236  -0.30039  -0.29286
 Alpha  occ. eigenvalues --   -0.28803  -0.27756  -0.26975  -0.25186  -0.25001
 Alpha  occ. eigenvalues --   -0.24789  -0.23933  -0.23599  -0.23055  -0.18093
 Alpha  occ. eigenvalues --   -0.17821  -0.16154  -0.15895  -0.12628   0.04132
 Alpha virt. eigenvalues --    0.05742   0.06513   0.07097   0.07815   0.07929
 Alpha virt. eigenvalues --    0.08598   0.08726   0.09060   0.09958   0.10280
 Alpha virt. eigenvalues --    0.10858   0.11111   0.11423   0.11711   0.11970

  Beta  occ. eigenvalues --  -18.98311 -14.27464 -14.24249 -14.19785 -10.17617
  Beta  occ. eigenvalues --  -10.13151 -10.11722 -10.11414 -10.11225 -10.09268
  Beta  occ. eigenvalues --  -10.08908 -10.08214 -10.07818 -10.07655 -10.07414
  Beta  occ. eigenvalues --  -10.06262 -10.06181  -0.93718  -0.92367  -0.82442
  Beta  occ. eigenvalues --   -0.79841  -0.72725  -0.70454  -0.68086  -0.64347
  Beta  occ. eigenvalues --   -0.61757  -0.59949  -0.59423  -0.54420  -0.53995
  Beta  occ. eigenvalues --   -0.51152  -0.48475  -0.47221  -0.43085  -0.41836
  Beta  occ. eigenvalues --   -0.40084  -0.39002  -0.37521  -0.36491  -0.35951
  Beta  occ. eigenvalues --   -0.35558  -0.34994  -0.34450  -0.33415  -0.32094
  Beta  occ. eigenvalues --   -0.31858  -0.31224  -0.30215  -0.30018  -0.29269
  Beta  occ. eigenvalues --   -0.28776  -0.27729  -0.26940  -0.25148  -0.24950
  Beta  occ. eigenvalues --   -0.24748  -0.23897  -0.23570  -0.23025  -0.18082
  Beta  occ. eigenvalues --   -0.17794  -0.16149  -0.15882  -0.12613
  Beta virt. eigenvalues --    0.05806   0.06709   0.07161   0.07430   0.08196
  Beta virt. eigenvalues --    0.08437   0.08878   0.09035   0.09409   0.10193
  Beta virt. eigenvalues --    0.10508   0.11086   0.11501   0.11717   0.11949

 Mulliken charges and spin densities:
               1          2
     1  C    0.207102  -0.831492
     2  C    0.208717  -0.255007
     3  C   -0.388207   0.212358
     4  C    0.173289  -0.571993
     5  N    0.002419   0.062884
     6  C    0.006645  -0.092733
     7  C    0.478081  -0.531563
     8  N    0.008979   0.224353
     9  C    0.851506  -1.150978
    10  C    0.979050  -1.464053
    11  C   -0.723845   0.213758
    12  C    0.144688   0.325423
    13  C   -0.088729  -0.575799
    14  C   -0.368941   0.336380
    15  O   -0.362103  -0.001483
    16  N   -0.354953   0.011883
    17  C   -0.124700  -0.224354
    18  H    0.060401   0.111675
    19  H   -0.156986   0.290978
    20  H    0.085334   0.030760
    21  H   -0.000629   0.106925
    22  H   -0.543855   0.724308
    23  H   -0.368469   0.542647
    24  H   -0.058639   0.252171
    25  H   -0.155153   0.371225
    26  H   -0.463731   0.628483
    27  H   -0.933538   1.149414
    28  H    0.127912   0.013085
    29  H   -0.182882   0.355350
    30  H   -0.069084   0.210428
    31  H    0.262199   0.011188
    32  H    0.046382   0.075150
    33  H    0.220750  -0.033272
    34  H   -0.009591   0.153387
    35  H    0.292603   0.033734
    36  H    0.137792   0.042797
    37  H   -0.052359   0.174556
    38  H    0.112544   0.067426
 Sum of Mulliken charges =  -1.00000   1.00000

 Dipole moment (field-independent basis, Debye):
    X=             -7.8840    Y=              2.3521    Z=              1.0055  Tot=              8.2886
 Quadrupole moment (field-independent basis, Debye-Ang):
   XX=           -175.3198   YY=           -170.2759   ZZ=           -137.0155
   XY=              9.8069   XZ=              7.0460   YZ=              0.2005

 Summary of Natural Population Analysis:

                                       Natural Population
                Natural  -----------------------------------------------
    Atom  No    Charge         Core      Valence    Rydberg      Total
 -----------------------------------------------------------------------
      C    1   -0.28610      0.99966     2.28194    0.00450     3.28610
      C    2   -0.18387      0.99964     2.17654    0.00770     3.18387
      C    3   -0.21361      0.99959     2.20419    0.00983     3.21361
      C    4    0.20361      0.99960     1.77910    0.01770     2.79639
      N    5   -0.25872      0.99968     2.74983    0.00921     3.75872
      C    6   -0.00768      0.99941     1.99634    0.01194     3.00768
      C    7    0.10994      0.99948     1.87815    0.01243     2.89006
      N    8   -0.20508      0.99958     2.69600    0.00950     3.70508
      C    9   -0.07959      0.99960     2.06901    0.01098     3.07959
      C   10   -0.19626      0.99963     2.18712    0.00951     3.19626
      C   11   -0.18526      0.99962     2.17627    0.00937     3.18526
      C   12   -0.13155      0.99957     2.12150    0.01048     3.13155
      C   13   -0.28001      0.99964     2.27576    0.00461     3.28001
      C   14    0.32696      0.99960     1.65230    0.02114     2.67304
      O   15   -0.34189      0.99989     3.33668    0.00532     4.34189
      N   16   -0.31266      0.99968     2.80439    0.00859     3.81266
      C   17   -0.17782      0.99965     2.17126    0.00691     3.17782
      H   18    0.10170      0.00000     0.39718    0.00112     0.39830
      H   19    0.09736      0.00000     0.40169    0.00096     0.40264
      H   20    0.09440      0.00000     0.40452    0.00109     0.40560
      H   21    0.09510      0.00000     0.40310    0.00181     0.40490
      H   22    0.09733      0.00000     0.40081    0.00186     0.40267
      H   23    0.10916      0.00000     0.38914    0.00171     0.39084
      H   24    0.10925      0.00000     0.38947    0.00128     0.39075
      H   25    0.09916      0.00000     0.39857    0.00227     0.40084
      H   26    0.10780      0.00000     0.38958    0.00262     0.39220
      H   27    0.11021      0.00000     0.38649    0.00331     0.38979
      H   28    0.09777      0.00000     0.40079    0.00144     0.40223
      H   29    0.10141      0.00000     0.39755    0.00104     0.39859
      H   30    0.09857      0.00000     0.40019    0.00124     0.40143
      H   31    0.11748      0.00000     0.38076    0.00176     0.38252
      H   32    0.09460      0.00000     0.40455    0.00085     0.40540
      H   33    0.11288      0.00000     0.38601    0.00110     0.38712
      H   34    0.09477      0.00000     0.40419    0.00104     0.40523
      H   35    0.18914      0.00000     0.30801    0.00285     0.31086
      H   36    0.10144      0.00000     0.39716    0.00141     0.39856
      H   37    0.08943      0.00000     0.40965    0.00092     0.41057
      H   38    0.10066      0.00000     0.39797    0.00137     0.39934
 =======================================================================
   * Total *    0.00000     16.99351    46.80373    0.20276    64.00000

 Normal termination of Gaussian 16 at Mon Dec 14 18:10:11 2020.
