 Gaussian 16, Revision A.03,

 -----------------------------------------------------------
 # opt freq B3LYP/6-31G(d) empiricaldispersion=gd3bj scf=xqc
 -----------------------------------------------------------

 -------------------------------
 CID_141889244_JID_3671_neutraal
 -------------------------------
 Symbolic Z-matrix:
 Charge =  0 Multiplicity = 1

 SCF Done:  E(RB3LYP) =  -503.831912200     A.U. after   14 cycles
 SCF Done:  E(RB3LYP) =  -503.833497682     A.U. after   11 cycles
 SCF Done:  E(RB3LYP) =  -503.833875706     A.U. after   10 cycles
 SCF Done:  E(RB3LYP) =  -503.834024991     A.U. after   11 cycles
 SCF Done:  E(RB3LYP) =  -503.834040417     A.U. after    9 cycles
 SCF Done:  E(RB3LYP) =  -503.834043955     A.U. after    8 cycles
 SCF Done:  E(RB3LYP) =  -503.834044773     A.U. after    7 cycles
 SCF Done:  E(RB3LYP) =  -503.834045362     A.U. after    8 cycles
 SCF Done:  E(RB3LYP) =  -503.834046673     A.U. after    8 cycles
 SCF Done:  E(RB3LYP) =  -503.834049342     A.U. after    9 cycles
 SCF Done:  E(RB3LYP) =  -503.834050417     A.U. after    9 cycles
 SCF Done:  E(RB3LYP) =  -503.834052403     A.U. after    9 cycles
 SCF Done:  E(RB3LYP) =  -503.834053488     A.U. after    9 cycles
 SCF Done:  E(RB3LYP) =  -503.834053673     A.U. after    8 cycles
 SCF Done:  E(RB3LYP) =  -503.834053685     A.U. after    7 cycles
 Optimization completed.
    -- Stationary point found.
 Normal termination of Gaussian 16 at Sun Dec 13 20:00:39 2020.

 --------------------------------------------------------------------
 #N Geom=AllCheck Guess=TCheck SCRF=Check GenChk RB3LYP/6-31G(d) Freq
 --------------------------------------------------------------------

 Structure from the checkpoint file:  "JID_3671.chk"
 -------------------------------
 CID_141889244_JID_3671_neutraal
 -------------------------------
 Charge =  0 Multiplicity = 1

 SCF Done:  E(RB3LYP) =  -503.834053685     A.U. after    1 cycles

  Exact polarizability: 192.956   5.334 130.453  -8.213   4.537  73.105
 Approx polarizability: 273.260  11.419 215.215 -17.014  10.409 113.612

                      1                      2                      3
                      A                      A                      A
 Frequencies --     20.1975                76.1693               146.0612
 Red. masses --      2.6888                 3.6504                 3.0421
 Frc consts  --      0.0006                 0.0125                 0.0382
 IR Inten    --      0.0399                 0.5711                 0.1460

                      4                      5                      6
                      A                      A                      A
 Frequencies --    149.7881               172.5795               254.3139
 Red. masses --      2.8305                 2.7935                 2.8459
 Frc consts  --      0.0374                 0.0490                 0.1084
 IR Inten    --      0.2972                 0.2174                 1.1129

                      7                      8                      9
                      A                      A                      A
 Frequencies --    325.5119               346.6922               394.2359
 Red. masses --      3.5666                 2.9244                 2.9112
 Frc consts  --      0.2227                 0.2071                 0.2666
 IR Inten    --      0.0178                 0.8083                 1.5231

                     10                     11                     12
                      A                      A                      A
 Frequencies --    442.0394               453.4885               488.1013
 Red. masses --      3.1788                 3.1479                 3.1823
 Frc consts  --      0.3660                 0.3814                 0.4467
 IR Inten    --      2.7462                 1.9009                 0.3117

                     13                     14                     15
                      A                      A                      A
 Frequencies --    511.2257               562.7282               623.1080
 Red. masses --      5.3329                 3.5389                 2.5541
 Frc consts  --      0.8212                 0.6603                 0.5843
 IR Inten    --      2.1228                 1.6951                 0.0337

                     16                     17                     18
                      A                      A                      A
 Frequencies --    670.5248               718.2552               727.0836
 Red. masses --      3.2579                 2.4933                 1.8156
 Frc consts  --      0.8630                 0.7578                 0.5655
 IR Inten    --      4.1494                 9.4238                 9.3399

                     19                     20                     21
                      A                      A                      A
 Frequencies --    770.2924               800.6863               807.8808
 Red. masses --      4.4092                 1.6466                 1.2847
 Frc consts  --      1.5414                 0.6220                 0.4940
 IR Inten    --      0.5562                10.2737                 1.1118

                     22                     23                     24
                      A                      A                      A
 Frequencies --    832.0110               843.9326               872.2980
 Red. masses --      1.2295                 1.5012                 2.4964
 Frc consts  --      0.5015                 0.6300                 1.1192
 IR Inten    --      6.0633                10.7608                 6.4151

                     25                     26                     27
                      A                      A                      A
 Frequencies --    903.0311               920.0258               935.7001
 Red. masses --      2.6894                 1.4724                 2.9464
 Frc consts  --      1.2921                 0.7343                 1.5199
 IR Inten    --      4.8439                11.7477                 3.7291

                     28                     29                     30
                      A                      A                      A
 Frequencies --    956.7057               960.8728               975.4823
 Red. masses --      1.3624                 3.2964                 3.1879
 Frc consts  --      0.7347                 1.7932                 1.7873
 IR Inten    --      0.5495                 1.4813                10.0280

                     31                     32                     33
                      A                      A                      A
 Frequencies --    990.0128              1036.3271              1057.6016
 Red. masses --      1.2819                 2.0449                 2.1208
 Frc consts  --      0.7403                 1.2940                 1.3976
 IR Inten    --      0.8855                 3.2587                 5.4683

                     34                     35                     36
                      A                      A                      A
 Frequencies --   1067.3354              1083.8125              1094.8897
 Red. masses --      1.3293                 1.3473                 1.5910
 Frc consts  --      0.8922                 0.9324                 1.1237
 IR Inten    --      8.5632                 1.1212                 1.0850

                     37                     38                     39
                      A                      A                      A
 Frequencies --   1135.5078              1158.3559              1177.8405
 Red. masses --      1.1158                 1.6806                 1.3653
 Frc consts  --      0.8477                 1.3286                 1.1160
 IR Inten    --      0.3918                 2.5874                 1.2126

                     40                     41                     42
                      A                      A                      A
 Frequencies --   1198.2876              1201.0472              1212.0921
 Red. masses --      1.3729                 1.1858                 1.3837
 Frc consts  --      1.1615                 1.0079                 1.1977
 IR Inten    --      0.8633                 0.3229                 1.0493

                     43                     44                     45
                      A                      A                      A
 Frequencies --   1228.2555              1238.8389              1255.3415
 Red. masses --      2.4220                 1.7731                 1.3739
 Frc consts  --      2.1528                 1.6033                 1.2756
 IR Inten    --      0.7223                 1.2375                 8.8788

                     46                     47                     48
                      A                      A                      A
 Frequencies --   1285.5982              1317.2473              1347.4032
 Red. masses --      1.8094                 1.3997                 3.0711
 Frc consts  --      1.7619                 1.4309                 3.2850
 IR Inten    --      7.6216                 5.4411                 3.1244

                     49                     50                     51
                      A                      A                      A
 Frequencies --   1379.7406              1384.2596              1411.9980
 Red. masses --      1.6702                 1.6612                 1.9286
 Frc consts  --      1.8733                 1.8755                 2.2655
 IR Inten    --      7.0987                 1.4030                16.0254

                     52                     53                     54
                      A                      A                      A
 Frequencies --   1428.6736              1470.0168              1494.0624
 Red. masses --      1.9547                 2.8323                 1.0887
 Frc consts  --      2.3507                 3.6061                 1.4319
 IR Inten    --      2.8110                 2.5724                 1.3771

                     55                     56                     57
                      A                      A                      A
 Frequencies --   1501.3322              1511.2452              1533.2087
 Red. masses --      1.1018                 1.1009                 1.3527
 Frc consts  --      1.4633                 1.4813                 1.8735
 IR Inten    --      2.7931                 1.6393                 3.0968

                     58                     59                     60
                      A                      A                      A
 Frequencies --   1547.5019              1623.4599              1668.1324
 Red. masses --      3.1043                 6.2160                 6.1378
 Frc consts  --      4.3801                 9.6527                10.0629
 IR Inten    --     14.6932                 1.8758                 6.0998

                     61                     62                     63
                      A                      A                      A
 Frequencies --   1709.3353              2996.9602              3011.3495
 Red. masses --      6.4522                 1.0731                 1.0679
 Frc consts  --     11.1073                 5.6790                 5.7057
 IR Inten    --      0.2909                26.4785                42.9695

                     64                     65                     66
                      A                      A                      A
 Frequencies --   3079.1066              3084.7721              3129.6147
 Red. masses --      1.0904                 1.0927                 1.0864
 Frc consts  --      6.0911                 6.1264                 6.2692
 IR Inten    --     43.5797                30.9532                16.4146

                     67                     68                     69
                      A                      A                      A
 Frequencies --   3146.9299              3151.6035              3167.4525
 Red. masses --      1.0503                 1.0595                 1.0854
 Frc consts  --      6.1284                 6.2005                 6.4159
 IR Inten    --     17.6013                11.6388                 2.6202

                     70                     71                     72
                      A                      A                      A
 Frequencies --   3172.4758              3177.0403              3190.9473
 Red. masses --      1.0877                 1.0895                 1.0968
 Frc consts  --      6.4498                 6.4793                 6.5799
 IR Inten    --     20.0746                 9.8297                43.1168

                     73                     74                     75
                      A                      A                      A
 Frequencies --   3196.2774              3222.4868              3236.0896
 Red. masses --      1.0933                 1.1198                 1.1165
 Frc consts  --      6.5810                 6.8514                 6.8887
 IR Inten    --     17.3666                 0.5103                32.8495

 - Thermochemistry -
 -------------------
 Temperature   298.150 Kelvin.  Pressure   1.00000 Atm.
 Atom     1 has atomic number  6 and mass  12.00000

 Molecular mass:   170.10955 amu.
 Principal axes and moments of inertia in atomic units:
                           1         2         3
     Eigenvalues --   864.222883916.631074567.79262
           X            0.99998  -0.00581  -0.00082
           Y            0.00581   0.99997   0.00599
           Z            0.00079  -0.00600   0.99998
 This molecule is an asymmetric top.
 Rotational symmetry number  1.
 Warning -- assumption of classical behavior for rotation
           may cause significant error
 Rotational temperatures (Kelvin)      0.10022     0.02211     0.01896
 Rotational constants (GHZ):           2.08828     0.46079     0.39510
 Zero-point vibrational energy     612325.9 (Joules/Mol)
                                  146.34939 (Kcal/Mol)
 Warning -- explicit consideration of  14 degrees of freedom as
           vibrations may cause significant error
 Vibrational temperatures:     29.06   109.59   210.15   215.51   248.30
          (Kelvin)            365.90   468.34   498.81   567.22   636.00
                              652.47   702.27   735.54   809.64   896.51
                              964.74  1033.41  1046.11  1108.28  1152.01
                             1162.36  1197.08  1214.23  1255.04  1299.26
                             1323.71  1346.26  1376.49  1382.48  1403.50
                             1424.41  1491.04  1521.65  1535.66  1559.36
                             1575.30  1633.74  1666.62  1694.65  1724.07
                             1728.04  1743.93  1767.19  1782.41  1806.16
                             1849.69  1895.23  1938.61  1985.14  1991.64
                             2031.55  2055.54  2115.03  2149.62  2160.08
                             2174.34  2205.95  2226.51  2335.80  2400.07
                             2459.35  4311.96  4332.66  4430.15  4438.30
                             4502.82  4527.73  4534.45  4557.26  4564.49
                             4571.05  4591.06  4598.73  4636.44  4656.01

 Zero-point correction=                           0.233223 (Hartree/Particle)
 Thermal correction to Energy=                    0.243971
 Thermal correction to Enthalpy=                  0.244915
 Thermal correction to Gibbs Free Energy=         0.195664
 Sum of electronic and zero-point Energies=           -503.600831
 Sum of electronic and thermal Energies=              -503.590082
 Sum of electronic and thermal Enthalpies=            -503.589138
 Sum of electronic and thermal Free Energies=         -503.638390

                     E (Thermal)             CV                S
                      KCal/Mol        Cal/Mol-Kelvin    Cal/Mol-Kelvin
 Total                  153.094             43.406            103.659
 Electronic               0.000              0.000              0.000
 Translational            0.889              2.981             41.302
 Rotational               0.889              2.981             31.114
 Vibrational            151.317             37.444             31.243
 Vibration     1          0.593              1.986              6.615
 Vibration     2          0.599              1.965              3.987
 Vibration     3          0.617              1.907              2.723
 Vibration     4          0.618              1.903              2.675
 Vibration     5          0.626              1.876              2.407
 Vibration     6          0.665              1.756              1.700
 Vibration     7          0.710              1.624              1.282
 Vibration     8          0.725              1.582              1.181
 Vibration     9          0.761              1.482              0.984
 Vibration    10          0.802              1.378              0.820
 Vibration    11          0.812              1.353              0.785
 Vibration    12          0.844              1.276              0.689
 Vibration    13          0.866              1.225              0.631
 Vibration    14          0.918              1.112              0.518

 Optimization completed.
    -- Stationary point found.
 Normal termination of Gaussian 16 at Sun Dec 13 20:07:10 2020.

 ----------------------------------------------------------------------
 # B3LYP/6-311++G(d,p) empiricaldispersion=gd3bj scf=xqc pop=npa geom=c
 heck
 ----------------------------------------------------------------------

 ---------------------------------------
 CID_141889244_JID_3671_Energie_neutraal
 ---------------------------------------
 Structure from the checkpoint file:  "JID_3671.chk"
 Charge =  0 Multiplicity = 1

 SCF Done:  E(RB3LYP) =  -503.960779278     A.U. after   14 cycles
 Normal termination of Gaussian 16 at Sun Dec 13 20:09:54 2020.

 ----------------------------------------------------------------------
 # B3LYP/6-311++G(d,p) empiricaldispersion=gd3bj scf=xqc pop=npa geom=c
 heck
 ----------------------------------------------------------------------

 -------------------------------------
 CID_141889244_JID_3671_Energie_kation
 -------------------------------------
 Structure from the checkpoint file:  "JID_3671.chk"
 Charge =  1 Multiplicity = 2

 SCF Done:  E(UB3LYP) =  -503.679818127     A.U. after   21 cycles
 Normal termination of Gaussian 16 at Sun Dec 13 20:15:46 2020.
 Gaussian 16:  ES64L-G16RevA.03 25-Dec-2016

 ----------------------------------------------------------------------
 # B3LYP/6-311++G(d,p) empiricaldispersion=gd3bj scf=xqc pop=npa geom=c
 heck
 ----------------------------------------------------------------------

 ------------------------------------
 CID_141889244_JID_3671_Energie_anion
 ------------------------------------
 Structure from the checkpoint file:  "JID_3671.chk"
 Charge = -1 Multiplicity = 2

                         Standard orientation:
 ---------------------------------------------------------------------
 Center     Atomic      Atomic             Coordinates (Angstroms)
 Number     Number       Type             X           Y           Z
 ---------------------------------------------------------------------
      1          6           0       -3.557443    0.017273    0.616278
      2          6           0       -2.746710    1.116638   -0.084823
      3          6           0       -1.265595    0.809425   -0.110332
      4          6           0       -0.861539   -0.535319   -0.259992
      5          6           0       -1.882431   -1.587537   -0.267012
      6          6           0       -3.139275   -1.352118    0.139188
      7          6           0        0.500367   -0.835958   -0.369821
      8          6           0        1.477812    0.163343   -0.320770
      9          6           0        1.063806    1.489346   -0.158470
     10          6           0       -0.293294    1.804505   -0.058285
     11          6           0        2.928628   -0.179083   -0.466283
     12          6           0        3.936104    0.290228    0.555126
     13          6           0        3.580331   -1.173925    0.464203
     14          1           0       -4.628004    0.177599    0.444910
     15          1           0       -3.408887    0.077985    1.706928
     16          1           0       -2.929196    2.090132    0.383690
     17          1           0       -3.101168    1.196263   -1.124416
     18          1           0       -1.573084   -2.586545   -0.567173
     19          1           0       -3.865118   -2.160920    0.177848
     20          1           0        0.809084   -1.873139   -0.480947
     21          1           0        1.810692    2.277054   -0.108905
     22          1           0       -0.598416    2.841799    0.061611
     23          1           0        3.284449   -0.202467   -1.496408
     24          1           0        4.914892    0.608945    0.208283
     25          1           0        3.559615    0.846303    1.409134
     26          1           0        2.966216   -1.592021    1.256886
     27          1           0        4.314359   -1.861892    0.054513
 ---------------------------------------------------------------------

 SCF Done:  E(UB3LYP) =  -503.945981411     A.U. after   33 cycles
 SCF Done:  E(UB3LYP) =  -503.945981411     a.u. after    1 cycles

 The electronic state is 2-A.
 Alpha  occ. eigenvalues --  -10.06213 -10.05829 -10.05794 -10.05679 -10.05646
 Alpha  occ. eigenvalues --  -10.04842 -10.04744 -10.04583 -10.04516 -10.04403
 Alpha  occ. eigenvalues --  -10.04269 -10.04051 -10.03715  -0.75359  -0.73593
 Alpha  occ. eigenvalues --   -0.68983  -0.64542  -0.61759  -0.59607  -0.52345
 Alpha  occ. eigenvalues --   -0.49605  -0.48596  -0.47436  -0.45661  -0.40131
 Alpha  occ. eigenvalues --   -0.38458  -0.37411  -0.36178  -0.34638  -0.32344
 Alpha  occ. eigenvalues --   -0.32006  -0.30253  -0.28449  -0.27969  -0.26630
 Alpha  occ. eigenvalues --   -0.25306  -0.24879  -0.24286  -0.23375  -0.20676
 Alpha  occ. eigenvalues --   -0.20128  -0.19130  -0.17414  -0.16774  -0.12105
 Alpha  occ. eigenvalues --   -0.09626   0.05246
 Alpha virt. eigenvalues --    0.07054   0.07439   0.08557   0.09236   0.09431
 Alpha virt. eigenvalues --    0.09551   0.10266   0.11082   0.11213   0.11438
 Alpha virt. eigenvalues --    0.12033   0.12761   0.13220   0.14223   0.14694

  Beta  occ. eigenvalues --  -10.06211 -10.05829 -10.05797 -10.05657 -10.05623
  Beta  occ. eigenvalues --  -10.04793 -10.04780 -10.04491 -10.04416 -10.04367
  Beta  occ. eigenvalues --  -10.04248 -10.03831 -10.03559  -0.75246  -0.73433
  Beta  occ. eigenvalues --   -0.68801  -0.64363  -0.61482  -0.59459  -0.52267
  Beta  occ. eigenvalues --   -0.49423  -0.48440  -0.47332  -0.45521  -0.39963
  Beta  occ. eigenvalues --   -0.38358  -0.37301  -0.36064  -0.34480  -0.32234
  Beta  occ. eigenvalues --   -0.31913  -0.30172  -0.28325  -0.27913  -0.26366
  Beta  occ. eigenvalues --   -0.25267  -0.24739  -0.24071  -0.23129  -0.20563
  Beta  occ. eigenvalues --   -0.20021  -0.18943  -0.17383  -0.16186  -0.11732
  Beta  occ. eigenvalues --   -0.08677
  Beta virt. eigenvalues --    0.07391   0.08118   0.08548   0.09085   0.09463
  Beta virt. eigenvalues --    0.09663   0.09780   0.10437   0.11167   0.11396
  Beta virt. eigenvalues --    0.11656   0.12097   0.12899   0.13220   0.14341

 Mulliken charges and spin densities:
               1          2
     1  C    0.172070  -0.761473
     2  C   -0.530228   0.070902
     3  C   -0.127039  -0.062925
     4  C    0.484938   0.226758
     5  C   -0.498788   0.206163
     6  C   -0.329630   0.487410
     7  C   -0.000449  -0.101298
     8  C    1.840895  -1.321945
     9  C   -0.807456   0.463891
    10  C   -0.504073   0.192177
    11  C   -1.207764   1.254006
    12  C    0.767617  -1.257653
    13  C    0.510583  -1.009757
    14  H   -0.103227   0.230922
    15  H    0.085421   0.039513
    16  H    0.071962   0.034748
    17  H    0.091273   0.038625
    18  H    0.074629   0.024066
    19  H   -0.135931   0.276246
    20  H    0.082349   0.037089
    21  H   -0.039666   0.175166
    22  H    0.087584   0.021780
    23  H   -0.404590   0.631187
    24  H   -0.488066   0.632463
    25  H    0.151575  -0.035072
    26  H    0.070109   0.051637
    27  H   -0.314101   0.455373
 Sum of Mulliken charges =  -1.00000   1.00000

 Dipole moment (field-independent basis, Debye):
    X=             -4.5911    Y=              1.3181    Z=              1.6599  Tot=              5.0567
 Quadrupole moment (field-independent basis, Debye-Ang):
   XX=           -169.2835   YY=            -98.2868   ZZ=            -98.9639
   XY=             -1.2681   XZ=              7.1767   YZ=              2.4397

 Summary of Natural Population Analysis:

                                       Natural Population
                Natural  -----------------------------------------------
    Atom  No    Charge         Core      Valence    Rydberg      Total
 -----------------------------------------------------------------------
      C    1   -0.20740      0.99963     2.19753    0.01025     3.20740
      C    2   -0.19107      0.99961     2.18354    0.00792     3.19107
      C    3    0.01537      0.99948     1.97714    0.00801     2.98463
      C    4   -0.02143      0.99947     2.01377    0.00820     3.02143
      C    5   -0.10706      0.99951     2.09891    0.00864     3.10706
      C    6   -0.04853      0.99955     2.03752    0.01146     3.04853
      C    7   -0.09048      0.99949     2.08353    0.00746     3.09048
      C    8   -0.01809      0.99950     2.00826    0.01034     3.01809
      C    9   -0.07264      0.99952     2.06362    0.00950     3.07264
      C   10   -0.11219      0.99952     2.10451    0.00816     3.11219
      C   11   -0.12080      0.99957     2.10835    0.01287     3.12080
      C   12   -0.19608      0.99962     2.18817    0.00829     3.19608
      C   13   -0.19668      0.99962     2.18897    0.00809     3.19668
      H   14    0.09875      0.00000     0.39949    0.00176     0.40125
      H   15    0.09798      0.00000     0.40080    0.00122     0.40202
      H   16    0.09606      0.00000     0.40273    0.00122     0.40394
      H   17    0.09857      0.00000     0.40001    0.00142     0.40143
      H   18    0.09335      0.00000     0.40529    0.00136     0.40665
      H   19    0.08906      0.00000     0.41004    0.00090     0.41094
      H   20    0.09501      0.00000     0.40362    0.00137     0.40499
      H   21    0.09509      0.00000     0.40396    0.00094     0.40491
      H   22    0.09103      0.00000     0.40727    0.00170     0.40897
      H   23    0.10872      0.00000     0.38879    0.00249     0.39128
      H   24    0.10201      0.00000     0.39599    0.00199     0.39799
      H   25    0.09958      0.00000     0.39941    0.00102     0.40042
      H   26    0.10035      0.00000     0.39873    0.00092     0.39965
      H   27    0.10152      0.00000     0.39679    0.00168     0.39848
 =======================================================================
   * Total *   -0.00000     12.99409    32.86674    0.13916    46.00000

 Normal termination of Gaussian 16 at Sun Dec 13 20:25:15 2020.
