 Gaussian 16, Revision A.03,

 -----------------------------------------------------------
 # opt freq B3LYP/6-31G(d) empiricaldispersion=gd3bj scf=xqc
 -----------------------------------------------------------

 ------------------------------
 CID_67487855_JID_5015_neutraal
 ------------------------------
 Symbolic Z-matrix:
 Charge =  0 Multiplicity = 1

 SCF Done:  E(RB3LYP) =  -666.549440061     A.U. after   16 cycles
 SCF Done:  E(RB3LYP) =  -666.558407956     A.U. after   13 cycles
 SCF Done:  E(RB3LYP) =  -666.559297133     A.U. after   12 cycles
 SCF Done:  E(RB3LYP) =  -666.559976524     A.U. after   13 cycles
 SCF Done:  E(RB3LYP) =  -666.560263299     A.U. after   11 cycles
 SCF Done:  E(RB3LYP) =  -666.560318940     A.U. after   11 cycles
 SCF Done:  E(RB3LYP) =  -666.560330787     A.U. after    9 cycles
 SCF Done:  E(RB3LYP) =  -666.560336078     A.U. after    9 cycles
 SCF Done:  E(RB3LYP) =  -666.560339604     A.U. after    9 cycles
 SCF Done:  E(RB3LYP) =  -666.560340756     A.U. after    8 cycles
 SCF Done:  E(RB3LYP) =  -666.560984612     A.U. after   10 cycles
 SCF Done:  E(RB3LYP) =  -666.560984409     A.U. after    9 cycles
 SCF Done:  E(RB3LYP) =  -666.560986750     A.U. after    9 cycles
 SCF Done:  E(RB3LYP) =  -666.560988643     A.U. after    9 cycles
 SCF Done:  E(RB3LYP) =  -666.560989347     A.U. after    9 cycles
 Optimization completed.
    -- Stationary point found.
 Normal termination of Gaussian 16 at Thu Dec 10 15:28:19 2020.

 --------------------------------------------------------------------
 #N Geom=AllCheck Guess=TCheck SCRF=Check GenChk RB3LYP/6-31G(d) Freq
 --------------------------------------------------------------------

 Structure from the checkpoint file:  "JID_5015.chk"
 ------------------------------
 CID_67487855_JID_5015_neutraal
 ------------------------------
 Charge =  0 Multiplicity = 1

 SCF Done:  E(RB3LYP) =  -666.560989347     A.U. after    1 cycles

  Exact polarizability: 206.089   0.320 161.322   0.312   0.050  61.234
 Approx polarizability: 330.766  13.218 269.759   4.926   3.052  95.524

                      1                      2                      3
                      A                      A                      A
 Frequencies --     47.6256                86.3908                91.7508
 Red. masses --      3.2735                 3.7319                 3.0169
 Frc consts  --      0.0044                 0.0164                 0.0150
 IR Inten    --     14.0896                 1.6906                 0.2531

                      4                      5                      6
                      A                      A                      A
 Frequencies --    116.1534               144.3264               184.9724
 Red. masses --      1.3124                 1.9560                 2.9845
 Frc consts  --      0.0104                 0.0240                 0.0602
 IR Inten    --      4.4020                 4.8160                 2.7907

                      7                      8                      9
                      A                      A                      A
 Frequencies --    192.7187               234.9265               256.0962
 Red. masses --      1.9688                 2.5588                 1.3108
 Frc consts  --      0.0431                 0.0832                 0.0507
 IR Inten    --     11.2633                 8.5963                 6.8380

                     10                     11                     12
                      A                      A                      A
 Frequencies --    288.3758               296.0051               319.3136
 Red. masses --      4.2730                 3.2900                 3.3188
 Frc consts  --      0.2094                 0.1698                 0.1994
 IR Inten    --      0.1074                 6.9109                 1.6559

                     13                     14                     15
                      A                      A                      A
 Frequencies --    338.0408               347.5642               370.6195
 Red. masses --      3.0225                 4.6703                 5.0585
 Frc consts  --      0.2035                 0.3324                 0.4094
 IR Inten    --      3.5981                 3.0613                 0.7348

                     16                     17                     18
                      A                      A                      A
 Frequencies --    423.3669               505.7880               512.7093
 Red. masses --      5.3962                 4.6184                 3.7397
 Frc consts  --      0.5699                 0.6961                 0.5792
 IR Inten    --      1.5494                 5.6482                 3.7603

                     19                     20                     21
                      A                      A                      A
 Frequencies --    562.8647               577.7627               589.4802
 Red. masses --      3.7441                 1.6255                 3.5336
 Frc consts  --      0.6989                 0.3197                 0.7234
 IR Inten    --      6.5031                33.3692                 2.8462

                     22                     23                     24
                      A                      A                      A
 Frequencies --    604.8976               623.5124               647.2744
 Red. masses --      3.8589                 1.5006                 3.8889
 Frc consts  --      0.8319                 0.3437                 0.9600
 IR Inten    --     28.2596               123.5032                17.0025

                     25                     26                     27
                      A                      A                      A
 Frequencies --    659.9579               682.0419               761.6644
 Red. masses --      2.6920                 4.3746                 1.6780
 Frc consts  --      0.6908                 1.1990                 0.5735
 IR Inten    --      0.7594                 8.2253                39.6028

                     28                     29                     30
                      A                      A                      A
 Frequencies --    777.7281               790.7476               794.3219
 Red. masses --      6.1884                 2.7788                 3.8640
 Frc consts  --      2.2054                 1.0237                 1.4364
 IR Inten    --     53.8088                12.9902                12.7972

                     31                     32                     33
                      A                      A                      A
 Frequencies --    826.4036               861.7854               869.8015
 Red. masses --      1.6781                 2.5037                 1.3437
 Frc consts  --      0.6752                 1.0955                 0.5990
 IR Inten    --    170.3132                82.9152                 0.1472

                     34                     35                     36
                      A                      A                      A
 Frequencies --    951.8535               961.6524              1031.6717
 Red. masses --      1.2580                 2.4514                 2.3536
 Frc consts  --      0.6716                 1.3357                 1.4760
 IR Inten    --      0.3897                 4.1361                 2.9646

                     37                     38                     39
                      A                      A                      A
 Frequencies --   1074.7302              1100.1278              1108.2035
 Red. masses --      1.4992                 2.3120                 1.6957
 Frc consts  --      1.0202                 1.6487                 1.2270
 IR Inten    --      3.2133                56.5808                 5.4808

                     40                     41                     42
                      A                      A                      A
 Frequencies --   1133.6640              1165.5929              1169.1048
 Red. masses --      2.6655                 1.3847                 1.5300
 Frc consts  --      2.0184                 1.1084                 1.2321
 IR Inten    --     11.8607                28.2175                12.8916

                     43                     44                     45
                      A                      A                      A
 Frequencies --   1190.3627              1206.1986              1220.6057
 Red. masses --      1.7206                 1.5660                 2.2860
 Frc consts  --      1.4365                 1.3424                 2.0067
 IR Inten    --      2.6253                 1.7650                 6.9679

                     46                     47                     48
                      A                      A                      A
 Frequencies --   1288.8708              1336.0352              1383.2997
 Red. masses --      1.8886                 3.9925                 3.0037
 Frc consts  --      1.8484                 4.1989                 3.3864
 IR Inten    --      8.0657               200.3000                68.1801

                     49                     50                     51
                      A                      A                      A
 Frequencies --   1411.2910              1419.4068              1439.8846
 Red. masses --      2.4835                 5.9278                 1.2867
 Frc consts  --      2.9144                 7.0366                 1.5718
 IR Inten    --     21.0120                16.4990                 0.0558

                     52                     53                     54
                      A                      A                      A
 Frequencies --   1460.0931              1490.0694              1501.3421
 Red. masses --      1.7516                 2.9352                 2.6372
 Frc consts  --      2.2001                 3.8397                 3.5023
 IR Inten    --      5.9845               157.5531                98.9625

                     55                     56                     57
                      A                      A                      A
 Frequencies --   1520.2843              1534.0887              1539.3244
 Red. masses --      1.0474                 1.1538                 1.0726
 Frc consts  --      1.4263                 1.5999                 1.4974
 IR Inten    --      7.7916                19.3820                 6.8733

                     58                     59                     60
                      A                      A                      A
 Frequencies --   1542.2877              1553.5371              1589.5283
 Red. masses --      1.1734                 2.9889                 5.3873
 Frc consts  --      1.6445                 4.2502                 8.0197
 IR Inten    --     11.6920                22.8929                39.2358

                     61                     62                     63
                      A                      A                      A
 Frequencies --   1635.2463              1648.6643              1664.2063
 Red. masses --      6.8843                 1.2418                 6.0223
 Frc consts  --     10.8461                 1.9888                 9.8271
 IR Inten    --     30.1776               168.8761                36.7938

                     64                     65                     66
                      A                      A                      A
 Frequencies --   1691.5874              1754.0013              3027.7136
 Red. masses --      1.1397                 7.1860                 1.0430
 Frc consts  --      1.9214                13.0256                 5.6332
 IR Inten    --     69.3384               424.1342                31.7227

                     67                     68                     69
                      A                      A                      A
 Frequencies --   3042.4371              3081.7521              3101.3107
 Red. masses --      1.0424                 1.0966                 1.1012
 Frc consts  --      5.6852                 6.1362                 6.2401
 IR Inten    --     69.0767                19.8180                28.8013

                     70                     71                     72
                      A                      A                      A
 Frequencies --   3127.0142              3181.3894              3198.1502
 Red. masses --      1.0982                 1.0870                 1.0907
 Frc consts  --      6.3268                 6.4822                 6.5728
 IR Inten    --     19.6729                12.0954                22.4858

                     73                     74                     75
                      A                      A                      A
 Frequencies --   3210.3366              3217.4674              3513.3527
 Red. masses --      1.0975                 1.0946                 1.0543
 Frc consts  --      6.6644                 6.6760                 7.6675
 IR Inten    --      9.2747                16.8925                10.5332

                     76                     77                     78
                      A                      A                      A
 Frequencies --   3525.0695              3638.6022              3649.8069
 Red. masses --      1.0485                 1.0902                 1.0998
 Frc consts  --      7.6762                 8.5042                 8.6322
 IR Inten    --     21.2338                30.4660                31.0157

 - Thermochemistry -
 -------------------
 Temperature   298.150 Kelvin.  Pressure   1.00000 Atm.
 Atom     1 has atomic number  6 and mass  12.00000

 Molecular mass:   203.10586 amu.
 Principal axes and moments of inertia in atomic units:
                           1         2         3
     Eigenvalues --  1722.699773680.652875353.75221
           X            0.99992   0.01209  -0.00328
           Y           -0.01210   0.99992  -0.00283
           Z            0.00324   0.00287   0.99999
 This molecule is an asymmetric top.
 Rotational symmetry number  1.
 Warning -- assumption of classical behavior for rotation
           may cause significant error
 Rotational temperatures (Kelvin)      0.05028     0.02353     0.01618
 Rotational constants (GHZ):           1.04762     0.49033     0.33710
 Zero-point vibrational energy     607811.9 (Joules/Mol)
                                  145.27052 (Kcal/Mol)
 Warning -- explicit consideration of  22 degrees of freedom as
           vibrations may cause significant error
 Vibrational temperatures:     68.52   124.30   132.01   167.12   207.65
          (Kelvin)            266.13   277.28   338.01   368.47   414.91
                              425.89   459.42   486.37   500.07   533.24
                              609.13   727.72   737.67   809.84   831.27
                              848.13   870.31   897.10   931.28   949.53
                              981.31  1095.87  1118.98  1137.71  1142.85
                             1189.01  1239.92  1251.45  1369.50  1383.60
                             1484.35  1546.30  1582.84  1594.46  1631.09
                             1677.03  1682.08  1712.67  1735.45  1756.18
                             1854.40  1922.26  1990.26  2030.53  2042.21
                             2071.67  2100.75  2143.88  2160.10  2187.35
                             2207.21  2214.74  2219.01  2235.19  2286.98
                             2352.75  2372.06  2394.42  2433.82  2523.62
                             4356.20  4377.39  4433.95  4462.09  4499.08
                             4577.31  4601.42  4618.96  4629.22  5054.93
                             5071.79  5235.14  5251.26

 Zero-point correction=                           0.231503 (Hartree/Particle)
 Thermal correction to Energy=                    0.245392
 Thermal correction to Enthalpy=                  0.246336
 Thermal correction to Gibbs Free Energy=         0.191418
 Sum of electronic and zero-point Energies=           -666.329486
 Sum of electronic and thermal Energies=              -666.315598
 Sum of electronic and thermal Enthalpies=            -666.314653
 Sum of electronic and thermal Free Energies=         -666.369571

                     E (Thermal)             CV                S
                      KCal/Mol        Cal/Mol-Kelvin    Cal/Mol-Kelvin
 Total                  153.986             53.818            115.584
 Electronic               0.000              0.000              0.000
 Translational            0.889              2.981             41.830
 Rotational               0.889              2.981             31.896
 Vibrational            152.208             47.856             41.858
 Vibration     1          0.595              1.978              4.914
 Vibration     2          0.601              1.959              3.740
 Vibration     3          0.602              1.955              3.622
 Vibration     4          0.608              1.936              3.163
 Vibration     5          0.616              1.909              2.746
 Vibration     6          0.631              1.860              2.278
 Vibration     7          0.635              1.850              2.202
 Vibration     8          0.655              1.787              1.841
 Vibration     9          0.666              1.752              1.688
 Vibration    10          0.685              1.695              1.483
 Vibration    11          0.690              1.681              1.439
 Vibration    12          0.705              1.637              1.314
 Vibration    13          0.718              1.600              1.221
 Vibration    14          0.725              1.580              1.177
 Vibration    15          0.743              1.533              1.077
 Vibration    16          0.786              1.419              0.881
 Vibration    17          0.861              1.237              0.644
 Vibration    18          0.868              1.222              0.627
 Vibration    19          0.919              1.112              0.518
 Vibration    20          0.934              1.079              0.490
 Vibration    21          0.947              1.054              0.468
 Vibration    22          0.963              1.021              0.441

                           ! Non-Optimized Parameters !
 Normal termination of Gaussian 16 at Thu Dec 10 15:37:24 2020.

 ----------------------------------------------------------------------
 # B3LYP/6-311++G(d,p) empiricaldispersion=gd3bj scf=xqc pop=npa geom=c
 heck
 ----------------------------------------------------------------------

 --------------------------------------
 CID_67487855_JID_5015_Energie_neutraal
 --------------------------------------
 Structure from the checkpoint file:  "JID_5015.chk"
 Charge =  0 Multiplicity = 1

 SCF Done:  E(RB3LYP) =  -666.750809502     A.U. after   15 cycles
 Normal termination of Gaussian 16 at Thu Dec 10 15:42:29 2020.

 ----------------------------------------------------------------------
 # B3LYP/6-311++G(d,p) empiricaldispersion=gd3bj scf=xqc pop=npa geom=c
 heck
 ----------------------------------------------------------------------

 ------------------------------------
 CID_67487855_JID_5015_Energie_kation
 ------------------------------------
 Structure from the checkpoint file:  "JID_5015.chk"
 Charge =  1 Multiplicity = 2

 SCF Done:  E(UB3LYP) =  -666.493380776     A.U. after   23 cycles
 Normal termination of Gaussian 16 at Thu Dec 10 15:53:03 2020.
 Gaussian 16:  ES64L-G16RevA.03 25-Dec-2016

 ----------------------------------------------------------------------
 # B3LYP/6-311++G(d,p) empiricaldispersion=gd3bj scf=xqc pop=npa geom=c
 heck
 ----------------------------------------------------------------------

 -----------------------------------
 CID_67487855_JID_5015_Energie_anion
 -----------------------------------
 Structure from the checkpoint file:  "JID_5015.chk"
 Charge = -1 Multiplicity = 2

                         Standard orientation:
 ---------------------------------------------------------------------
 Center     Atomic      Atomic             Coordinates (Angstroms)
 Number     Number       Type             X           Y           Z
 ---------------------------------------------------------------------
      1          6           0        2.642376    2.284255   -0.026495
      2          6           0        2.297603    0.815248   -0.009198
      3          6           0        0.957562    0.355833   -0.020710
      4          6           0        0.689500   -1.044164   -0.003692
      5          6           0        1.719617   -1.996978    0.035455
      6          6           0        3.021026   -1.525373    0.046793
      7          6           0        3.302944   -0.142402    0.024491
      8          7           0       -0.662842   -1.243199   -0.026731
      9          6           0       -1.300031    0.009988   -0.021659
     10          6           0       -0.322106    1.004654   -0.039291
     11          7           0       -0.559464    2.389228   -0.039993
     12          6           0       -2.756785    0.168615   -0.017770
     13          8           0       -3.562751   -0.726900   -0.272759
     14          7           0       -3.200218    1.458357    0.258557
     15          6           0       -1.283130   -2.555573    0.058927
     16          1           0        2.333015    2.764748   -0.965274
     17          1           0        3.722278    2.430919    0.066679
     18          1           0        2.162831    2.824312    0.799400
     19          1           0        1.504122   -3.059821    0.060711
     20          1           0        3.845615   -2.231888    0.077121
     21          1           0        4.339168    0.184839    0.038323
     22          1           0       -1.358699    2.644903   -0.613788
     23          1           0        0.253727    2.922584   -0.319120
     24          1           0       -2.639758    2.023861    0.888155
     25          1           0       -4.199815    1.495550    0.420017
     26          1           0       -0.841017   -3.217281   -0.693267
     27          1           0       -1.125660   -2.996284    1.051464
     28          1           0       -2.347588   -2.446567   -0.132293
 ---------------------------------------------------------------------

 SCF Done:  E(UB3LYP) =  -666.745366462     A.U. after   33 cycles
 SCF Done:  E(UB3LYP) =  -666.746341434     a.u. after    8 cycles

 The electronic state is 2-A.
 Alpha  occ. eigenvalues --  -18.94200 -14.21507 -14.19366 -14.19132 -10.12368
 Alpha  occ. eigenvalues --  -10.07464 -10.06646 -10.06344 -10.05362 -10.04982
 Alpha  occ. eigenvalues --  -10.03845 -10.03023 -10.02945 -10.02884 -10.02836
 Alpha  occ. eigenvalues --   -0.89610  -0.84667  -0.78675  -0.76198  -0.71156
 Alpha  occ. eigenvalues --   -0.65427  -0.64004  -0.59904  -0.56339  -0.54747
 Alpha  occ. eigenvalues --   -0.50437  -0.46347  -0.44242  -0.43114  -0.40372
 Alpha  occ. eigenvalues --   -0.38651  -0.37753  -0.34279  -0.34004  -0.33437
 Alpha  occ. eigenvalues --   -0.32229  -0.30898  -0.30346  -0.29905  -0.28620
 Alpha  occ. eigenvalues --   -0.28059  -0.26841  -0.26067  -0.25617  -0.25242
 Alpha  occ. eigenvalues --   -0.22137  -0.21267  -0.20268  -0.18254  -0.15118
 Alpha  occ. eigenvalues --   -0.12524  -0.12186  -0.09266  -0.05802   0.05270
 Alpha virt. eigenvalues --    0.07472   0.08571   0.08720   0.09700   0.10396
 Alpha virt. eigenvalues --    0.11371   0.12014   0.12180   0.12971   0.13274
 Alpha virt. eigenvalues --    0.13886   0.14530   0.14627   0.14785   0.16014

  Beta  occ. eigenvalues --  -18.93973 -14.21430 -14.19321 -14.19094 -10.12162
  Beta  occ. eigenvalues --  -10.07465 -10.06666 -10.06170 -10.05290 -10.04987
  Beta  occ. eigenvalues --  -10.03566 -10.03035 -10.02971 -10.02764 -10.02705
  Beta  occ. eigenvalues --   -0.89203  -0.84522  -0.78504  -0.75998  -0.70898
  Beta  occ. eigenvalues --   -0.65218  -0.63735  -0.59630  -0.56216  -0.54582
  Beta  occ. eigenvalues --   -0.49933  -0.46279  -0.43947  -0.42975  -0.40264
  Beta  occ. eigenvalues --   -0.38487  -0.37660  -0.34073  -0.33872  -0.33241
  Beta  occ. eigenvalues --   -0.32120  -0.30775  -0.30059  -0.29733  -0.28437
  Beta  occ. eigenvalues --   -0.27342  -0.26706  -0.25913  -0.25445  -0.24712
  Beta  occ. eigenvalues --   -0.22038  -0.20943  -0.19877  -0.17764  -0.14396
  Beta  occ. eigenvalues --   -0.11914  -0.11593  -0.08671  -0.04783
  Beta virt. eigenvalues --    0.07698   0.08567   0.08768   0.09712   0.09936
  Beta virt. eigenvalues --    0.10481   0.11445   0.12003   0.12394   0.12980
  Beta virt. eigenvalues --    0.13300   0.14066   0.14591   0.14733   0.15669

 Mulliken charges and spin densities:
               1          2
     1  C    0.648807  -1.203152
     2  C    0.076672   0.761815
     3  C    0.813391   0.139448
     4  C   -0.003663  -0.003483
     5  C   -0.276706   0.082002
     6  C   -0.356551   0.076751
     7  C   -0.461880  -0.499299
     8  N    0.102383   0.031502
     9  C   -0.328028   0.456559
    10  C   -0.784307   0.155126
    11  N   -0.379446   0.029705
    12  C    0.006786  -0.135828
    13  O   -0.430118   0.079141
    14  N   -0.469174   0.009365
    15  C   -0.332907  -0.029198
    16  H   -0.174928   0.342230
    17  H    0.029912   0.104911
    18  H    0.044415   0.107412
    19  H    0.087677   0.005714
    20  H    0.110733  -0.002491
    21  H    0.032328   0.032687
    22  H    0.091565   0.162385
    23  H    0.105567   0.154767
    24  H    0.159028   0.084093
    25  H    0.267854   0.015486
    26  H    0.120799  -0.002200
    27  H    0.093077   0.049351
    28  H    0.206715  -0.004799
 Sum of Mulliken charges =  -1.00000   1.00000

 Dipole moment (field-independent basis, Debye):
    X=              0.4184    Y=             -0.7399    Z=              1.3010  Tot=              1.5541
 Quadrupole moment (field-independent basis, Debye-Ang):
   XX=           -135.5671   YY=           -112.7545   ZZ=           -103.5084
   XY=             -6.1634   XZ=             -2.4702   YZ=              2.4128

 Summary of Natural Population Analysis:

                                       Natural Population
                Natural  -----------------------------------------------
    Atom  No    Charge         Core      Valence    Rydberg      Total
 -----------------------------------------------------------------------
      C    1   -0.29827      0.99964     2.29327    0.00536     3.29827
      C    2    0.03834      0.99950     1.95208    0.01008     2.96166
      C    3   -0.06618      0.99944     2.05794    0.00880     3.06618
      C    4    0.10122      0.99950     1.88985    0.00943     2.89878
      C    5   -0.11971      0.99953     2.11134    0.00884     3.11971
      C    6   -0.06756      0.99959     2.05806    0.00990     3.06756
      C    7   -0.14298      0.99953     2.13443    0.00902     3.14298
      N    8   -0.19339      0.99959     2.68622    0.00759     3.69339
      C    9    0.01826      0.99942     1.97073    0.01158     2.98174
      C   10    0.10189      0.99942     1.88781    0.01088     2.89811
      N   11   -0.40991      0.99972     2.90004    0.01015     3.90991
      C   12    0.34389      0.99965     1.63530    0.02116     2.65611
      O   13   -0.32420      0.99988     3.31835    0.00597     4.32420
      N   14   -0.42096      0.99972     2.91231    0.00893     3.92096
      C   15   -0.18098      0.99965     2.17526    0.00607     3.18098
      H   16    0.10181      0.00000     0.39608    0.00211     0.39819
      H   17    0.09854      0.00000     0.40065    0.00081     0.40146
      H   18    0.10104      0.00000     0.39790    0.00106     0.39896
      H   19    0.09509      0.00000     0.40388    0.00103     0.40491
      H   20    0.08701      0.00000     0.41162    0.00137     0.41299
      H   21    0.09036      0.00000     0.40869    0.00095     0.40964
      H   22    0.18727      0.00000     0.31081    0.00192     0.31273
      H   23    0.18519      0.00000     0.31306    0.00175     0.31481
      H   24    0.19201      0.00000     0.30578    0.00221     0.30799
      H   25    0.18438      0.00000     0.31330    0.00232     0.31562
      H   26    0.08881      0.00000     0.40988    0.00131     0.41119
      H   27    0.08527      0.00000     0.41268    0.00206     0.41473
      H   28    0.12377      0.00000     0.37524    0.00099     0.37623
 =======================================================================
   * Total *   -0.00000     14.99378    38.84257    0.16364    54.00000

 Normal termination of Gaussian 16 at Thu Dec 10 17:02:01 2020.
