 Gaussian 16, Revision A.03,

 -----------------------------------------------------------
 # opt freq B3LYP/6-31G(d) empiricaldispersion=gd3bj scf=xqc
 -----------------------------------------------------------

 -------------------------------
 CID_104225670_JID_9818_neutraal
 -------------------------------
 Symbolic Z-matrix:
 Charge =  0 Multiplicity = 1

 SCF Done:  E(RB3LYP) =  -1177.62128316     A.U. after   14 cycles
 SCF Done:  E(RB3LYP) =  -1177.62841290     A.U. after   13 cycles
 SCF Done:  E(RB3LYP) =  -1177.62918212     A.U. after   12 cycles
 SCF Done:  E(RB3LYP) =  -1177.62951285     A.U. after   13 cycles
 SCF Done:  E(RB3LYP) =  -1177.62983265     A.U. after   12 cycles
 SCF Done:  E(RB3LYP) =  -1177.63021144     A.U. after   13 cycles
 SCF Done:  E(RB3LYP) =  -1177.63041074     A.U. after   12 cycles
 SCF Done:  E(RB3LYP) =  -1177.63058945     A.U. after   13 cycles
 SCF Done:  E(RB3LYP) =  -1177.63060641     A.U. after   10 cycles
 SCF Done:  E(RB3LYP) =  -1177.63062025     A.U. after   10 cycles
 SCF Done:  E(RB3LYP) =  -1177.63087985     A.U. after   10 cycles
 SCF Done:  E(RB3LYP) =  -1177.63088062     A.U. after    8 cycles
 SCF Done:  E(RB3LYP) =  -1177.63088073     A.U. after    8 cycles
 SCF Done:  E(RB3LYP) =  -1177.63088080     A.U. after    8 cycles
 SCF Done:  E(RB3LYP) =  -1177.63088081     A.U. after    6 cycles
 Optimization completed.
    -- Stationary point found.
 Normal termination of Gaussian 16 at Sat Dec 12 10:22:08 2020.

 --------------------------------------------------------------------
 #N Geom=AllCheck Guess=TCheck SCRF=Check GenChk RB3LYP/6-31G(d) Freq
 --------------------------------------------------------------------

 Structure from the checkpoint file:  "JID_9818.chk"
 -------------------------------
 CID_104225670_JID_9818_neutraal
 -------------------------------
 Charge =  0 Multiplicity = 1

 SCF Done:  E(RB3LYP) =  -1177.63088081     A.U. after    1 cycles

  Exact polarizability: 281.407 -15.701 183.414  -9.161   1.789 114.839
 Approx polarizability: 357.172 -16.116 302.680 -19.751   8.446 190.422

                      1                      2                      3
                      A                      A                      A
 Frequencies --     18.2253                22.6564                26.3703
 Red. masses --      3.9021                 3.8088                 4.8556
 Frc consts  --      0.0008                 0.0012                 0.0020
 IR Inten    --      1.2150                 0.6198                 0.6804

                      4                      5                      6
                      A                      A                      A
 Frequencies --     40.5238                51.0875                60.7301
 Red. masses --      3.4411                 1.0906                 4.0510
 Frc consts  --      0.0033                 0.0017                 0.0088
 IR Inten    --      1.2026                 0.4262                 0.0828

                      7                      8                      9
                      A                      A                      A
 Frequencies --     87.6160               125.1200               136.6567
 Red. masses --      4.6784                 2.5112                 5.1508
 Frc consts  --      0.0212                 0.0232                 0.0567
 IR Inten    --      0.6974                 2.0212                 0.7140

                     10                     11                     12
                      A                      A                      A
 Frequencies --    168.1937               193.3306               201.9554
 Red. masses --      5.3764                 4.5441                 4.0065
 Frc consts  --      0.0896                 0.1001                 0.0963
 IR Inten    --      3.2543                 2.1979                 0.4260

                     13                     14                     15
                      A                      A                      A
 Frequencies --    225.9624               232.4278               241.6263
 Red. masses --      1.1526                 5.0908                 2.5270
 Frc consts  --      0.0347                 0.1620                 0.0869
 IR Inten    --      0.6001                 1.0855                 1.2437

                     16                     17                     18
                      A                      A                      A
 Frequencies --    264.4572               323.2357               345.3307
 Red. masses --      1.2156                 3.7368                 3.7765
 Frc consts  --      0.0501                 0.2300                 0.2653
 IR Inten    --      0.7293                 2.9950                 1.4737

                     19                     20                     21
                      A                      A                      A
 Frequencies --    381.7101               413.5645               416.3609
 Red. masses --      3.1464                 3.3454                 3.8474
 Frc consts  --      0.2701                 0.3371                 0.3930
 IR Inten    --      1.1429                 1.5850                 0.5674

                     22                     23                     24
                      A                      A                      A
 Frequencies --    432.7674               437.6534               461.8775
 Red. masses --      3.4643                 3.1934                 2.7485
 Frc consts  --      0.3823                 0.3604                 0.3455
 IR Inten    --      1.2234                 0.1162                 3.5442

                     25                     26                     27
                      A                      A                      A
 Frequencies --    482.8027               501.2940               539.4676
 Red. masses --      7.1056                 4.2998                 3.4187
 Frc consts  --      0.9759                 0.6366                 0.5862
 IR Inten    --      1.1704                 7.6362                 1.2370

                     28                     29                     30
                      A                      A                      A
 Frequencies --    550.5100               598.4212               657.8203
 Red. masses --      5.8450                 3.9454                 9.5418
 Frc consts  --      1.0437                 0.8324                 2.4327
 IR Inten    --      9.9336                 3.5580                 5.1707

                     31                     32                     33
                      A                      A                      A
 Frequencies --    703.9488               730.9575               773.9979
 Red. masses --      5.2575                 7.3836                 1.7245
 Frc consts  --      1.5350                 2.3244                 0.6087
 IR Inten    --      7.6719                10.9179                75.2904

                     34                     35                     36
                      A                      A                      A
 Frequencies --    789.9679               804.9956               839.2908
 Red. masses --      6.0484                 5.7454                 1.2044
 Frc consts  --      2.2239                 2.1936                 0.4999
 IR Inten    --     10.5925                 5.7033                10.1159

                     37                     38                     39
                      A                      A                      A
 Frequencies --    847.4196               874.8142               897.5465
 Red. masses --      3.3572                 2.8347                 4.6731
 Frc consts  --      1.4204                 1.2782                 2.2180
 IR Inten    --     23.4325                 4.9933                43.2451

                     40                     41                     42
                      A                      A                      A
 Frequencies --    938.5815               946.1095               952.2857
 Red. masses --      1.2383                 1.4455                 1.5494
 Frc consts  --      0.6427                 0.7623                 0.8278
 IR Inten    --      1.9579                10.2574                 1.2128

                     43                     44                     45
                      A                      A                      A
 Frequencies --    966.1786               994.5696               999.9546
 Red. masses --      1.8722                 1.4013                 1.3678
 Frc consts  --      1.0297                 0.8167                 0.8058
 IR Inten    --      2.7569                 0.1870                 1.4731

                     46                     47                     48
                      A                      A                      A
 Frequencies --   1001.4413              1018.2725              1037.3694
 Red. masses --      5.7644                 1.6054                 1.7542
 Frc consts  --      3.4061                 0.9807                 1.1123
 IR Inten    --      4.9054                15.8849                 4.6483

                     49                     50                     51
                      A                      A                      A
 Frequencies --   1061.4976              1074.4327              1126.7087
 Red. masses --      3.6660                 1.6049                 3.3314
 Frc consts  --      2.4338                 1.0916                 2.4917
 IR Inten    --      3.9282                 6.5077                24.0672

                     52                     53                     54
                      A                      A                      A
 Frequencies --   1128.6865              1156.1235              1190.3789
 Red. masses --      1.5202                 2.1625                 1.6093
 Frc consts  --      1.1410                 1.7030                 1.3436
 IR Inten    --      2.9656                15.5618                 7.6780

                     55                     56                     57
                      A                      A                      A
 Frequencies --   1199.4384              1209.4168              1245.7161
 Red. masses --      6.7049                 1.9994                 2.9820
 Frc consts  --      5.6832                 1.7230                 2.7264
 IR Inten    --    301.1108                33.3041                78.2769

                     58                     59                     60
                      A                      A                      A
 Frequencies --   1253.4130              1262.9604              1267.6076
 Red. masses --      5.2864                 6.8942                 2.0162
 Frc consts  --      4.8932                 6.4791                 1.9088
 IR Inten    --      1.7171                 6.4143                 9.2946

                     61                     62                     63
                      A                      A                      A
 Frequencies --   1283.2648              1290.5560              1298.6988
 Red. masses --      1.8181                 1.6932                 3.2693
 Frc consts  --      1.7640                 1.6615                 3.2488
 IR Inten    --     16.3638                14.1368                 5.3264

                     64                     65                     66
                      A                      A                      A
 Frequencies --   1356.2616              1373.6172              1387.7611
 Red. masses --      1.3855                 1.3519                 2.7619
 Frc consts  --      1.5015                 1.5029                 3.1339
 IR Inten    --     35.8939                26.1886               188.5421

                     67                     68                     69
                      A                      A                      A
 Frequencies --   1405.7437              1425.8185              1435.4040
 Red. masses --      1.5199                 1.3426                 1.2815
 Frc consts  --      1.7696                 1.6082                 1.5557
 IR Inten    --     22.7292                23.2158                18.2194

                     70                     71                     72
                      A                      A                      A
 Frequencies --   1444.4294              1444.7535              1449.2817
 Red. masses --      1.6415                 1.2772                 2.8844
 Frc consts  --      2.0178                 1.5707                 3.5696
 IR Inten    --      3.7615                 5.1765               264.3157

                     73                     74                     75
                      A                      A                      A
 Frequencies --   1476.1921              1503.7179              1503.9353
 Red. masses --      2.7782                 1.1610                 1.0448
 Frc consts  --      3.5670                 1.5467                 1.3923
 IR Inten    --     51.1672                34.1626                 6.3812

                     76                     77                     78
                      A                      A                      A
 Frequencies --   1511.9024              1515.3552              1518.8343
 Red. masses --      1.1102                 1.0517                 1.0526
 Frc consts  --      1.4952                 1.4229                 1.4307
 IR Inten    --     27.6607                 0.8155                 4.0992

                     79                     80                     81
                      A                      A                      A
 Frequencies --   1536.6965              1538.7113              1541.0643
 Red. masses --      1.0747                 1.1050                 1.0608
 Frc consts  --      1.4952                 1.5414                 1.4843
 IR Inten    --      2.8705                16.9534                11.5648

                     82                     83                     84
                      A                      A                      A
 Frequencies --   1591.3677              1611.6997              1621.7363
 Red. masses --      6.3515                 4.9517                 6.1862
 Frc consts  --      9.4769                 7.5783                 9.5859
 IR Inten    --     85.4224               142.9071               228.4463

                     85                     86                     87
                      A                      A                      A
 Frequencies --   1643.8063              2958.9750              3026.5871
 Red. masses --      5.1566                 1.0716                 1.0839
 Frc consts  --      8.2094                 5.5281                 5.8498
 IR Inten    --     75.4184                57.7915                 8.0456

                     88                     89                     90
                      A                      A                      A
 Frequencies --   3034.9817              3040.1605              3046.5292
 Red. masses --      1.0853                 1.0393                 1.0402
 Frc consts  --      5.8901                 5.6598                 5.6882
 IR Inten    --     27.1375                19.5037                34.3813

                     91                     92                     93
                      A                      A                      A
 Frequencies --   3061.6081              3104.6251              3113.0688
 Red. masses --      1.0359                 1.0994                 1.0979
 Frc consts  --      5.7207                 6.2434                 6.2686
 IR Inten    --     11.5755                 5.9911                66.9651

                     94                     95                     96
                      A                      A                      A
 Frequencies --   3120.6108              3123.5543              3138.5759
 Red. masses --      1.1016                 1.1006                 1.1029
 Frc consts  --      6.3203                 6.3265                 6.4008
 IR Inten    --     40.1085                 7.7656                28.4659

                     97                     98                     99
                      A                      A                      A
 Frequencies --   3146.1015              3161.4455              3175.1827
 Red. masses --      1.1037                 1.0910                 1.0903
 Frc consts  --      6.4365                 6.4246                 6.4767
 IR Inten    --     17.3252                34.4241                22.4494

                    100                    101                    102
                      A                      A                      A
 Frequencies --   3197.3287              3221.6059              3471.0693
 Red. masses --      1.0913                 1.0942                 1.0736
 Frc consts  --      6.5730                 6.6911                 7.6208
 IR Inten    --     11.1675                12.3390                 0.3523

 - Thermochemistry -
 -------------------
 Temperature   298.150 Kelvin.  Pressure   1.00000 Atm.
 Atom     1 has atomic number  6 and mass  12.00000

 Molecular mass:   275.12047 amu.
 Principal axes and moments of inertia in atomic units:
                           1         2         3
     Eigenvalues --  2314.37312********************
           X            0.99999   0.00085  -0.00376
           Y           -0.00084   1.00000   0.00152
           Z            0.00376  -0.00152   0.99999
 This molecule is an asymmetric top.
 Rotational symmetry number  1.
 Warning -- assumption of classical behavior for rotation
           may cause significant error
 Rotational temperatures (Kelvin)      0.03742     0.00622     0.00551
 Rotational constants (GHZ):           0.77980     0.12954     0.11483
 Zero-point vibrational energy     770314.1 (Joules/Mol)
                                  184.10948 (Kcal/Mol)
 Warning -- explicit consideration of  29 degrees of freedom as
           vibrations may cause significant error
 Vibrational temperatures:     26.22    32.60    37.94    58.30    73.50
          (Kelvin)             87.38   126.06   180.02   196.62   241.99
                              278.16   290.57   325.11   334.41   347.65
                              380.49   465.06   496.85   549.20   595.03
                              599.05   622.66   629.69   664.54   694.65
                              721.25   776.17   792.06   860.99   946.46
                             1012.83  1051.68  1113.61  1136.59  1158.21
                             1207.55  1219.25  1258.66  1291.37  1350.41
                             1361.24  1370.13  1390.12  1430.96  1438.71
                             1440.85  1465.07  1492.54  1527.26  1545.87
                             1621.08  1623.93  1663.40  1712.69  1725.72
                             1740.08  1792.31  1803.38  1817.12  1823.80
                             1846.33  1856.82  1868.54  1951.36  1976.33
                             1996.68  2022.55  2051.43  2065.23  2078.21
                             2078.68  2085.19  2123.91  2163.51  2163.83
                             2175.29  2180.26  2185.26  2210.96  2213.86
                             2217.25  2289.62  2318.88  2333.32  2365.07
                             4257.31  4354.58  4366.66  4374.11  4383.28
                             4404.97  4466.86  4479.01  4489.86  4494.10
                             4515.71  4526.54  4548.62  4568.38  4600.24
                             4635.17  4994.09

 Zero-point correction=                           0.293397 (Hartree/Particle)
 Thermal correction to Energy=                    0.312321
 Thermal correction to Enthalpy=                  0.313266
 Thermal correction to Gibbs Free Energy=         0.242307
 Sum of electronic and zero-point Energies=          -1177.337484
 Sum of electronic and thermal Energies=             -1177.318559
 Sum of electronic and thermal Enthalpies=           -1177.317615
 Sum of electronic and thermal Free Energies=        -1177.388574

                     E (Thermal)             CV                S
                      KCal/Mol        Cal/Mol-Kelvin    Cal/Mol-Kelvin
 Total                  195.985             69.073            149.344
 Electronic               0.000              0.000              0.000
 Translational            0.889              2.981             42.735
 Rotational               0.889              2.981             34.582
 Vibrational            194.207             63.112             72.028
 Vibration     1          0.593              1.986              6.819
 Vibration     2          0.593              1.985              6.387
 Vibration     3          0.593              1.985              6.085
 Vibration     4          0.594              1.981              5.233
 Vibration     5          0.595              1.977              4.775
 Vibration     6          0.597              1.973              4.433
 Vibration     7          0.601              1.958              3.713
 Vibration     8          0.610              1.928              3.020
 Vibration     9          0.614              1.917              2.850
 Vibration    10          0.625              1.882              2.456
 Vibration    11          0.635              1.849              2.196
 Vibration    12          0.639              1.837              2.115
 Vibration    13          0.650              1.801              1.911
 Vibration    14          0.653              1.791              1.860
 Vibration    15          0.658              1.777              1.791
 Vibration    16          0.671              1.738              1.632
 Vibration    17          0.708              1.629              1.294
 Vibration    18          0.724              1.585              1.187
 Vibration    19          0.751              1.509              1.032
 Vibration    20          0.777              1.441              0.914
 Vibration    21          0.780              1.435              0.904
 Vibration    22          0.794              1.399              0.850
 Vibration    23          0.798              1.388              0.834
 Vibration    24          0.820              1.335              0.761
 Vibration    25          0.839              1.288              0.703
 Vibration    26          0.857              1.247              0.655
 Vibration    27          0.895              1.163              0.566
 Vibration    28          0.906              1.139              0.543
 Vibration    29          0.956              1.035              0.452

 Optimization completed.
    -- Stationary point found.
 Normal termination of Gaussian 16 at Sat Dec 12 10:36:03 2020.

 ----------------------------------------------------------------------
 # B3LYP/6-311++G(d,p) empiricaldispersion=gd3bj scf=xqc pop=npa geom=c
 heck
 ----------------------------------------------------------------------

 ---------------------------------------
 CID_104225670_JID_9818_Energie_neutraal
 ---------------------------------------
 Structure from the checkpoint file:  "JID_9818.chk"
 Charge =  0 Multiplicity = 1

 SCF Done:  E(RB3LYP) =  -1177.86313349     A.U. after   16 cycles
 Normal termination of Gaussian 16 at Sat Dec 12 10:43:14 2020.

 ----------------------------------------------------------------------
 # B3LYP/6-311++G(d,p) empiricaldispersion=gd3bj scf=xqc pop=npa geom=c
 heck
 ----------------------------------------------------------------------

 -------------------------------------
 CID_104225670_JID_9818_Energie_kation
 -------------------------------------
 Structure from the checkpoint file:  "JID_9818.chk"
 Charge =  1 Multiplicity = 2

 SCF Done:  E(UB3LYP) =  -1177.57733785     A.U. after   26 cycles
 Normal termination of Gaussian 16 at Sat Dec 12 10:59:58 2020.
 Gaussian 16:  ES64L-G16RevA.03 25-Dec-2016

 ----------------------------------------------------------------------
 # B3LYP/6-311++G(d,p) empiricaldispersion=gd3bj scf=xqc pop=npa geom=c
 heck
 ----------------------------------------------------------------------

 ------------------------------------
 CID_104225670_JID_9818_Energie_anion
 ------------------------------------
 Structure from the checkpoint file:  "JID_9818.chk"
 Charge = -1 Multiplicity = 2

                         Standard orientation:
 ---------------------------------------------------------------------
 Center     Atomic      Atomic             Coordinates (Angstroms)
 Number     Number       Type             X           Y           Z
 ---------------------------------------------------------------------
      1          6           0       -6.302068    1.020733    0.704138
      2          6           0       -4.897609    0.983529    0.169990
      3          7           0       -4.235719   -0.178548    0.298889
      4          6           0       -2.995109   -0.221388   -0.189927
      5          7           0       -2.335185    0.757821   -0.814290
      6          6           0       -2.991765    1.916456   -0.905987
      7          6           0       -4.287263    2.090610   -0.424989
      8         16           0       -2.235241   -1.832964   -0.053733
      9          6           0       -0.493879   -1.439777    0.036782
     10          7           0        0.298905   -2.357723   -0.521620
     11          6           0        1.613635   -2.137601   -0.405966
     12          6           0        2.146260   -1.018475    0.230431
     13          6           0        1.203434   -0.134264    0.769529
     14          7           0       -0.111406   -0.344112    0.699540
     15          6           0        3.629940   -0.776127    0.348976
     16          7           0        3.944083    0.625688    0.092563
     17          6           0        5.337773    1.018165    0.337368
     18          6           0        6.365578    0.302553   -0.554365
     19          6           0        5.443474    2.537129    0.193186
     20          1           0       -6.918600    0.275492    0.189719
     21          1           0       -6.306007    0.760398    1.767894
     22          1           0       -6.757522    2.006519    0.576845
     23          1           0       -2.462160    2.730193   -1.398643
     24          1           0       -4.802844    3.040139   -0.518538
     25          1           0        2.266836   -2.885035   -0.856146
     26          1           0        1.533105    0.769530    1.276388
     27          1           0        3.958882   -0.996981    1.374619
     28          1           0        4.160604   -1.494499   -0.301226
     29          1           0        3.688449    0.858752   -0.867150
     30          1           0        5.545638    0.754279    1.384257
     31          1           0        6.183755    0.535845   -1.611686
     32          1           0        7.385283    0.622702   -0.311845
     33          1           0        6.322799   -0.785218   -0.435740
     34          1           0        4.720130    3.034832    0.845495
     35          1           0        6.450046    2.886903    0.445958
     36          1           0        5.236316    2.842429   -0.841042
 ---------------------------------------------------------------------

 SCF Done:  E(UB3LYP) =  -1177.86680794     A.U. after   33 cycles
 SCF Done:  E(UB3LYP) =  -1177.86680794     a.u. after    1 cycles

 The electronic state is 2-A.
 Alpha  occ. eigenvalues --  -88.73525 -14.20716 -14.18749 -14.18623 -14.18493
 Alpha  occ. eigenvalues --  -14.18406 -10.14421 -10.14057 -10.11631 -10.10553
 Alpha  occ. eigenvalues --  -10.10256 -10.09117 -10.08999 -10.08258 -10.07697
 Alpha  occ. eigenvalues --  -10.07678 -10.07279 -10.07081 -10.06652  -7.82210
 Alpha  occ. eigenvalues --   -5.78593  -5.78173  -5.77637  -0.87024  -0.86361
 Alpha  occ. eigenvalues --   -0.82203  -0.77154  -0.76490  -0.71001  -0.69539
 Alpha  occ. eigenvalues --   -0.66893  -0.63165  -0.61518  -0.60673  -0.56777
 Alpha  occ. eigenvalues --   -0.53995  -0.52252  -0.51243  -0.50235  -0.48067
 Alpha  occ. eigenvalues --   -0.41453  -0.40379  -0.39847  -0.38795  -0.38008
 Alpha  occ. eigenvalues --   -0.37358  -0.34962  -0.34439  -0.33754  -0.33278
 Alpha  occ. eigenvalues --   -0.31764  -0.31280  -0.30783  -0.30641  -0.29910
 Alpha  occ. eigenvalues --   -0.29363  -0.29005  -0.28272  -0.27531  -0.27461
 Alpha  occ. eigenvalues --   -0.26433  -0.25450  -0.23696  -0.19937  -0.19625
 Alpha  occ. eigenvalues --   -0.18730  -0.18445  -0.17443  -0.16441  -0.13992
 Alpha  occ. eigenvalues --   -0.13422  -0.12390  -0.10867   0.03818
 Alpha virt. eigenvalues --    0.05136   0.06307   0.06975   0.07284   0.07358
 Alpha virt. eigenvalues --    0.07777   0.08401   0.08747   0.09364   0.09955
 Alpha virt. eigenvalues --    0.10461   0.10500   0.11193   0.11235   0.11492

  Beta  occ. eigenvalues --  -88.73528 -14.20715 -14.18575 -14.18450 -14.18365
  Beta  occ. eigenvalues --  -14.18267 -10.14448 -10.14086 -10.11624 -10.10542
  Beta  occ. eigenvalues --  -10.10036 -10.08953 -10.08756 -10.08021 -10.07683
  Beta  occ. eigenvalues --  -10.07657 -10.07299 -10.07149 -10.06728  -7.82213
  Beta  occ. eigenvalues --   -5.78595  -5.78176  -5.77643  -0.86761  -0.86089
  Beta  occ. eigenvalues --   -0.82193  -0.76769  -0.76105  -0.70889  -0.69397
  Beta  occ. eigenvalues --   -0.66763  -0.63091  -0.61421  -0.60634  -0.56680
  Beta  occ. eigenvalues --   -0.53543  -0.51967  -0.51045  -0.50198  -0.47958
  Beta  occ. eigenvalues --   -0.41352  -0.40204  -0.39728  -0.38725  -0.37951
  Beta  occ. eigenvalues --   -0.37274  -0.34918  -0.34366  -0.33316  -0.33124
  Beta  occ. eigenvalues --   -0.31578  -0.31175  -0.30715  -0.30424  -0.29612
  Beta  occ. eigenvalues --   -0.29206  -0.28753  -0.28124  -0.27420  -0.27361
  Beta  occ. eigenvalues --   -0.26404  -0.25420  -0.23586  -0.19020  -0.18733
  Beta  occ. eigenvalues --   -0.18253  -0.17781  -0.17094  -0.15945  -0.13928
  Beta  occ. eigenvalues --   -0.13232  -0.12206  -0.10619
  Beta virt. eigenvalues --    0.05554   0.06926   0.07344   0.07435   0.07880
  Beta virt. eigenvalues --    0.08033   0.08353   0.08629   0.08800   0.09469
  Beta virt. eigenvalues --    0.10020   0.10449   0.10537   0.11108   0.11297

 Mulliken charges and spin densities:
               1          2
     1  C   -0.499100  -0.029220
     2  C    0.312563   0.124883
     3  N    0.038419   0.091441
     4  C   -0.621835  -0.026445
     5  N    0.081548   0.050959
     6  C   -0.022252   0.189993
     7  C   -0.299511  -0.048020
     8  S   -0.247247   0.019124
     9  C   -0.380168  -0.015977
    10  N    0.028970   0.079875
    11  C   -0.418613   0.227354
    12  C    1.364478   0.181738
    13  C   -0.173614   0.124376
    14  N    0.165175   0.063755
    15  C   -1.530090  -0.360596
    16  N    0.110599  -0.019621
    17  C   -0.425387   0.365254
    18  C    0.266972  -0.737543
    19  C   -0.208642  -0.345271
    20  H    0.134932   0.018396
    21  H    0.135859   0.020639
    22  H    0.126802  -0.000197
    23  H    0.158530  -0.016616
    24  H    0.116250   0.004407
    25  H    0.112615   0.032804
    26  H    0.194855  -0.001876
    27  H    0.050650   0.103169
    28  H    0.235266  -0.061517
    29  H    0.222446  -0.030452
    30  H    0.009102   0.126772
    31  H   -0.018177   0.152432
    32  H   -0.112235   0.248508
    33  H   -0.037708   0.177902
    34  H    0.112076   0.051884
    35  H   -0.049137   0.174395
    36  H    0.065606   0.063293
 Sum of Mulliken charges =  -1.00000   1.00000

 Dipole moment (field-independent basis, Debye):
    X=              0.1537    Y=              2.3915    Z=             -0.1562  Tot=              2.4015
 Quadrupole moment (field-independent basis, Debye-Ang):
   XX=           -205.6038   YY=           -143.9705   ZZ=           -136.5914
   XY=            -14.3223   XZ=              0.0875   YZ=             -3.1704

 Summary of Natural Population Analysis:

                                       Natural Population
                Natural  -----------------------------------------------
    Atom  No    Charge         Core      Valence    Rydberg      Total
 -----------------------------------------------------------------------
      C    1   -0.30016      0.99964     2.29568    0.00484     3.30016
      C    2    0.15622      0.99956     1.83218    0.01204     2.84378
      N    3   -0.24813      0.99962     2.73531    0.01320     3.74813
      C    4    0.14826      0.99957     1.82964    0.02253     2.85174
      N    5   -0.23566      0.99965     2.72293    0.01307     3.73566
      C    6    0.08848      0.99960     1.89767    0.01425     2.91152
      C    7   -0.17137      0.99951     2.16445    0.00741     3.17137
      S    8    0.14131      4.99944     2.83870    0.02055     7.85869
      C    9    0.14052      0.99957     1.83697    0.02295     2.85948
      N   10   -0.23479      0.99966     2.72371    0.01142     3.73479
      C   11    0.06904      0.99954     1.91790    0.01353     2.93096
      C   12   -0.08075      0.99950     2.07208    0.00918     3.08075
      C   13    0.09284      0.99954     1.89470    0.01292     2.90716
      N   14   -0.22787      0.99965     2.71507    0.01315     3.72787
      C   15   -0.08994      0.99960     2.08058    0.00975     3.08994
      N   16   -0.33815      0.99974     2.82717    0.01125     3.83815
      C   17   -0.01449      0.99963     2.00114    0.01372     3.01449
      C   18   -0.29437      0.99965     2.29004    0.00469     3.29437
      C   19   -0.28521      0.99965     2.28031    0.00526     3.28521
      H   20    0.10685      0.00000     0.39217    0.00098     0.39315
      H   21    0.10800      0.00000     0.39102    0.00097     0.39200
      H   22    0.09406      0.00000     0.40512    0.00082     0.40594
      H   23    0.08198      0.00000     0.41688    0.00114     0.41802
      H   24    0.09769      0.00000     0.40122    0.00110     0.40231
      H   25    0.08142      0.00000     0.41570    0.00288     0.41858
      H   26    0.09037      0.00000     0.40766    0.00198     0.40963
      H   27    0.09433      0.00000     0.40438    0.00130     0.40567
      H   28    0.07956      0.00000     0.41706    0.00338     0.42044
      H   29    0.17014      0.00000     0.32745    0.00241     0.32986
      H   30    0.08884      0.00000     0.40988    0.00128     0.41116
      H   31    0.09530      0.00000     0.40355    0.00115     0.40470
      H   32    0.09909      0.00000     0.39976    0.00115     0.40091
      H   33    0.09983      0.00000     0.39908    0.00108     0.40017
      H   34    0.10470      0.00000     0.39423    0.00107     0.39530
      H   35    0.09773      0.00000     0.40133    0.00095     0.40227
      H   36    0.09434      0.00000     0.40470    0.00095     0.40566
 =======================================================================
   * Total *    0.00000     22.99231    49.74742    0.26027    73.00000

 Normal termination of Gaussian 16 at Sat Dec 12 11:21:37 2020.
