 Gaussian 16, Revision A.03,

 -----------------------------------------------------------
 # opt freq B3LYP/6-31G(d) empiricaldispersion=gd3bj scf=xqc
 -----------------------------------------------------------

 -------------------------------
 CID_107178512_JID_3641_neutraal
 -------------------------------
 Symbolic Z-matrix:
 Charge =  0 Multiplicity = 1

 SCF Done:  E(RB3LYP) =  -543.159164320     A.U. after   12 cycles
 SCF Done:  E(RB3LYP) =  -543.162969755     A.U. after   11 cycles
 SCF Done:  E(RB3LYP) =  -543.159612452     A.U. after   11 cycles
 SCF Done:  E(RB3LYP) =  -543.163232224     A.U. after   10 cycles
 SCF Done:  E(RB3LYP) =  -543.163989115     A.U. after   10 cycles
 SCF Done:  E(RB3LYP) =  -543.164367081     A.U. after   10 cycles
 SCF Done:  E(RB3LYP) =  -543.164637576     A.U. after   10 cycles
 SCF Done:  E(RB3LYP) =  -543.164734204     A.U. after   10 cycles
 SCF Done:  E(RB3LYP) =  -543.164789191     A.U. after    9 cycles
 SCF Done:  E(RB3LYP) =  -543.164843405     A.U. after   10 cycles
 SCF Done:  E(RB3LYP) =  -543.165213843     A.U. after    9 cycles
 SCF Done:  E(RB3LYP) =  -543.165213345     A.U. after    9 cycles
 SCF Done:  E(RB3LYP) =  -543.165214883     A.U. after    9 cycles
 SCF Done:  E(RB3LYP) =  -543.165214560     A.U. after    8 cycles
 SCF Done:  E(RB3LYP) =  -543.165215022     A.U. after    8 cycles
 SCF Done:  E(RB3LYP) =  -543.165215018     A.U. after    6 cycles
 Optimization completed.
    -- Stationary point found.
 Normal termination of Gaussian 16 at Mon Dec 14 18:58:06 2020.

 --------------------------------------------------------------------
 #N Geom=AllCheck Guess=TCheck SCRF=Check GenChk RB3LYP/6-31G(d) Freq
 --------------------------------------------------------------------

 Structure from the checkpoint file:  "JID_3641.chk"
 -------------------------------
 CID_107178512_JID_3641_neutraal
 -------------------------------
 Charge =  0 Multiplicity = 1

 SCF Done:  E(RB3LYP) =  -543.165215018     A.U. after    1 cycles

  Exact polarizability: 140.058   0.110 129.512   1.684   1.715 111.660
 Approx polarizability: 178.562  -0.323 175.450   2.133   2.007 166.463

                      1                      2                      3
                      A                      A                      A
 Frequencies --     28.4057                37.4212                67.7044
 Red. masses --      2.7109                 2.5739                 2.9652
 Frc consts  --      0.0013                 0.0021                 0.0080
 IR Inten    --      1.8195                 0.1335                 0.8937

                      4                      5                      6
                      A                      A                      A
 Frequencies --     74.9955               108.7222               130.5985
 Red. masses --      3.1657                 2.7884                 2.0864
 Frc consts  --      0.0105                 0.0194                 0.0210
 IR Inten    --      0.9413                 0.7197                 6.1516

                      7                      8                      9
                      A                      A                      A
 Frequencies --    143.6162               181.1145               201.1215
 Red. masses --      2.3579                 2.2521                 1.5396
 Frc consts  --      0.0287                 0.0435                 0.0367
 IR Inten    --      4.1405                 0.2219                24.0391

                     10                     11                     12
                      A                      A                      A
 Frequencies --    213.7998               254.1705               257.1531
 Red. masses --      1.5591                 1.2551                 2.0240
 Frc consts  --      0.0420                 0.0478                 0.0789
 IR Inten    --      1.0052                 1.5009                21.8262

                     13                     14                     15
                      A                      A                      A
 Frequencies --    284.1290               303.3424               329.6086
 Red. masses --      1.5190                 1.8916                 2.3748
 Frc consts  --      0.0722                 0.1026                 0.1520
 IR Inten    --      2.4734                 0.3149                 7.4384

                     16                     17                     18
                      A                      A                      A
 Frequencies --    391.0932               400.9653               435.5141
 Red. masses --      2.3173                 2.1714                 2.4277
 Frc consts  --      0.2088                 0.2057                 0.2713
 IR Inten    --      0.6970                 0.7132                 1.1703

                     19                     20                     21
                      A                      A                      A
 Frequencies --    482.7543               504.1114               539.6846
 Red. masses --      1.9101                 2.1803                 2.8474
 Frc consts  --      0.2623                 0.3265                 0.4886
 IR Inten    --      2.4726                 0.2612                14.9927

                     22                     23                     24
                      A                      A                      A
 Frequencies --    570.5509               663.0832               761.3310
 Red. masses --      1.9699                 3.0309                 2.5053
 Frc consts  --      0.3778                 0.7852                 0.8556
 IR Inten    --      0.7114                 0.8063                 2.1450

                     25                     26                     27
                      A                      A                      A
 Frequencies --    802.3275               820.7806               842.7678
 Red. masses --      1.3365                 1.8850                 1.5949
 Frc consts  --      0.5069                 0.7482                 0.6674
 IR Inten    --      2.5766                 4.6483                 0.8041

                     28                     29                     30
                      A                      A                      A
 Frequencies --    846.4661               877.2411               888.7634
 Red. masses --      1.9904                 1.9110                 1.5203
 Frc consts  --      0.8403                 0.8665                 0.7076
 IR Inten    --     35.3900                 7.2636                89.3853

                     31                     32                     33
                      A                      A                      A
 Frequencies --    909.9501               917.7912               925.5191
 Red. masses --      2.2437                 2.0527                 1.9545
 Frc consts  --      1.0946                 1.0187                 0.9864
 IR Inten    --      3.8688                 1.4213                 1.9572

                     34                     35                     36
                      A                      A                      A
 Frequencies --    960.6014               975.3563               994.5430
 Red. masses --      2.1483                 1.9722                 2.0135
 Frc consts  --      1.1680                 1.1054                 1.1734
 IR Inten    --      2.6509                 5.9986                 1.9579

                     37                     38                     39
                      A                      A                      A
 Frequencies --   1013.6053              1018.7008              1045.5766
 Red. masses --      1.4612                 1.7000                 1.6523
 Frc consts  --      0.8845                 1.0394                 1.0643
 IR Inten    --      2.5542                 8.2672                 1.9020

                     40                     41                     42
                      A                      A                      A
 Frequencies --   1069.3102              1078.1086              1094.9600
 Red. masses --      2.3204                 1.9052                 2.1638
 Frc consts  --      1.5632                 1.3047                 1.5285
 IR Inten    --     33.7765                 1.5801                20.8705

                     43                     44                     45
                      A                      A                      A
 Frequencies --   1115.1899              1122.7374              1138.8879
 Red. masses --      2.1499                 1.9853                 1.9508
 Frc consts  --      1.5753                 1.4745                 1.4908
 IR Inten    --      1.8097                26.2610                 1.7884

                     46                     47                     48
                      A                      A                      A
 Frequencies --   1157.8980              1191.6205              1204.2742
 Red. masses --      1.8949                 1.6181                 1.3881
 Frc consts  --      1.4968                 1.3537                 1.1861
 IR Inten    --      3.7046                22.0636                 0.8295

                     49                     50                     51
                      A                      A                      A
 Frequencies --   1210.0964              1214.4565              1237.4860
 Red. masses --      1.7352                 1.5530                 1.6270
 Frc consts  --      1.4971                 1.3495                 1.4679
 IR Inten    --      1.8407                 2.3889                23.2098

                     52                     53                     54
                      A                      A                      A
 Frequencies --   1254.8302              1299.1543              1308.9488
 Red. masses --      1.2952                 1.3012                 1.2487
 Frc consts  --      1.2016                 1.2939                 1.2605
 IR Inten    --      3.4565                 0.6253                 3.2421

                     55                     56                     57
                      A                      A                      A
 Frequencies --   1325.4740              1332.6520              1347.5631
 Red. masses --      1.3503                 1.3249                 1.2461
 Frc consts  --      1.3977                 1.3864                 1.3332
 IR Inten    --      2.0232                 0.3717                 2.8935

                     58                     59                     60
                      A                      A                      A
 Frequencies --   1351.0825              1359.5645              1373.4553
 Red. masses --      1.2326                 1.4618                 1.4008
 Frc consts  --      1.3256                 1.5920                 1.5569
 IR Inten    --      1.7874                 4.4162                 3.6058

                     61                     62                     63
                      A                      A                      A
 Frequencies --   1385.9321              1398.1135              1402.1744
 Red. masses --      1.2922                 1.3619                 1.3336
 Frc consts  --      1.4624                 1.5685                 1.5449
 IR Inten    --      9.3530                24.4530                18.9743

                     64                     65                     66
                      A                      A                      A
 Frequencies --   1416.3612              1418.3868              1433.0878
 Red. masses --      1.3571                 1.2520                 1.2587
 Frc consts  --      1.6040                 1.4840                 1.5230
 IR Inten    --     17.3033                 0.0261                 5.4794

                     67                     68                     69
                      A                      A                      A
 Frequencies --   1437.7277              1442.1168              1443.7529
 Red. masses --      1.2442                 1.3835                 1.3806
 Frc consts  --      1.5152                 1.6952                 1.6956
 IR Inten    --      7.0252                11.2950                15.0961

                     70                     71                     72
                      A                      A                      A
 Frequencies --   1494.7634              1511.7123              1520.4517
 Red. masses --      1.0896                 1.0681                 1.0776
 Frc consts  --      1.4344                 1.4381                 1.4678
 IR Inten    --      3.1931                 5.1429                 1.0921

                     73                     74                     75
                      A                      A                      A
 Frequencies --   1522.1246              1525.8762              1526.4302
 Red. masses --      1.0714                 1.0601                 1.0668
 Frc consts  --      1.4625                 1.4542                 1.4645
 IR Inten    --      4.2934                 1.6424                 1.2334

                     76                     77                     78
                      A                      A                      A
 Frequencies --   1529.6643              1530.8469              1531.4731
 Red. masses --      1.0562                 1.0578                 1.0748
 Frc consts  --      1.4561                 1.4605                 1.4852
 IR Inten    --      7.0863                 5.7013                 2.7793

                     79                     80                     81
                      A                      A                      A
 Frequencies --   1542.5129              1546.3047              1702.6639
 Red. masses --      1.1030                 1.0909                 1.0877
 Frc consts  --      1.5462                 1.5368                 1.8578
 IR Inten    --      2.6155                 4.0561                14.9115

                     82                     83                     84
                      A                      A                      A
 Frequencies --   2952.8144              2966.4411              3020.6729
 Red. masses --      1.0726                 1.0726                 1.0661
 Frc consts  --      5.5100                 5.5611                 5.7312
 IR Inten    --     33.5785                91.5487                28.9509

                     85                     86                     87
                      A                      A                      A
 Frequencies --   3032.8930              3034.0016              3034.9793
 Red. masses --      1.0613                 1.0591                 1.0447
 Frc consts  --      5.7518                 5.7439                 5.6695
 IR Inten    --     24.5299                31.9625                11.3729

                     88                     89                     90
                      A                      A                      A
 Frequencies --   3046.0917              3051.8030              3054.8536
 Red. masses --      1.0671                 1.0634                 1.0374
 Frc consts  --      5.8339                 5.8352                 5.7039
 IR Inten    --     37.2375                28.7378                26.4848

                     91                     92                     93
                      A                      A                      A
 Frequencies --   3063.1520              3068.4684              3072.1000
 Red. masses --      1.0875                 1.0851                 1.0892
 Frc consts  --      6.0120                 6.0195                 6.0569
 IR Inten    --     71.7402                24.2221                 5.4858

                     94                     95                     96
                      A                      A                      A
 Frequencies --   3073.4886              3077.5802              3083.6603
 Red. masses --      1.0861                 1.0966                 1.1012
 Frc consts  --      6.0450                 6.1193                 6.1698
 IR Inten    --     20.6999                25.5923                30.3860

                     97                     98                     99
                      A                      A                      A
 Frequencies --   3087.1538              3094.8527              3102.4115
 Red. masses --      1.0979                 1.0972                 1.1013
 Frc consts  --      6.1648                 6.1920                 6.2455
 IR Inten    --     76.3905                36.7666                 7.9514

                    100                    101                    102
                      A                      A                      A
 Frequencies --   3106.1434              3109.4148              3121.1930
 Red. masses --      1.1018                 1.1017                 1.1002
 Frc consts  --      6.2634                 6.2756                 6.3149
 IR Inten    --     42.4443               112.4421                38.9073

                    103                    104                    105
                      A                      A                      A
 Frequencies --   3131.7965              3483.8958              3579.2252
 Red. masses --      1.1027                 1.0524                 1.0882
 Frc consts  --      6.3723                 7.5262                 8.2135
 IR Inten    --     40.0003                 4.2373                 2.8574

 - Thermochemistry -
 -------------------
 Temperature   298.150 Kelvin.  Pressure   1.00000 Atm.
 Atom     1 has atomic number  6 and mass  12.00000

 Molecular mass:   184.19395 amu.
 Principal axes and moments of inertia in atomic units:
                           1         2         3
     Eigenvalues --  1956.192203148.787444052.47928
           X            0.99998   0.00608   0.00219
           Y           -0.00608   0.99998   0.00095
           Z           -0.00219  -0.00097   1.00000
 This molecule is an asymmetric top.
 Rotational symmetry number  1.
 Warning -- assumption of classical behavior for rotation
           may cause significant error
 Rotational temperatures (Kelvin)      0.04428     0.02751     0.02137
 Rotational constants (GHZ):           0.92258     0.57315     0.44534
 Zero-point vibrational energy     913374.5 (Joules/Mol)
                                  218.30175 (Kcal/Mol)
 Warning -- explicit consideration of  22 degrees of freedom as
           vibrations may cause significant error
 Vibrational temperatures:     40.87    53.84    97.41   107.90   156.43
          (Kelvin)            187.90   206.63   260.58   289.37   307.61
                              365.69   369.99   408.80   436.44   474.23
                              562.70   576.90   626.61   694.58   725.30
                              776.49   820.90   954.03  1095.39  1154.37
                             1180.92  1212.55  1217.88  1262.15  1278.73
                             1309.22  1320.50  1331.62  1382.09  1403.32
                             1430.93  1458.35  1465.68  1504.35  1538.50
                             1551.16  1575.40  1604.51  1615.37  1638.61
                             1665.96  1714.48  1732.68  1741.06  1747.33
                             1780.47  1805.42  1869.19  1883.29  1907.06
                             1917.39  1938.84  1943.91  1956.11  1976.10
                             1994.05  2011.57  2017.42  2037.83  2040.74
                             2061.89  2068.57  2074.88  2077.24  2150.63
                             2175.02  2187.59  2190.00  2195.40  2196.19
                             2200.85  2202.55  2203.45  2219.33  2224.79
                             2449.75  4248.44  4268.05  4346.07  4363.66
                             4365.25  4366.66  4382.65  4390.86  4395.25
                             4407.19  4414.84  4420.07  4422.06  4427.95
                             4436.70  4441.73  4452.80  4463.68  4469.05
                             4473.75  4490.70  4505.96  5012.55  5149.71

 Zero-point correction=                           0.347886 (Hartree/Particle)
 Thermal correction to Energy=                    0.363156
 Thermal correction to Enthalpy=                  0.364101
 Thermal correction to Gibbs Free Energy=         0.304901
 Sum of electronic and zero-point Energies=           -542.817329
 Sum of electronic and thermal Energies=              -542.802059
 Sum of electronic and thermal Enthalpies=            -542.801114
 Sum of electronic and thermal Free Energies=         -542.860314

                     E (Thermal)             CV                S
                      KCal/Mol        Cal/Mol-Kelvin    Cal/Mol-Kelvin
 Total                  227.884             57.366            124.595
 Electronic               0.000              0.000              0.000
 Translational            0.889              2.981             41.539
 Rotational               0.889              2.981             31.590
 Vibrational            226.107             51.404             51.466
 Vibration     1          0.593              1.984              5.938
 Vibration     2          0.594              1.982              5.391
 Vibration     3          0.598              1.970              4.219
 Vibration     4          0.599              1.966              4.018
 Vibration     5          0.606              1.942              3.292
 Vibration     6          0.612              1.923              2.937
 Vibration     7          0.616              1.910              2.755
 Vibration     8          0.630              1.865              2.317
 Vibration     9          0.638              1.838              2.123
 Vibration    10          0.644              1.820              2.011
 Vibration    11          0.665              1.756              1.701
 Vibration    12          0.667              1.751              1.681
 Vibration    13          0.683              1.703              1.509
 Vibration    14          0.695              1.667              1.398
 Vibration    15          0.712              1.616              1.262
 Vibration    16          0.759              1.489              0.996
 Vibration    17          0.767              1.468              0.959
 Vibration    18          0.796              1.393              0.841
 Vibration    19          0.839              1.288              0.703
 Vibration    20          0.859              1.241              0.648
 Vibration    21          0.895              1.162              0.566
 Vibration    22          0.927              1.095              0.503

 Optimization completed.
    -- Stationary point found.
 Normal termination of Gaussian 16 at Mon Dec 14 19:09:49 2020.

 ----------------------------------------------------------------------
 # B3LYP/6-311++G(d,p) empiricaldispersion=gd3bj scf=xqc pop=npa geom=c
 heck
 ----------------------------------------------------------------------

 ---------------------------------------
 CID_107178512_JID_3641_Energie_neutraal
 ---------------------------------------
 Structure from the checkpoint file:  "JID_3641.chk"
 Charge =  0 Multiplicity = 1

 SCF Done:  E(RB3LYP) =  -543.323534616     A.U. after   14 cycles
 Normal termination of Gaussian 16 at Mon Dec 14 19:15:46 2020.

 ----------------------------------------------------------------------
 # B3LYP/6-311++G(d,p) empiricaldispersion=gd3bj scf=xqc pop=npa geom=c
 heck
 ----------------------------------------------------------------------

 -------------------------------------
 CID_107178512_JID_3641_Energie_kation
 -------------------------------------
 Structure from the checkpoint file:  "JID_3641.chk"
 Charge =  1 Multiplicity = 2

 SCF Done:  E(UB3LYP) =  -543.054251787     A.U. after   19 cycles
 Normal termination of Gaussian 16 at Mon Dec 14 19:26:58 2020.
 Gaussian 16:  ES64L-G16RevA.03 25-Dec-2016

 ----------------------------------------------------------------------
 # B3LYP/6-311++G(d,p) empiricaldispersion=gd3bj scf=xqc pop=npa geom=c
 heck
 ----------------------------------------------------------------------

 ------------------------------------
 CID_107178512_JID_3641_Energie_anion
 ------------------------------------
 Structure from the checkpoint file:  "JID_3641.chk"
 Charge = -1 Multiplicity = 2

                         Standard orientation:
 ---------------------------------------------------------------------
 Center     Atomic      Atomic             Coordinates (Angstroms)
 Number     Number       Type             X           Y           Z
 ---------------------------------------------------------------------
      1          6           0        0.947605    3.048034   -0.428295
      2          6           0        1.460333    1.773576    0.248300
      3          7           0        1.529894    0.644169   -0.668508
      4          6           0        2.657483   -0.259359   -0.482267
      5          6           0        2.670816   -1.215204    0.729620
      6          7           0        1.977136   -2.477035    0.441646
      7          6           0        0.259293    0.050976   -1.062411
      8          6           0       -0.688462   -0.445192    0.072223
      9          6           0       -1.521194   -1.661555   -0.387690
     10          6           0       -2.694191   -1.023167   -1.143405
     11          6           0       -3.081770    0.160647   -0.238512
     12          6           0       -1.770078    0.605520    0.480439
     13          6           0       -1.952472    0.696912    1.997782
     14          1           0        1.599218    3.318061   -1.265345
     15          1           0        0.925679    3.879777    0.285310
     16          1           0       -0.066376    2.924159   -0.821820
     17          1           0        2.475437    1.961438    0.615914
     18          1           0        0.851242    1.560257    1.144818
     19          1           0        2.757351   -0.878677   -1.382628
     20          1           0        3.554313    0.370576   -0.426217
     21          1           0        3.715971   -1.473033    0.941955
     22          1           0        2.293370   -0.676587    1.618205
     23          1           0        2.075939   -3.110028    1.233676
     24          1           0        0.979056   -2.315110    0.338448
     25          1           0        0.501728   -0.788823   -1.723761
     26          1           0       -0.289167    0.775380   -1.680474
     27          1           0       -0.076302   -0.696310    0.945500
     28          1           0       -0.946681   -2.372634   -0.993124
     29          1           0       -1.903861   -2.207987    0.485263
     30          1           0       -3.523974   -1.715442   -1.320859
     31          1           0       -2.354222   -0.665547   -2.123442
     32          1           0       -3.812875   -0.173244    0.508822
     33          1           0       -3.550096    0.980289   -0.793238
     34          1           0       -1.472450    1.593661    0.115844
     35          1           0       -1.035788    1.039920    2.492209
     36          1           0       -2.756295    1.395118    2.259519
     37          1           0       -2.214597   -0.282283    2.418760
 ---------------------------------------------------------------------

 SCF Done:  E(UB3LYP) =  -543.308614540     A.U. after   29 cycles

 The electronic state is 2-A.
 Alpha  occ. eigenvalues --  -14.19775 -14.19076 -10.09177 -10.09080 -10.08998
 Alpha  occ. eigenvalues --  -10.08715 -10.07039 -10.06857 -10.06713 -10.06609
 Alpha  occ. eigenvalues --  -10.06301 -10.05991 -10.05598  -0.82286  -0.77667
 Alpha  occ. eigenvalues --   -0.74403  -0.65686  -0.64561  -0.64370  -0.60064
 Alpha  occ. eigenvalues --   -0.56814  -0.54173  -0.51907  -0.47484  -0.46317
 Alpha  occ. eigenvalues --   -0.44640  -0.40412  -0.38913  -0.38133  -0.37564
 Alpha  occ. eigenvalues --   -0.36394  -0.35324  -0.32868  -0.32791  -0.31260
 Alpha  occ. eigenvalues --   -0.30516  -0.29682  -0.29328  -0.28712  -0.27502
 Alpha  occ. eigenvalues --   -0.26609  -0.25969  -0.25191  -0.24147  -0.23972
 Alpha  occ. eigenvalues --   -0.23528  -0.22496  -0.22132  -0.21730  -0.21007
 Alpha  occ. eigenvalues --   -0.14566  -0.10235   0.04400
 Alpha virt. eigenvalues --    0.06476   0.06728   0.07468   0.08393   0.08593
 Alpha virt. eigenvalues --    0.09253   0.09563   0.09953   0.10709   0.11090
 Alpha virt. eigenvalues --    0.11596   0.11748   0.12112   0.12943   0.13313

  Beta  occ. eigenvalues --  -14.19775 -14.19051 -10.09161 -10.09073 -10.08992
  Beta  occ. eigenvalues --  -10.08692 -10.07033 -10.06851 -10.06701 -10.06592
  Beta  occ. eigenvalues --  -10.06281 -10.05970 -10.05568  -0.82274  -0.77624
  Beta  occ. eigenvalues --   -0.74381  -0.65657  -0.64527  -0.64345  -0.60023
  Beta  occ. eigenvalues --   -0.56766  -0.54120  -0.51852  -0.47434  -0.46272
  Beta  occ. eigenvalues --   -0.44607  -0.40373  -0.38890  -0.38099  -0.37526
  Beta  occ. eigenvalues --   -0.36361  -0.35291  -0.32837  -0.32760  -0.31236
  Beta  occ. eigenvalues --   -0.30486  -0.29652  -0.29299  -0.28679  -0.27464
  Beta  occ. eigenvalues --   -0.26572  -0.25937  -0.25167  -0.24124  -0.23942
  Beta  occ. eigenvalues --   -0.23504  -0.22470  -0.22096  -0.21699  -0.20987
  Beta  occ. eigenvalues --   -0.14536  -0.10226
  Beta virt. eigenvalues --    0.06491   0.07311   0.07464   0.07878   0.09036
  Beta virt. eigenvalues --    0.09088   0.09530   0.09782   0.10373   0.11110
  Beta virt. eigenvalues --    0.11538   0.11779   0.11976   0.12440   0.13169

 Mulliken charges and spin densities:
               1          2
     1  C    0.540316  -0.976500
     2  C   -0.594215   0.298788
     3  N    0.188907   0.118124
     4  C   -0.317740   0.070741
     5  C    0.776598  -1.054394
     6  N   -0.396523  -0.001829
     7  C    0.085935  -1.252027
     8  C   -0.305475   0.713640
     9  C    0.668343  -1.226257
    10  C   -0.877548   0.499901
    11  C    0.857917  -1.434053
    12  C   -1.179093   1.782720
    13  C    0.411991  -1.242475
    14  H    0.051054   0.087586
    15  H   -0.219201   0.357998
    16  H   -0.357528   0.492482
    17  H   -0.335791   0.479490
    18  H    0.399888  -0.299360
    19  H    0.142177  -0.013524
    20  H   -0.007705   0.172613
    21  H   -0.352679   0.520452
    22  H   -0.251281   0.385204
    23  H   -0.170461   0.412746
    24  H    0.343551  -0.081982
    25  H    0.078822   0.091128
    26  H    0.346711  -0.138150
    27  H    0.489494  -0.239268
    28  H    0.085580   0.039307
    29  H   -0.308577   0.479478
    30  H   -0.267926   0.444521
    31  H    0.082863   0.041748
    32  H    0.078585   0.075666
    33  H   -0.329469   0.481787
    34  H    0.451624  -0.321389
    35  H   -0.302296   0.425553
    36  H   -0.335120   0.485334
    37  H   -0.171730   0.324205
 Sum of Mulliken charges =  -1.00000   1.00000

 Dipole moment (field-independent basis, Debye):
    X=              0.1346    Y=              0.4704    Z=             -3.6507  Tot=              3.6834
 Quadrupole moment (field-independent basis, Debye-Ang):
   XX=           -152.4238   YY=           -141.4323   ZZ=           -124.2133
   XY=              3.8110   XZ=             -1.7984   YZ=              1.6880

 Summary of Natural Population Analysis:

                                       Natural Population
                Natural  -----------------------------------------------
    Atom  No    Charge         Core      Valence    Rydberg      Total
 -----------------------------------------------------------------------
      C    1   -0.28760      0.99966     2.28251    0.00543     3.28760
      C    2   -0.08569      0.99961     2.07507    0.01100     3.08569
      N    3   -0.28518      0.99971     2.77185    0.01362     3.78518
      C    4   -0.08211      0.99960     2.07032    0.01219     3.08211
      C    5   -0.10218      0.99963     2.09163    0.01092     3.10218
      N    6   -0.42544      0.99977     2.91475    0.01092     3.92544
      C    7   -0.07928      0.99959     2.06878    0.01091     3.07928
      C    8   -0.12928      0.99958     2.11852    0.01119     3.12928
      C    9   -0.19357      0.99962     2.18473    0.00922     3.19357
      C   10   -0.19157      0.99964     2.18396    0.00797     3.19157
      C   11   -0.18850      0.99962     2.18068    0.00820     3.18850
      C   12   -0.11330      0.99960     2.10296    0.01074     3.11330
      C   13   -0.28043      0.99964     2.27489    0.00590     3.28043
      H   14    0.09700      0.00000     0.40177    0.00123     0.40300
      H   15    0.09837      0.00000     0.40069    0.00094     0.40163
      H   16    0.09540      0.00000     0.40327    0.00133     0.40460
      H   17    0.09458      0.00000     0.40404    0.00138     0.40542
      H   18    0.08275      0.00000     0.41472    0.00253     0.41725
      H   19    0.09510      0.00000     0.40354    0.00137     0.40490
      H   20    0.09382      0.00000     0.40506    0.00111     0.40618
      H   21    0.09025      0.00000     0.40818    0.00157     0.40975
      H   22    0.08111      0.00000     0.41686    0.00202     0.41889
      H   23    0.17625      0.00000     0.32158    0.00217     0.32375
      H   24    0.17362      0.00000     0.32369    0.00269     0.32638
      H   25    0.09613      0.00000     0.40272    0.00114     0.40387
      H   26    0.09133      0.00000     0.40725    0.00143     0.40867
      H   27    0.10247      0.00000     0.39480    0.00273     0.39753
      H   28    0.09862      0.00000     0.40038    0.00100     0.40138
      H   29    0.09877      0.00000     0.39975    0.00148     0.40123
      H   30    0.09895      0.00000     0.40013    0.00093     0.40105
      H   31    0.09229      0.00000     0.40652    0.00119     0.40771
      H   32    0.09603      0.00000     0.40259    0.00137     0.40397
      H   33    0.09971      0.00000     0.39918    0.00111     0.40029
      H   34    0.09697      0.00000     0.40089    0.00214     0.40303
      H   35    0.09902      0.00000     0.39965    0.00133     0.40098
      H   36    0.09861      0.00000     0.40043    0.00095     0.40139
      H   37    0.09698      0.00000     0.40170    0.00132     0.40302
 =======================================================================
   * Total *   -0.00000     12.99527    38.84007    0.16466    52.00000

 Normal termination of Gaussian 16 at Mon Dec 14 19:43:24 2020.
