 Gaussian 16, Revision A.03,

 -----------------------------------------------------------
 # opt freq B3LYP/6-31G(d) empiricaldispersion=gd3bj scf=xqc
 -----------------------------------------------------------

 ------------------------------
 CID_82410028_JID_3280_neutraal
 ------------------------------
 Symbolic Z-matrix:
 Charge =  0 Multiplicity = 1

 SCF Done:  E(RB3LYP) =  -574.253844259     A.U. after   15 cycles
 SCF Done:  E(RB3LYP) =  -574.256915013     A.U. after   12 cycles
 SCF Done:  E(RB3LYP) =  -574.257195182     A.U. after   11 cycles
 SCF Done:  E(RB3LYP) =  -574.256853623     A.U. after   13 cycles
 SCF Done:  E(RB3LYP) =  -574.257224454     A.U. after   12 cycles
 SCF Done:  E(RB3LYP) =  -574.257247463     A.U. after    9 cycles
 SCF Done:  E(RB3LYP) =  -574.257248866     A.U. after    8 cycles
 SCF Done:  E(RB3LYP) =  -574.257250181     A.U. after    8 cycles
 SCF Done:  E(RB3LYP) =  -574.257252814     A.U. after    9 cycles
 SCF Done:  E(RB3LYP) =  -574.257261361     A.U. after   10 cycles
 SCF Done:  E(RB3LYP) =  -574.257841936     A.U. after    7 cycles
 SCF Done:  E(RB3LYP) =  -574.257841885     A.U. after    7 cycles
 SCF Done:  E(RB3LYP) =  -574.257842193     A.U. after    8 cycles
 SCF Done:  E(RB3LYP) =  -574.257842298     A.U. after    8 cycles
 SCF Done:  E(RB3LYP) =  -574.257842321     A.U. after    7 cycles
 Optimization completed.
    -- Stationary point found.
 Normal termination of Gaussian 16 at Wed Dec  9 23:02:00 2020.

 --------------------------------------------------------------------
 #N Geom=AllCheck Guess=TCheck SCRF=Check GenChk RB3LYP/6-31G(d) Freq
 --------------------------------------------------------------------

 Structure from the checkpoint file:  "JID_3280.chk"
 ------------------------------
 CID_82410028_JID_3280_neutraal
 ------------------------------
 Charge =  0 Multiplicity = 1

 SCF Done:  E(RB3LYP) =  -574.257842321     A.U. after    1 cycles

  Exact polarizability: 141.738   1.316 133.771   2.963  -1.876  76.619
 Approx polarizability: 185.206  -0.011 233.431   6.157  -8.721 115.481

                      1                      2                      3
                      A                      A                      A
 Frequencies --     53.0385                69.1812                88.9652
 Red. masses --      1.0507                 3.0994                 4.2211
 Frc consts  --      0.0017                 0.0087                 0.0197
 IR Inten    --      0.0458                 0.4731                 0.9432

                      4                      5                      6
                      A                      A                      A
 Frequencies --    154.8119               171.5008               182.8397
 Red. masses --      7.1195                 3.1001                 2.8457
 Frc consts  --      0.1005                 0.0537                 0.0561
 IR Inten    --      6.7597                 2.6052                 1.0837

                      7                      8                      9
                      A                      A                      A
 Frequencies --    223.8015               245.7415               256.3636
 Red. masses --      1.3732                 1.5346                 2.7571
 Frc consts  --      0.0405                 0.0546                 0.1068
 IR Inten    --      2.1579                 2.2181                 0.4620

                     10                     11                     12
                      A                      A                      A
 Frequencies --    277.5548               342.0445               376.7571
 Red. masses --      3.5250                 3.0645                 3.4085
 Frc consts  --      0.1600                 0.2112                 0.2851
 IR Inten    --      1.3620                 0.9896                 1.0240

                     13                     14                     15
                      A                      A                      A
 Frequencies --    406.9338               423.6507               467.3251
 Red. masses --      2.3895                 2.6452                 3.0216
 Frc consts  --      0.2331                 0.2797                 0.3888
 IR Inten    --      0.7766                 2.6210                 1.9712

                     16                     17                     18
                      A                      A                      A
 Frequencies --    503.8019               512.9045               595.5605
 Red. masses --      1.3664                 3.3658                 3.7317
 Frc consts  --      0.2043                 0.5217                 0.7799
 IR Inten    --     65.5929                 8.9225                 1.1692

                     19                     20                     21
                      A                      A                      A
 Frequencies --    623.1048               650.8408               674.6199
 Red. masses --      3.9783                 3.1363                 3.5950
 Frc consts  --      0.9101                 0.7828                 0.9640
 IR Inten    --      7.8305                17.2955                20.9928

                     22                     23                     24
                      A                      A                      A
 Frequencies --    689.1324               787.7891               803.0549
 Red. masses --      4.5440                 2.9362                 3.3203
 Frc consts  --      1.2714                 1.0736                 1.2616
 IR Inten    --      2.9078                 8.6746                12.9433

                     25                     26                     27
                      A                      A                      A
 Frequencies --    893.3883               931.2460               968.4725
 Red. masses --      2.6722                 2.7220                 2.3650
 Frc consts  --      1.2566                 1.3908                 1.3069
 IR Inten    --     12.2341                15.1186                15.3693

                     28                     29                     30
                      A                      A                      A
 Frequencies --    998.8609              1015.4365              1036.2381
 Red. masses --      1.8413                 1.7564                 1.7848
 Frc consts  --      1.0824                 1.0671                 1.1291
 IR Inten    --      8.4933                 1.3358                 2.0552

                     31                     32                     33
                      A                      A                      A
 Frequencies --   1052.1088              1061.0645              1070.8215
 Red. masses --      2.1928                 2.3050                 1.4643
 Frc consts  --      1.4301                 1.5290                 0.9893
 IR Inten    --     17.4629                30.3772                 1.2545

                     34                     35                     36
                      A                      A                      A
 Frequencies --   1127.6997              1164.5217              1173.5951
 Red. masses --      3.2430                 1.7119                 1.6563
 Frc consts  --      2.4299                 1.3678                 1.3441
 IR Inten    --     11.1446                 4.8041                10.7694

                     37                     38                     39
                      A                      A                      A
 Frequencies --   1200.8158              1206.8751              1239.5502
 Red. masses --      1.6028                 1.3345                 2.8620
 Frc consts  --      1.3617                 1.1452                 2.5909
 IR Inten    --      8.3437                 9.4663                 1.1659

                     40                     41                     42
                      A                      A                      A
 Frequencies --   1250.0879              1316.5005              1331.5151
 Red. masses --      1.5299                 1.9401                 1.6252
 Frc consts  --      1.4086                 1.9811                 1.6977
 IR Inten    --      2.8988                 3.1228                19.3031

                     43                     44                     45
                      A                      A                      A
 Frequencies --   1358.0909              1375.2329              1400.1426
 Red. masses --      1.4286                 2.3790                 1.2770
 Frc consts  --      1.5525                 2.6510                 1.4750
 IR Inten    --      4.9118                17.8576                 3.5972

                     46                     47                     48
                      A                      A                      A
 Frequencies --   1409.3980              1429.8583              1446.9603
 Red. masses --      1.8439                 1.4335                 1.3525
 Frc consts  --      2.1581                 1.7268                 1.6684
 IR Inten    --     16.2952                27.4235                 9.0370

                     49                     50                     51
                      A                      A                      A
 Frequencies --   1478.7079              1489.5821              1493.7770
 Red. masses --      1.2161                 4.0913                 1.7564
 Frc consts  --      1.5666                 5.3486                 2.3091
 IR Inten    --     14.6970                57.6464                55.3199

                     52                     53                     54
                      A                      A                      A
 Frequencies --   1502.7303              1511.0453              1511.1411
 Red. masses --      1.1296                 1.0859                 1.0582
 Frc consts  --      1.5029                 1.4608                 1.4237
 IR Inten    --      2.5738                 0.9004                 9.1920

                     55                     56                     57
                      A                      A                      A
 Frequencies --   1514.6198              1522.2809              1527.3252
 Red. masses --      1.0517                 1.3069                 1.3836
 Frc consts  --      1.4214                 1.7844                 1.9016
 IR Inten    --      9.6723                 1.1461                 3.9471

                     58                     59                     60
                      A                      A                      A
 Frequencies --   1547.3128              1583.6171              1659.7046
 Red. masses --      1.0557                 3.8334                 5.3796
 Frc consts  --      1.4892                 5.6641                 8.7309
 IR Inten    --      3.4645                30.8382                 9.4167

                     61                     62                     63
                      A                      A                      A
 Frequencies --   1766.8798              2894.3554              2967.0988
 Red. masses --      8.9856                 1.0815                 1.0580
 Frc consts  --     16.5276                 5.3379                 5.4880
 IR Inten    --    300.0558               171.0028                64.0656

                     64                     65                     66
                      A                      A                      A
 Frequencies --   3016.2496              3031.4038              3036.8611
 Red. masses --      1.0621                 1.0725                 1.0414
 Frc consts  --      5.6932                 5.8069                 5.6588
 IR Inten    --     49.7386                31.8786                49.2207

                     67                     68                     69
                      A                      A                      A
 Frequencies --   3042.9391              3055.9532              3075.1233
 Red. masses --      1.0846                 1.0741                 1.0744
 Frc consts  --      5.9173                 5.9102                 5.9859
 IR Inten    --     11.4140                74.6946                49.4685

                     70                     71                     72
                      A                      A                      A
 Frequencies --   3081.9546              3097.7079              3116.7981
 Red. masses --      1.1015                 1.1067                 1.0992
 Frc consts  --      6.1642                 6.2568                 6.2914
 IR Inten    --     19.6595                42.9180                11.2627

                     73                     74                     75
                      A                      A                      A
 Frequencies --   3122.1627              3152.3702              3639.4917
 Red. masses --      1.0958                 1.0955                 1.0797
 Frc consts  --      6.2934                 6.4139                 8.4262
 IR Inten    --     26.8278                 8.1997                45.2938

 - Thermochemistry -
 -------------------
 Temperature   298.150 Kelvin.  Pressure   1.00000 Atm.
 Atom     1 has atomic number  6 and mass  12.00000

 Molecular mass:   178.11061 amu.
 Principal axes and moments of inertia in atomic units:
                           1         2         3
     Eigenvalues --  1453.646772774.591903867.66008
           X            0.99967  -0.02573  -0.00258
           Y            0.02575   0.99965   0.00635
           Z            0.00241  -0.00642   0.99998
 This molecule is an asymmetric top.
 Rotational symmetry number  1.
 Warning -- assumption of classical behavior for rotation
           may cause significant error
 Rotational temperatures (Kelvin)      0.05958     0.03122     0.02239
 Rotational constants (GHZ):           1.24153     0.65045     0.46662
 Zero-point vibrational energy     606979.2 (Joules/Mol)
                                  145.07150 (Kcal/Mol)
 Warning -- explicit consideration of  18 degrees of freedom as
           vibrations may cause significant error
 Vibrational temperatures:     76.31    99.54   128.00   222.74   246.75
          (Kelvin)            263.07   322.00   353.57   368.85   399.34
                              492.13   542.07   585.49   609.54   672.38
                              724.86   737.96   856.88   896.51   936.41
                              970.63   991.51  1133.45  1155.42  1285.39
                             1339.86  1393.42  1437.14  1460.99  1490.92
                             1513.75  1526.64  1540.67  1622.51  1675.49
                             1688.54  1727.71  1736.42  1783.44  1798.60
                             1894.15  1915.75  1953.99  1978.65  2014.49
                             2027.81  2057.25  2081.85  2127.53  2143.18
                             2149.21  2162.09  2174.06  2174.19  2179.20
                             2190.22  2197.48  2226.24  2278.47  2387.94
                             2542.15  4164.33  4268.99  4339.71  4361.51
                             4369.37  4378.11  4396.84  4424.42  4434.25
                             4456.91  4484.38  4492.10  4535.56  5236.42

 Zero-point correction=                           0.231186 (Hartree/Particle)
 Thermal correction to Energy=                    0.243571
 Thermal correction to Enthalpy=                  0.244515
 Thermal correction to Gibbs Free Energy=         0.192617
 Sum of electronic and zero-point Energies=           -574.026656
 Sum of electronic and thermal Energies=              -574.014272
 Sum of electronic and thermal Enthalpies=            -574.013328
 Sum of electronic and thermal Free Energies=         -574.065226

                     E (Thermal)             CV                S
                      KCal/Mol        Cal/Mol-Kelvin    Cal/Mol-Kelvin
 Total                  152.843             46.941            109.229
 Electronic               0.000              0.000              0.000
 Translational            0.889              2.981             41.439
 Rotational               0.889              2.981             31.123
 Vibrational            151.065             40.980             36.667
 Vibration     1          0.596              1.976              4.701
 Vibration     2          0.598              1.969              4.177
 Vibration     3          0.602              1.957              3.683
 Vibration     4          0.620              1.897              2.612
 Vibration     5          0.626              1.878              2.419
 Vibration     6          0.630              1.863              2.299
 Vibration     7          0.649              1.805              1.928
 Vibration     8          0.660              1.770              1.761
 Vibration     9          0.666              1.752              1.686
 Vibration    10          0.679              1.715              1.549
 Vibration    11          0.721              1.591              1.203
 Vibration    12          0.747              1.520              1.052
 Vibration    13          0.772              1.455              0.938
 Vibration    14          0.786              1.419              0.880
 Vibration    15          0.825              1.323              0.745
 Vibration    16          0.859              1.242              0.649
 Vibration    17          0.868              1.221              0.627
 Vibration    18          0.953              1.041              0.457

 Optimization completed.
    -- Stationary point found.
 Normal termination of Gaussian 16 at Wed Dec  9 23:08:59 2020.

 ----------------------------------------------------------------------
 # B3LYP/6-311++G(d,p) empiricaldispersion=gd3bj scf=xqc pop=npa geom=c
 heck
 ----------------------------------------------------------------------

 --------------------------------------
 CID_82410028_JID_3280_Energie_neutraal
 --------------------------------------
 Structure from the checkpoint file:  "JID_3280.chk"
 Charge =  0 Multiplicity = 1

 SCF Done:  E(RB3LYP) =  -574.415307210     A.U. after   15 cycles
 Normal termination of Gaussian 16 at Wed Dec  9 23:11:35 2020.

 ----------------------------------------------------------------------
 # B3LYP/6-311++G(d,p) empiricaldispersion=gd3bj scf=xqc pop=npa geom=c
 heck
 ----------------------------------------------------------------------

 ------------------------------------
 CID_82410028_JID_3280_Energie_kation
 ------------------------------------
 Structure from the checkpoint file:  "JID_3280.chk"
 Charge =  1 Multiplicity = 2

 SCF Done:  E(UB3LYP) =  -574.136117499     A.U. after   25 cycles
 Normal termination of Gaussian 16 at Wed Dec  9 23:17:11 2020.
 Gaussian 16:  ES64L-G16RevA.03 25-Dec-2016

 ----------------------------------------------------------------------
 # B3LYP/6-311++G(d,p) empiricaldispersion=gd3bj scf=xqc pop=npa geom=c
 heck
 ----------------------------------------------------------------------

 -----------------------------------
 CID_82410028_JID_3280_Energie_anion
 -----------------------------------
 Structure from the checkpoint file:  "JID_3280.chk"
 Charge = -1 Multiplicity = 2

                         Standard orientation:
 ---------------------------------------------------------------------
 Center     Atomic      Atomic             Coordinates (Angstroms)
 Number     Number       Type             X           Y           Z
 ---------------------------------------------------------------------
      1          6           0        3.373655   -1.311814    0.307653
      2          6           0        1.961157   -0.864470    0.116473
      3          6           0        1.402821    0.406977   -0.048114
      4          6           0       -0.019553    0.238974   -0.193655
      5          6           0       -0.281454   -1.103569   -0.124476
      6          7           0        0.927583   -1.760767    0.069358
      7          6           0       -1.632282   -1.729775   -0.223834
      8          6           0       -2.607987   -0.639256   -0.747550
      9          7           0       -2.445872    0.671938   -0.123398
     10          6           0       -1.120733    1.244834   -0.406331
     11          6           0       -2.754841    0.661527    1.301176
     12          6           0        2.120610    1.664834   -0.057989
     13          8           0        1.600691    2.762293   -0.214105
     14          1           0        3.495908   -1.880138    1.238827
     15          1           0        4.047095   -0.453604    0.354573
     16          1           0        3.711662   -1.952594   -0.517346
     17          1           0        1.034020   -2.761533    0.153958
     18          1           0       -1.969337   -2.106593    0.753143
     19          1           0       -1.639430   -2.588714   -0.909188
     20          1           0       -3.643013   -0.969908   -0.606652
     21          1           0       -2.445387   -0.513182   -1.824912
     22          1           0       -1.108310    1.604136   -1.444888
     23          1           0       -0.970275    2.128767    0.218530
     24          1           0       -2.043079    0.084551    1.918617
     25          1           0       -2.761293    1.690542    1.675148
     26          1           0       -3.755662    0.240712    1.450157
     27          1           0        3.221242    1.591454    0.091025
 ---------------------------------------------------------------------

 SCF Done:  E(UB3LYP) =  -574.408872983     A.U. after   33 cycles
 SCF Done:  E(UB3LYP) =  -574.408872983     a.u. after    1 cycles

 The electronic state is 2-A.
 Alpha  occ. eigenvalues --  -18.98892 -14.25135 -14.20490 -10.13400 -10.10964
 Alpha  occ. eigenvalues --  -10.09817 -10.09132 -10.09053 -10.09030 -10.07516
 Alpha  occ. eigenvalues --  -10.07351 -10.05695 -10.05491  -0.91787  -0.87797
 Alpha  occ. eigenvalues --   -0.82807  -0.68868  -0.68814  -0.65291  -0.61342
 Alpha  occ. eigenvalues --   -0.59157  -0.54983  -0.51827  -0.49855  -0.44382
 Alpha  occ. eigenvalues --   -0.43794  -0.39956  -0.37744  -0.36832  -0.35666
 Alpha  occ. eigenvalues --   -0.35277  -0.33751  -0.31895  -0.31706  -0.30686
 Alpha  occ. eigenvalues --   -0.30350  -0.29788  -0.28583  -0.27596  -0.27177
 Alpha  occ. eigenvalues --   -0.26854  -0.26488  -0.24937  -0.23964  -0.14250
 Alpha  occ. eigenvalues --   -0.13949  -0.11741  -0.10578   0.04247
 Alpha virt. eigenvalues --    0.06343   0.06796   0.07894   0.08553   0.09431
 Alpha virt. eigenvalues --    0.09923   0.10193   0.11137   0.11228   0.11798
 Alpha virt. eigenvalues --    0.12371   0.13180   0.13345   0.14353   0.14716

  Beta  occ. eigenvalues --  -18.98817 -14.25074 -14.20491 -10.13336 -10.10918
  Beta  occ. eigenvalues --  -10.09808 -10.09141 -10.09052 -10.09017 -10.07481
  Beta  occ. eigenvalues --  -10.07302 -10.05704 -10.05475  -0.91646  -0.87725
  Beta  occ. eigenvalues --   -0.82798  -0.68796  -0.68768  -0.65233  -0.61301
  Beta  occ. eigenvalues --   -0.59111  -0.54857  -0.51746  -0.49783  -0.44322
  Beta  occ. eigenvalues --   -0.43724  -0.39883  -0.37717  -0.36775  -0.35615
  Beta  occ. eigenvalues --   -0.35236  -0.33655  -0.31846  -0.31635  -0.30613
  Beta  occ. eigenvalues --   -0.30304  -0.29741  -0.28499  -0.27560  -0.27033
  Beta  occ. eigenvalues --   -0.26693  -0.26442  -0.24859  -0.23940  -0.14156
  Beta  occ. eigenvalues --   -0.13849  -0.11729  -0.10449
  Beta virt. eigenvalues --    0.06754   0.07015   0.07589   0.08585   0.09016
  Beta virt. eigenvalues --    0.09659   0.10375   0.10756   0.11471   0.11640
  Beta virt. eigenvalues --    0.12244   0.12621   0.13336   0.13576   0.14461

 Mulliken charges and spin densities:
               1          2
     1  C    2.485009  -2.820458
     2  C   -2.509739   1.533475
     3  C    1.681908  -0.727034
     4  C    1.898297  -0.745294
     5  C   -0.828566   0.510090
     6  N   -0.427314   0.441739
     7  C    0.565435  -1.035824
     8  C   -0.450130   0.064478
     9  N    0.103916   0.036003
    10  C   -1.044175  -0.036935
    11  C    0.047034  -0.427124
    12  C   -0.472924   0.113513
    13  O   -0.309155   0.023046
    14  H   -0.366151   0.528566
    15  H   -0.093310   0.222198
    16  H   -0.552640   0.738528
    17  H   -0.694448   1.017680
    18  H   -0.126707   0.298945
    19  H   -0.567866   0.742954
    20  H    0.085279   0.085643
    21  H    0.074745   0.074209
    22  H    0.156696   0.027870
    23  H    0.175895   0.014093
    24  H    0.001677   0.142636
    25  H    0.138814  -0.012084
    26  H   -0.016233   0.152966
    27  H    0.044654   0.036119
 Sum of Mulliken charges =  -1.00000   1.00000

 Dipole moment (field-independent basis, Debye):
    X=             -4.1940    Y=              5.3225    Z=              0.7622  Tot=              6.8191
 Quadrupole moment (field-independent basis, Debye-Ang):
   XX=           -126.6870   YY=           -146.9035   ZZ=           -101.4219
   XY=              8.0244   XZ=              1.9274   YZ=              0.8942

 Summary of Natural Population Analysis:

                                       Natural Population
                Natural  -----------------------------------------------
    Atom  No    Charge         Core      Valence    Rydberg      Total
 -----------------------------------------------------------------------
      C    1   -0.30398      0.99963     2.29823    0.00612     3.30398
      C    2    0.12326      0.99952     1.86479    0.01242     2.87674
      C    3   -0.11998      0.99941     2.10946    0.01111     3.11998
      C    4   -0.04198      0.99940     2.03244    0.01014     3.04198
      C    5    0.06872      0.99943     1.91902    0.01283     2.93128
      N    6   -0.25877      0.99962     2.74815    0.01100     3.75877
      C    7   -0.21495      0.99960     2.20558    0.00977     3.21495
      C    8   -0.07822      0.99963     2.06661    0.01198     3.07822
      N    9   -0.27842      0.99975     2.76578    0.01289     3.77842
      C   10   -0.08739      0.99958     2.07743    0.01038     3.08739
      C   11   -0.17857      0.99965     2.17183    0.00709     3.17857
      C   12    0.21092      0.99965     1.77008    0.01936     2.78908
      O   13   -0.29501      0.99989     3.28868    0.00645     4.29501
      H   14    0.10801      0.00000     0.39073    0.00126     0.39199
      H   15    0.10620      0.00000     0.39263    0.00118     0.39380
      H   16    0.11313      0.00000     0.38352    0.00335     0.38687
      H   17    0.20952      0.00000     0.26563    0.02485     0.29048
      H   18    0.10181      0.00000     0.39662    0.00157     0.39819
      H   19    0.10894      0.00000     0.38912    0.00194     0.39106
      H   20    0.09298      0.00000     0.40604    0.00099     0.40702
      H   21    0.09385      0.00000     0.40490    0.00125     0.40615
      H   22    0.09864      0.00000     0.40013    0.00123     0.40136
      H   23    0.10683      0.00000     0.39182    0.00135     0.39317
      H   24    0.08491      0.00000     0.41360    0.00149     0.41509
      H   25    0.09263      0.00000     0.40637    0.00100     0.40737
      H   26    0.09143      0.00000     0.40755    0.00102     0.40857
      H   27    0.04551      0.00000     0.45202    0.00246     0.45449
 =======================================================================
   * Total *    0.00000     12.99475    34.81877    0.18648    48.00000

 Normal termination of Gaussian 16 at Wed Dec  9 23:24:41 2020.
