 Gaussian 16, Revision A.03,

 -----------------------------------------------------------
 # opt freq B3LYP/6-31G(d) empiricaldispersion=gd3bj scf=xqc
 -----------------------------------------------------------

 -------------------------------
 CID_113774460_JID_7012_neutraal
 -------------------------------
 Symbolic Z-matrix:
 Charge =  0 Multiplicity = 1

 SCF Done:  E(RB3LYP) =  -712.838940178     A.U. after   14 cycles
 SCF Done:  E(RB3LYP) =  -712.843577637     A.U. after   12 cycles
 SCF Done:  E(RB3LYP) =  -712.844412393     A.U. after   12 cycles
 SCF Done:  E(RB3LYP) =  -712.844794678     A.U. after   11 cycles
 SCF Done:  E(RB3LYP) =  -712.844948174     A.U. after   11 cycles
 SCF Done:  E(RB3LYP) =  -712.845076524     A.U. after   10 cycles
 SCF Done:  E(RB3LYP) =  -712.845131546     A.U. after   11 cycles
 SCF Done:  E(RB3LYP) =  -712.845142430     A.U. after   10 cycles
 SCF Done:  E(RB3LYP) =  -712.845149071     A.U. after    9 cycles
 SCF Done:  E(RB3LYP) =  -712.845155694     A.U. after   10 cycles
 SCF Done:  E(RB3LYP) =  -712.845156987     A.U. after    9 cycles
 SCF Done:  E(RB3LYP) =  -712.845157809     A.U. after    9 cycles
 SCF Done:  E(RB3LYP) =  -712.845158177     A.U. after    7 cycles
 SCF Done:  E(RB3LYP) =  -712.845158238     A.U. after    7 cycles
 Optimization completed.
    -- Stationary point found.
 Normal termination of Gaussian 16 at Mon Dec 14 16:39:51 2020.

 --------------------------------------------------------------------
 #N Geom=AllCheck Guess=TCheck SCRF=Check GenChk RB3LYP/6-31G(d) Freq
 --------------------------------------------------------------------

 Structure from the checkpoint file:  "JID_7012.chk"
 -------------------------------
 CID_113774460_JID_7012_neutraal
 -------------------------------
 Charge =  0 Multiplicity = 1

 SCF Done:  E(RB3LYP) =  -712.845158238     A.U. after    1 cycles

  Exact polarizability: 232.212  -7.046 170.702  -9.833  -9.048 123.253
 Approx polarizability: 296.587  -8.905 245.026 -20.621 -21.520 186.221

 ******    1 imaginary frequencies (negative Signs) ******

                      1                      2                      3
                      A                      A                      A
 Frequencies --    -41.5862                16.5280                28.8965
 Red. masses --      1.1207                 3.1194                 3.2786
 Frc consts  --      0.0011                 0.0005                 0.0016
 IR Inten    --      0.1340                 0.3637                 0.0455

                      4                      5                      6
                      A                      A                      A
 Frequencies --     37.2582                55.2594                74.2473
 Red. masses --      2.8868                 2.9241                 2.5955
 Frc consts  --      0.0024                 0.0053                 0.0084
 IR Inten    --      0.6960                 0.1526                 0.7536

                      7                      8                      9
                      A                      A                      A
 Frequencies --     93.7480                98.5694               107.0341
 Red. masses --      3.2615                 2.7437                 2.9607
 Frc consts  --      0.0169                 0.0157                 0.0200
 IR Inten    --      0.9349                 0.4014                 0.2319

                     10                     11                     12
                      A                      A                      A
 Frequencies --    146.1539               163.6009               177.4742
 Red. masses --      2.8125                 1.9180                 1.6839
 Frc consts  --      0.0354                 0.0302                 0.0312
 IR Inten    --      2.9583                 0.7675                 1.0120

                     13                     14                     15
                      A                      A                      A
 Frequencies --    203.4291               221.2598               227.6226
 Red. masses --      1.9313                 1.3278                 1.7065
 Frc consts  --      0.0471                 0.0383                 0.0521
 IR Inten    --      0.5832                 1.1847                 0.8560

                     16                     17                     18
                      A                      A                      A
 Frequencies --    240.5015               241.1906               262.7709
 Red. masses --      1.8060                 1.6027                 1.6613
 Frc consts  --      0.0615                 0.0549                 0.0676
 IR Inten    --      0.9808                 0.5356                 0.4389

                     19                     20                     21
                      A                      A                      A
 Frequencies --    290.0785               309.9502               320.0728
 Red. masses --      1.8118                 2.4886                 2.7285
 Frc consts  --      0.0898                 0.1409                 0.1647
 IR Inten    --      1.3238                 1.8756                 1.6643

                     22                     23                     24
                      A                      A                      A
 Frequencies --    330.0184               360.3050               419.4018
 Red. masses --      2.4267                 3.1441                 2.3940
 Frc consts  --      0.1557                 0.2405                 0.2481
 IR Inten    --      2.0541                 1.0016                 1.8149

                     25                     26                     27
                      A                      A                      A
 Frequencies --    455.0850               493.4324               519.1528
 Red. masses --      4.2699                 2.9468                 2.5544
 Frc consts  --      0.5210                 0.4227                 0.4056
 IR Inten    --      2.7785                 1.3003                 3.6071

                     28                     29                     30
                      A                      A                      A
 Frequencies --    550.0268               603.7913               628.6575
 Red. masses --      2.4838                 2.8619                 5.3246
 Frc consts  --      0.4427                 0.6147                 1.2398
 IR Inten    --      3.7151                 0.6844                 4.3562

                     31                     32                     33
                      A                      A                      A
 Frequencies --    639.5471               690.5669               746.0693
 Red. masses --      3.3749                 4.1080                 2.6690
 Frc consts  --      0.8133                 1.1542                 0.8753
 IR Inten    --      5.9328                10.6430                14.9371

                     34                     35                     36
                      A                      A                      A
 Frequencies --    752.3674               790.0581               793.6573
 Red. masses --      1.6370                 1.4719                 1.2886
 Frc consts  --      0.5460                 0.5413                 0.4782
 IR Inten    --     19.9911                10.3624                23.0294

                     37                     38                     39
                      A                      A                      A
 Frequencies --    803.2507               824.1853               856.3843
 Red. masses --      1.3767                 2.1143                 3.5795
 Frc consts  --      0.5234                 0.8462                 1.5467
 IR Inten    --     18.1540                 6.7628                11.9878

                     40                     41                     42
                      A                      A                      A
 Frequencies --    898.7372               906.7239               916.3517
 Red. masses --      2.2595                 1.5777                 1.5724
 Frc consts  --      1.0753                 0.7642                 0.7779
 IR Inten    --      3.0076                13.3995                 2.7337

                     43                     44                     45
                      A                      A                      A
 Frequencies --    935.9000               981.3221               992.0111
 Red. masses --      1.3676                 2.0756                 1.8190
 Frc consts  --      0.7058                 1.1777                 1.0547
 IR Inten    --      9.0199                 4.2135                 0.2154

                     46                     47                     48
                      A                      A                      A
 Frequencies --   1027.8980              1032.5500              1062.1614
 Red. masses --      1.6449                 5.9255                 1.8150
 Frc consts  --      1.0240                 3.7222                 1.2065
 IR Inten    --      8.2258                15.2042                 5.5266

                     49                     50                     51
                      A                      A                      A
 Frequencies --   1066.9980              1073.8890              1089.7072
 Red. masses --      1.7649                 1.5968                 1.9280
 Frc consts  --      1.1839                 1.0850                 1.3489
 IR Inten    --     31.5808                10.6960                 5.3139

                     52                     53                     54
                      A                      A                      A
 Frequencies --   1094.8797              1104.6773              1111.0973
 Red. masses --      1.8667                 1.8114                 1.5449
 Frc consts  --      1.3184                 1.3024                 1.1237
 IR Inten    --     12.6409                 3.8821                27.5671

                     55                     56                     57
                      A                      A                      A
 Frequencies --   1150.4613              1159.0108              1161.0608
 Red. masses --      2.4629                 2.0834                 1.3122
 Frc consts  --      1.9206                 1.6489                 1.0422
 IR Inten    --     91.3172                20.5185                 0.5786

                     58                     59                     60
                      A                      A                      A
 Frequencies --   1184.0578              1199.2894              1220.4093
 Red. masses --      2.2656                 2.1937                 2.1464
 Frc consts  --      1.8714                 1.8590                 1.8835
 IR Inten    --      2.9847                15.3222                 7.1991

                     61                     62                     63
                      A                      A                      A
 Frequencies --   1245.6738              1284.7416              1294.0599
 Red. masses --      2.1055                 1.3322                 1.3129
 Frc consts  --      1.9249                 1.2955                 1.2954
 IR Inten    --     28.9442                 1.7616                 1.9301

                     64                     65                     66
                      A                      A                      A
 Frequencies --   1314.4670              1343.2087              1350.7846
 Red. masses --      1.2238                 2.7875                 1.5900
 Frc consts  --      1.2459                 2.9632                 1.7093
 IR Inten    --      1.3088                 5.0067                17.1870

                     67                     68                     69
                      A                      A                      A
 Frequencies --   1367.9674              1369.3152              1394.1313
 Red. masses --      1.4988                 1.2406                 1.3845
 Frc consts  --      1.6525                 1.3705                 1.5854
 IR Inten    --      8.0849                25.5671                 5.4776

                     70                     71                     72
                      A                      A                      A
 Frequencies --   1403.6624              1420.3057              1426.2481
 Red. masses --      1.6599                 1.3621                 1.9029
 Frc consts  --      1.9269                 1.6190                 2.2807
 IR Inten    --      2.4298                 3.3807                 6.5647

                     73                     74                     75
                      A                      A                      A
 Frequencies --   1431.1713              1435.0646              1442.1278
 Red. masses --      1.2895                 1.2920                 1.3288
 Frc consts  --      1.5561                 1.5677                 1.6282
 IR Inten    --      9.2880                 2.9807                14.1628

                     76                     77                     78
                      A                      A                      A
 Frequencies --   1447.1545              1473.7575              1490.2411
 Red. masses --      1.4492                 1.6570                 2.5053
 Frc consts  --      1.7882                 2.1204                 3.2782
 IR Inten    --      9.1075                42.2675                22.9473

                     79                     80                     81
                      A                      A                      A
 Frequencies --   1502.1333              1502.8988              1506.1485
 Red. masses --      1.8473                 1.0477                 1.1644
 Frc consts  --      2.4559                 1.3943                 1.5563
 IR Inten    --      5.0198                 4.8298                16.6803

                     82                     83                     84
                      A                      A                      A
 Frequencies --   1511.4921              1513.4094              1520.7053
 Red. masses --      1.0944                 1.1972                 1.1152
 Frc consts  --      1.4731                 1.6155                 1.5195
 IR Inten    --     16.4233                 4.6791                 6.3449

                     85                     86                     87
                      A                      A                      A
 Frequencies --   1523.5285              1527.0659              1527.9213
 Red. masses --      1.0969                 1.0429                 1.0557
 Frc consts  --      1.5001                 1.4328                 1.4521
 IR Inten    --      6.5100                 2.4756                 5.7724

                     88                     89                     90
                      A                      A                      A
 Frequencies --   1529.5296              1535.6303              1541.4580
 Red. masses --      1.0712                 1.0765                 1.1889
 Frc consts  --      1.4765                 1.4957                 1.6644
 IR Inten    --      4.6757                12.4576                 3.2207

                     91                     92                     93
                      A                      A                      A
 Frequencies --   1543.0619              1548.0613              1551.4415
 Red. masses --      1.0874                 1.0681                 1.2167
 Frc consts  --      1.5255                 1.5081                 1.7254
 IR Inten    --     18.9464                 7.1641                 7.5656

                     94                     95                     96
                      A                      A                      A
 Frequencies --   1606.2920              1732.0427              2933.0820
 Red. masses --      5.8386                 7.2213                 1.0727
 Frc consts  --      8.8758                12.7639                 5.4374
 IR Inten    --     52.0796                 2.5144                80.2801

                     97                     98                     99
                      A                      A                      A
 Frequencies --   3033.5100              3037.4208              3040.8274
 Red. masses --      1.0398                 1.0674                 1.0457
 Frc consts  --      5.6377                 5.8023                 5.6967
 IR Inten    --     28.7365                25.2621                18.1107

                    100                    101                    102
                      A                      A                      A
 Frequencies --   3041.9704              3046.0950              3050.8579
 Red. masses --      1.0558                 1.0401                 1.0348
 Frc consts  --      5.7565                 5.6860                 5.6749
 IR Inten    --     30.1572                17.0022                32.1357

                    103                    104                    105
                      A                      A                      A
 Frequencies --   3051.1981              3061.8293              3067.6427
 Red. masses --      1.0804                 1.0847                 1.0324
 Frc consts  --      5.9264                 5.9915                 5.7243
 IR Inten    --      7.5796                57.9660                65.0086

                    106                    107                    108
                      A                      A                      A
 Frequencies --   3082.0650              3082.8753              3096.3321
 Red. masses --      1.1003                 1.0974                 1.0960
 Frc consts  --      6.1582                 6.1451                 6.1909
 IR Inten    --      4.2697                31.8197                 6.0345

                    109                    110                    111
                      A                      A                      A
 Frequencies --   3109.0153              3113.0413              3114.3758
 Red. masses --      1.1023                 1.1003                 1.1013
 Frc consts  --      6.2775                 6.2823                 6.2935
 IR Inten    --     57.7194                33.9371                58.9728

                    112                    113                    114
                      A                      A                      A
 Frequencies --   3120.0595              3122.7474              3126.7717
 Red. masses --      1.1022                 1.1026                 1.0988
 Frc consts  --      6.3215                 6.3350                 6.3293
 IR Inten    --     50.2685                40.8550                22.5254

                    115                    116                    117
                      A                      A                      A
 Frequencies --   3127.8794              3132.7526              3139.2608
 Red. masses --      1.1029                 1.1061                 1.0869
 Frc consts  --      6.3572                 6.3958                 6.3110
 IR Inten    --     34.6036                16.8448                24.9350

                    118                    119                    120
                      A                      A                      A
 Frequencies --   3162.5327              3283.5405              3495.7175
 Red. masses --      1.1042                 1.0969                 1.0725
 Frc consts  --      6.5070                 6.9682                 7.7221
 IR Inten    --     11.0076                 1.1613                 0.6064

 - Thermochemistry -
 -------------------
 Temperature   298.150 Kelvin.  Pressure   1.00000 Atm.
 Atom     1 has atomic number  6 and mass  12.00000

 Molecular mass:   235.20485 amu.
 Principal axes and moments of inertia in atomic units:
                           1         2         3
     Eigenvalues --  2198.715379828.23640**********
           X            0.99999   0.00520   0.00115
           Y           -0.00520   0.99997  -0.00541
           Z           -0.00117   0.00540   0.99998
 This molecule is an asymmetric top.
 Rotational symmetry number  1.
 Warning -- assumption of classical behavior for rotation
           may cause significant error
 Rotational temperatures (Kelvin)      0.03939     0.00881     0.00776
 Rotational constants (GHZ):           0.82082     0.18363     0.16165
    1 imaginary frequencies ignored.
 Zero-point vibrational energy     991531.4 (Joules/Mol)
                                  236.98168 (Kcal/Mol)
 Warning -- explicit consideration of  28 degrees of freedom as
           vibrations may cause significant error
 Vibrational temperatures:     23.78    41.58    53.61    79.51   106.83
          (Kelvin)            134.88   141.82   154.00   210.28   235.39
                              255.35   292.69   318.34   327.50   346.03
                              347.02   378.07   417.36   445.95   460.51
                              474.82   518.40   603.43   654.77   709.94
                              746.95   791.37   868.72   904.50   920.17
                              993.57  1073.43  1082.49  1136.72  1141.90
                             1155.70  1185.82  1232.15  1293.08  1304.57
                             1318.43  1346.55  1411.90  1427.28  1478.92
                             1485.61  1528.21  1535.17  1545.09  1567.85
                             1575.29  1589.38  1598.62  1655.26  1667.56
                             1670.51  1703.60  1725.51  1755.90  1792.25
                             1848.46  1861.86  1891.22  1932.58  1943.48
                             1968.20  1970.14  2005.84  2019.56  2043.50
                             2052.05  2059.14  2064.74  2074.90  2082.13
                             2120.41  2144.12  2161.23  2162.34  2167.01
                             2174.70  2177.46  2187.96  2192.02  2197.11
                             2198.34  2200.65  2209.43  2217.81  2220.12
                             2227.31  2232.18  2311.10  2492.02  4220.05
                             4364.54  4370.17  4375.07  4376.72  4382.65
                             4389.50  4389.99  4405.29  4413.65  4434.40
                             4435.57  4454.93  4473.18  4478.97  4480.89
                             4489.07  4492.94  4498.73  4500.32  4507.33
                             4516.70  4550.18  4724.28  5029.56

 Zero-point correction=                           0.377654 (Hartree/Particle)
 Thermal correction to Energy=                    0.397020
 Thermal correction to Enthalpy=                  0.397964
 Thermal correction to Gibbs Free Energy=         0.327897
 Sum of electronic and zero-point Energies=           -712.467504
 Sum of electronic and thermal Energies=              -712.448138
 Sum of electronic and thermal Enthalpies=            -712.447194
 Sum of electronic and thermal Free Energies=         -712.517261

                     E (Thermal)             CV                S
                      KCal/Mol        Cal/Mol-Kelvin    Cal/Mol-Kelvin
 Total                  249.134             70.992            147.469
 Electronic               0.000              0.000              0.000
 Translational            0.889              2.981             42.267
 Rotational               0.889              2.981             33.844
 Vibrational            247.356             65.031             71.357
 Vibration     1          0.593              1.986              7.013
 Vibration     2          0.593              1.984              5.904
 Vibration     3          0.594              1.982              5.400
 Vibration     4          0.596              1.975              4.620
 Vibration     5          0.599              1.966              4.037
 Vibration     6          0.603              1.954              3.580
 Vibration     7          0.604              1.950              3.482
 Vibration     8          0.606              1.944              3.322
 Vibration     9          0.617              1.907              2.722
 Vibration    10          0.623              1.887              2.508
 Vibration    11          0.628              1.870              2.355
 Vibration    12          0.639              1.835              2.102
 Vibration    13          0.648              1.809              1.949
 Vibration    14          0.651              1.799              1.898
 Vibration    15          0.658              1.778              1.799
 Vibration    16          0.658              1.777              1.794
 Vibration    17          0.670              1.741              1.643
 Vibration    18          0.686              1.692              1.474
 Vibration    19          0.699              1.655              1.363
 Vibration    20          0.706              1.635              1.310
 Vibration    21          0.713              1.616              1.260
 Vibration    22          0.735              1.554              1.121
 Vibration    23          0.782              1.428              0.894
 Vibration    24          0.813              1.350              0.781
 Vibration    25          0.849              1.265              0.675
 Vibration    26          0.874              1.208              0.612
 Vibration    27          0.905              1.140              0.544
 Vibration    28          0.962              1.024              0.443

                           ! Non-Optimized Parameters !
 Normal termination of Gaussian 16 at Mon Dec 14 16:56:31 2020.

 ----------------------------------------------------------------------
 # B3LYP/6-311++G(d,p) empiricaldispersion=gd3bj scf=xqc pop=npa geom=c
 heck
 ----------------------------------------------------------------------

 ---------------------------------------
 CID_113774460_JID_7012_Energie_neutraal
 ---------------------------------------
 Structure from the checkpoint file:  "JID_7012.chk"
 Charge =  0 Multiplicity = 1

 SCF Done:  E(RB3LYP) =  -713.040696450     A.U. after   15 cycles
 Normal termination of Gaussian 16 at Mon Dec 14 17:05:16 2020.

 ----------------------------------------------------------------------
 # B3LYP/6-311++G(d,p) empiricaldispersion=gd3bj scf=xqc pop=npa geom=c
 heck
 ----------------------------------------------------------------------

 -------------------------------------
 CID_113774460_JID_7012_Energie_kation
 -------------------------------------
 Structure from the checkpoint file:  "JID_7012.chk"
 Charge =  1 Multiplicity = 2

 SCF Done:  E(UB3LYP) =  -712.772422463     A.U. after   24 cycles
 Normal termination of Gaussian 16 at Mon Dec 14 17:25:19 2020.
 Gaussian 16:  ES64L-G16RevA.03 25-Dec-2016

 ----------------------------------------------------------------------
 # B3LYP/6-311++G(d,p) empiricaldispersion=gd3bj scf=xqc pop=npa geom=c
 heck
 ----------------------------------------------------------------------

 ------------------------------------
 CID_113774460_JID_7012_Energie_anion
 ------------------------------------
 Structure from the checkpoint file:  "JID_7012.chk"
 Charge = -1 Multiplicity = 2

                         Standard orientation:
 ---------------------------------------------------------------------
 Center     Atomic      Atomic             Coordinates (Angstroms)
 Number     Number       Type             X           Y           Z
 ---------------------------------------------------------------------
      1          6           0       -5.733021   -1.425765    0.005831
      2          6           0       -5.221318   -0.540170   -1.134534
      3          6           0       -4.213287    0.519145   -0.681616
      4          7           0       -2.998011   -0.097473   -0.155937
      5          6           0       -1.904727    0.839982    0.149555
      6          6           0       -2.195190    1.781002    1.337994
      7          6           0       -0.615582    0.065730    0.364070
      8          6           0        0.499372    0.430557   -0.294771
      9          6           0        1.829673   -0.161736   -0.237877
     10          6           0        2.234488   -1.464194    0.037267
     11          7           0        3.587223   -1.495850   -0.073404
     12          7           0        4.105800   -0.289470   -0.407023
     13          6           0        3.053970    0.522407   -0.516328
     14          6           0        3.235283    1.975061   -0.838697
     15          6           0        2.959184    2.887936    0.367448
     16          6           0        4.471267   -2.627886    0.098951
     17          6           0       -0.668724   -1.077545    1.343239
     18          1           0       -4.927504   -2.033332    0.434510
     19          1           0       -6.506192   -2.117236   -0.346296
     20          1           0       -6.168139   -0.821538    0.812285
     21          1           0       -4.750092   -1.163861   -1.903635
     22          1           0       -6.070631   -0.028808   -1.606489
     23          1           0       -3.922316    1.132045   -1.544364
     24          1           0       -4.710463    1.202285    0.033893
     25          1           0       -3.228470   -0.616352    0.689343
     26          1           0       -1.777126    1.460624   -0.745805
     27          1           0       -2.317888    1.214406    2.269197
     28          1           0       -1.370374    2.487131    1.482019
     29          1           0       -3.112463    2.356328    1.173165
     30          1           0        0.423362    1.293906   -0.956257
     31          1           0        1.669376   -2.357753    0.255348
     32          1           0        4.261090    2.120482   -1.192848
     33          1           0        2.569052    2.255962   -1.665866
     34          1           0        3.641936    2.652462    1.190725
     35          1           0        3.092744    3.942390    0.100530
     36          1           0        1.935491    2.753910    0.733334
     37          1           0        5.006237   -2.836125   -0.832457
     38          1           0        5.200655   -2.419075    0.887011
     39          1           0        3.876344   -3.499944    0.378068
     40          1           0       -1.359133   -0.866853    2.169181
     41          1           0       -1.023257   -1.997804    0.859487
     42          1           0        0.314345   -1.280836    1.777261
 ---------------------------------------------------------------------

 SCF Done:  E(UB3LYP) =  -713.029077572     A.U. after   33 cycles
 SCF Done:  E(UB3LYP) =  -713.029077572     a.u. after    1 cycles

 The electronic state is 2-A.
 Alpha  occ. eigenvalues --  -14.29667 -14.23243 -14.20448 -10.11956 -10.11150
 Alpha  occ. eigenvalues --  -10.11091 -10.10171 -10.10122 -10.08897 -10.08313
 Alpha  occ. eigenvalues --  -10.07904 -10.07865 -10.07822 -10.07533 -10.07305
 Alpha  occ. eigenvalues --  -10.07046 -10.06929  -0.95648  -0.82040  -0.76109
 Alpha  occ. eigenvalues --   -0.72805  -0.69850  -0.68417  -0.67477  -0.63642
 Alpha  occ. eigenvalues --   -0.61899  -0.59081  -0.58499  -0.55099  -0.52916
 Alpha  occ. eigenvalues --   -0.49796  -0.48947  -0.46401  -0.44522  -0.41503
 Alpha  occ. eigenvalues --   -0.39907  -0.38816  -0.38632  -0.37072  -0.36716
 Alpha  occ. eigenvalues --   -0.35494  -0.34679  -0.33604  -0.33265  -0.32647
 Alpha  occ. eigenvalues --   -0.32034  -0.31909  -0.31490  -0.30799  -0.29979
 Alpha  occ. eigenvalues --   -0.29686  -0.28514  -0.28079  -0.27066  -0.26499
 Alpha  occ. eigenvalues --   -0.26086  -0.25722  -0.25180  -0.24902  -0.23463
 Alpha  occ. eigenvalues --   -0.20641  -0.19179  -0.15836  -0.13634  -0.11887
 Alpha  occ. eigenvalues --    0.03860
 Alpha virt. eigenvalues --    0.05294   0.06087   0.06776   0.07091   0.07563
 Alpha virt. eigenvalues --    0.07867   0.08234   0.08785   0.08895   0.09345
 Alpha virt. eigenvalues --    0.09932   0.10201   0.10357   0.10737   0.11127

  Beta  occ. eigenvalues --  -14.29666 -14.23237 -14.20439 -10.11907 -10.11131
  Beta  occ. eigenvalues --  -10.11086 -10.10157 -10.10121 -10.08893 -10.08306
  Beta  occ. eigenvalues --  -10.07894 -10.07864 -10.07814 -10.07527 -10.07276
  Beta  occ. eigenvalues --  -10.07020 -10.06904  -0.95641  -0.82022  -0.76095
  Beta  occ. eigenvalues --   -0.72785  -0.69828  -0.68400  -0.67450  -0.63608
  Beta  occ. eigenvalues --   -0.61857  -0.59041  -0.58451  -0.55072  -0.52874
  Beta  occ. eigenvalues --   -0.49756  -0.48903  -0.46379  -0.44490  -0.41460
  Beta  occ. eigenvalues --   -0.39881  -0.38788  -0.38605  -0.37047  -0.36699
  Beta  occ. eigenvalues --   -0.35476  -0.34647  -0.33574  -0.33234  -0.32607
  Beta  occ. eigenvalues --   -0.32010  -0.31876  -0.31466  -0.30772  -0.29948
  Beta  occ. eigenvalues --   -0.29656  -0.28492  -0.28057  -0.27036  -0.26484
  Beta  occ. eigenvalues --   -0.26075  -0.25693  -0.25150  -0.24873  -0.23443
  Beta  occ. eigenvalues --   -0.20625  -0.19154  -0.15820  -0.13617  -0.11860
  Beta virt. eigenvalues --    0.05659   0.06234   0.06562   0.07126   0.07323
  Beta virt. eigenvalues --    0.07901   0.08022   0.08350   0.09063   0.09246
  Beta virt. eigenvalues --    0.09625   0.10059   0.10388   0.10454   0.10864

 Mulliken charges and spin densities:
               1          2
     1  C    0.328682  -0.864927
     2  C   -0.144614  -0.114635
     3  C    0.073617  -0.211556
     4  N    0.198421   0.010532
     5  C   -0.819704   0.349887
     6  C    0.176039  -0.880260
     7  C   -0.359029   0.608312
     8  C   -0.407837   0.024669
     9  C    0.391630  -0.244980
    10  C   -0.225759  -0.065426
    11  N    0.099286   0.023907
    12  N   -0.356921   0.250786
    13  C    0.485321  -0.210890
    14  C   -0.293400   0.007317
    15  C   -0.302304  -0.240371
    16  C    1.059324  -1.363539
    17  C    0.102740  -0.918997
    18  H   -0.162248   0.295339
    19  H   -0.179834   0.327521
    20  H   -0.127867   0.265802
    21  H    0.122106   0.024817
    22  H   -0.073687   0.199096
    23  H   -0.044359   0.165363
    24  H    0.001135   0.114720
    25  H    0.449656  -0.236379
    26  H    0.117244   0.075230
    27  H   -0.021334   0.183488
    28  H   -0.076476   0.225121
    29  H   -0.142931   0.283122
    30  H    0.133742   0.010686
    31  H   -0.329534   0.561971
    32  H    0.142377   0.023916
    33  H    0.039236   0.099790
    34  H    0.061849   0.087748
    35  H    0.032876   0.089389
    36  H    0.200045  -0.085076
    37  H   -0.183112   0.355889
    38  H   -0.199860   0.372988
    39  H   -0.629659   0.777682
    40  H   -0.172883   0.309216
    41  H    0.069677   0.124214
    42  H   -0.031653   0.188520
 Sum of Mulliken charges =  -1.00000   1.00000

 Dipole moment (field-independent basis, Debye):
    X=              0.3831    Y=              5.1591    Z=             -2.0643  Tot=              5.5699
 Quadrupole moment (field-independent basis, Debye-Ang):
   XX=           -223.1120   YY=           -164.3628   ZZ=           -139.6617
   XY=             13.2654   XZ=              1.4802   YZ=              1.4634

 Summary of Natural Population Analysis:

                                       Natural Population
                Natural  -----------------------------------------------
    Atom  No    Charge         Core      Valence    Rydberg      Total
 -----------------------------------------------------------------------
      C    1   -0.28794      0.99967     2.28391    0.00436     3.28794
      C    2   -0.19090      0.99964     2.18386    0.00739     3.19090
      C    3   -0.08285      0.99962     2.07410    0.00913     3.08285
      N    4   -0.34130      0.99973     2.83056    0.01101     3.84130
      C    5   -0.01644      0.99955     2.00414    0.01275     3.01644
      C    6   -0.29461      0.99964     2.28886    0.00612     3.29461
      C    7    0.01157      0.99948     1.97716    0.01178     2.98843
      C    8   -0.10882      0.99944     2.10124    0.00813     3.10882
      C    9   -0.08539      0.99948     2.07635    0.00956     3.08539
      C   10    0.00517      0.99951     1.98425    0.01107     2.99483
      N   11   -0.10417      0.99967     2.59241    0.01209     3.60417
      N   12   -0.16193      0.99969     2.65057    0.01166     3.66193
      C   13    0.08642      0.99955     1.89949    0.01454     2.91358
      C   14   -0.20443      0.99960     2.19726    0.00757     3.20443
      C   15   -0.28113      0.99966     2.27758    0.00389     3.28113
      C   16   -0.17057      0.99964     2.16249    0.00845     3.17057
      C   17   -0.30996      0.99962     2.30341    0.00693     3.30996
      H   18    0.09720      0.00000     0.40156    0.00124     0.40280
      H   19    0.09891      0.00000     0.39998    0.00111     0.40109
      H   20    0.09591      0.00000     0.40257    0.00152     0.40409
      H   21    0.09681      0.00000     0.40180    0.00139     0.40319
      H   22    0.09323      0.00000     0.40549    0.00128     0.40677
      H   23    0.09083      0.00000     0.40771    0.00146     0.40917
      H   24    0.07731      0.00000     0.42087    0.00182     0.42269
      H   25    0.17114      0.00000     0.32470    0.00416     0.32886
      H   26    0.09234      0.00000     0.40539    0.00227     0.40766
      H   27    0.09691      0.00000     0.40195    0.00114     0.40309
      H   28    0.10162      0.00000     0.39744    0.00094     0.39838
      H   29    0.09967      0.00000     0.39933    0.00099     0.40033
      H   30    0.09551      0.00000     0.40236    0.00212     0.40449
      H   31    0.10878      0.00000     0.38984    0.00138     0.39122
      H   32    0.10490      0.00000     0.39383    0.00127     0.39510
      H   33    0.09886      0.00000     0.39992    0.00122     0.40114
      H   34    0.09831      0.00000     0.40054    0.00115     0.40169
      H   35    0.09373      0.00000     0.40532    0.00095     0.40627
      H   36    0.10130      0.00000     0.39750    0.00120     0.39870
      H   37    0.09992      0.00000     0.39879    0.00129     0.40008
      H   38    0.10142      0.00000     0.39715    0.00143     0.39858
      H   39    0.10471      0.00000     0.39274    0.00255     0.39529
      H   40    0.10024      0.00000     0.39853    0.00123     0.39976
      H   41    0.10969      0.00000     0.38895    0.00136     0.39031
      H   42    0.10802      0.00000     0.39085    0.00113     0.39198
 =======================================================================
   * Total *    0.00000     16.99320    47.81273    0.19407    65.00000

 Normal termination of Gaussian 16 at Mon Dec 14 17:53:57 2020.
