 Gaussian 16, Revision A.03,

 -----------------------------------------------------------
 # opt freq B3LYP/6-31G(d) empiricaldispersion=gd3bj scf=xqc
 -----------------------------------------------------------

 -------------------------------
 CID_119189280_JID_8366_neutraal
 -------------------------------
 Symbolic Z-matrix:
 Charge =  0 Multiplicity = 1

 SCF Done:  E(RB3LYP) =  -902.050425756     A.U. after   14 cycles
 SCF Done:  E(RB3LYP) =  -902.050601305     A.U. after   13 cycles
 SCF Done:  E(RB3LYP) =  -902.056969452     A.U. after   12 cycles
 SCF Done:  E(RB3LYP) =  -902.056651595     A.U. after   12 cycles
 SCF Done:  E(RB3LYP) =  -902.058451875     A.U. after   12 cycles
 SCF Done:  E(RB3LYP) =  -902.058830512     A.U. after   12 cycles
 SCF Done:  E(RB3LYP) =  -902.059242005     A.U. after   12 cycles
 SCF Done:  E(RB3LYP) =  -902.059594268     A.U. after   11 cycles
 SCF Done:  E(RB3LYP) =  -902.059647699     A.U. after   11 cycles
 SCF Done:  E(RB3LYP) =  -902.059772780     A.U. after   11 cycles
 SCF Done:  E(RB3LYP) =  -902.060169986     A.U. after   11 cycles
 SCF Done:  E(RB3LYP) =  -902.060173180     A.U. after   10 cycles
 SCF Done:  E(RB3LYP) =  -902.060178879     A.U. after    9 cycles
 SCF Done:  E(RB3LYP) =  -902.060180923     A.U. after   10 cycles
 SCF Done:  E(RB3LYP) =  -902.060181103     A.U. after    8 cycles
 SCF Done:  E(RB3LYP) =  -902.060181085     A.U. after    7 cycles
 Optimization completed.
    -- Stationary point found.
 Normal termination of Gaussian 16 at Sun Dec 13 12:46:49 2020.

 --------------------------------------------------------------------
 #N Geom=AllCheck Guess=TCheck SCRF=Check GenChk RB3LYP/6-31G(d) Freq
 --------------------------------------------------------------------

 Structure from the checkpoint file:  "JID_8366.chk"
 -------------------------------
 CID_119189280_JID_8366_neutraal
 -------------------------------
 Charge =  0 Multiplicity = 1

 SCF Done:  E(RB3LYP) =  -902.060181085     A.U. after    1 cycles

  Exact polarizability: 155.651  -1.834 148.852  -2.847   4.222 136.972
 Approx polarizability: 192.403  -1.244 220.373  -5.761  -5.934 197.102

                      1                      2                      3
                      A                      A                      A
 Frequencies --     28.3446                32.9514                40.5823
 Red. masses --      4.3214                 3.3242                 4.0405
 Frc consts  --      0.0020                 0.0021                 0.0039
 IR Inten    --      0.7933                 0.9843                 1.0042

                      4                      5                      6
                      A                      A                      A
 Frequencies --     46.8980                52.9356                58.7141
 Red. masses --      4.8104                 4.1559                 3.1142
 Frc consts  --      0.0062                 0.0069                 0.0063
 IR Inten    --      0.2615                 0.4986                 0.5945

                      7                      8                      9
                      A                      A                      A
 Frequencies --     82.4832                91.4854                96.9260
 Red. masses --      4.2429                 4.4399                 5.2813
 Frc consts  --      0.0170                 0.0219                 0.0292
 IR Inten    --      0.9692                 0.8735                 2.1879

                     10                     11                     12
                      A                      A                      A
 Frequencies --    111.7089               114.9986               138.4582
 Red. masses --      2.1284                 1.9135                 3.7944
 Frc consts  --      0.0156                 0.0149                 0.0429
 IR Inten    --      1.1121                 0.4695                 3.7682

                     13                     14                     15
                      A                      A                      A
 Frequencies --    181.0315               199.1503               212.0667
 Red. masses --      1.7173                 2.9483                 2.8024
 Frc consts  --      0.0332                 0.0689                 0.0743
 IR Inten    --      0.9507                 1.3504                 2.2317

                     16                     17                     18
                      A                      A                      A
 Frequencies --    227.7044               248.0768               258.9770
 Red. masses --      3.5260                 1.1291                 1.2770
 Frc consts  --      0.1077                 0.0409                 0.0505
 IR Inten    --      4.0427                 0.6061                 0.8028

                     19                     20                     21
                      A                      A                      A
 Frequencies --    297.5903               311.7771               316.6783
 Red. masses --      2.8961                 1.7099                 2.9709
 Frc consts  --      0.1511                 0.0979                 0.1755
 IR Inten    --      4.2219                 1.2777                 0.8175

                     22                     23                     24
                      A                      A                      A
 Frequencies --    330.4947               351.4810               377.8074
 Red. masses --      3.4404                 4.6236                 4.0933
 Frc consts  --      0.2214                 0.3365                 0.3442
 IR Inten    --     14.3658                 3.9342                 2.5819

                     25                     26                     27
                      A                      A                      A
 Frequencies --    386.4042               415.0372               464.6684
 Red. masses --      2.5708                 4.5195                 2.3174
 Frc consts  --      0.2262                 0.4587                 0.2948
 IR Inten    --      4.0740                 5.5211                 4.2754

                     28                     29                     30
                      A                      A                      A
 Frequencies --    468.8583               488.1842               538.7861
 Red. masses --      3.1387                 1.9377                 2.6557
 Frc consts  --      0.4065                 0.2721                 0.4542
 IR Inten    --      6.5731                12.6461                17.3216

                     31                     32                     33
                      A                      A                      A
 Frequencies --    584.7288               628.1247               635.4082
 Red. masses --      3.6065                 2.4591                 3.4371
 Frc consts  --      0.7265                 0.5716                 0.8176
 IR Inten    --     41.7563                33.3670                19.6687

                     34                     35                     36
                      A                      A                      A
 Frequencies --    692.4199               756.2070               787.7842
 Red. masses --      1.9853                 4.3191                 1.5442
 Frc consts  --      0.5608                 1.4552                 0.5646
 IR Inten    --     89.6456                 9.2127                 3.4433

                     37                     38                     39
                      A                      A                      A
 Frequencies --    798.8791               804.5204               824.3681
 Red. masses --      1.2028                 2.0339                 2.5775
 Frc consts  --      0.4523                 0.7756                 1.0320
 IR Inten    --      4.5874                 1.7241                 7.5358

                     40                     41                     42
                      A                      A                      A
 Frequencies --    857.5235               864.1383               929.2062
 Red. masses --      2.2356                 3.9442                 2.0871
 Frc consts  --      0.9686                 1.7353                 1.0617
 IR Inten    --      2.2334                12.2482                12.4731

                     43                     44                     45
                      A                      A                      A
 Frequencies --    959.2318               970.5968               979.3474
 Red. masses --      3.4529                 2.8045                 2.1592
 Frc consts  --      1.8719                 1.5566                 1.2202
 IR Inten    --     14.7596                11.9241                15.3927

                     46                     47                     48
                      A                      A                      A
 Frequencies --    987.0089              1024.1027              1045.6676
 Red. masses --      1.4778                 2.0395                 2.5337
 Frc consts  --      0.8482                 1.2603                 1.6323
 IR Inten    --      4.5275                30.9262                16.0242

                     49                     50                     51
                      A                      A                      A
 Frequencies --   1047.9677              1072.8759              1109.3354
 Red. masses --      3.6915                 1.7741                 2.1512
 Frc consts  --      2.3886                 1.2032                 1.5598
 IR Inten    --      3.0035                27.0286                 3.7085

                     52                     53                     54
                      A                      A                      A
 Frequencies --   1120.2269              1128.9971              1145.7761
 Red. masses --      1.9036                 2.0056                 2.9895
 Frc consts  --      1.4075                 1.5062                 2.3123
 IR Inten    --     13.9697                 0.1299                99.2235

                     55                     56                     57
                      A                      A                      A
 Frequencies --   1160.4685              1184.0790              1188.5481
 Red. masses --      3.1046                 2.1488                 1.8597
 Frc consts  --      2.4634                 1.7750                 1.5478
 IR Inten    --    242.1951                54.2579                50.5108

                     58                     59                     60
                      A                      A                      A
 Frequencies --   1189.9835              1195.5167              1227.6498
 Red. masses --      1.4135                 2.2709                 1.9257
 Frc consts  --      1.1793                 1.9123                 1.7100
 IR Inten    --     38.1535                77.5386                66.6426

                     61                     62                     63
                      A                      A                      A
 Frequencies --   1237.6831              1272.1869              1278.6730
 Red. masses --      1.9011                 1.3059                 1.5352
 Frc consts  --      1.7158                 1.2452                 1.4788
 IR Inten    --      8.1452                 6.2956                19.7500

                     64                     65                     66
                      A                      A                      A
 Frequencies --   1306.1025              1331.2923              1338.7580
 Red. masses --      1.1397                 1.1462                 1.6262
 Frc consts  --      1.1455                 1.1969                 1.7173
 IR Inten    --      3.3272                 0.8535                15.6921

                     67                     68                     69
                      A                      A                      A
 Frequencies --   1349.7441              1360.9463              1369.8954
 Red. masses --      1.1963                 1.3400                 1.3836
 Frc consts  --      1.2841                 1.4623                 1.5299
 IR Inten    --     16.9218                 6.6430                17.9761

                     70                     71                     72
                      A                      A                      A
 Frequencies --   1382.6000              1394.4576              1397.5069
 Red. masses --      1.3638                 2.3630                 1.2732
 Frc consts  --      1.5360                 2.7073                 1.4651
 IR Inten    --     18.6541                36.3703                 5.9742

                     73                     74                     75
                      A                      A                      A
 Frequencies --   1404.8628              1407.2168              1432.3552
 Red. masses --      1.2574                 1.4844                 1.2955
 Frc consts  --      1.4621                 1.7320                 1.5660
 IR Inten    --      2.5832                 2.0150                19.5409

                     76                     77                     78
                      A                      A                      A
 Frequencies --   1441.8956              1446.2164              1453.1264
 Red. masses --      1.3702                 1.2602                 1.3432
 Frc consts  --      1.6784                 1.5529                 1.6711
 IR Inten    --      3.1435                 7.5918                 6.6618

                     79                     80                     81
                      A                      A                      A
 Frequencies --   1465.1953              1489.0108              1501.7384
 Red. masses --      1.5409                 1.4672                 1.1233
 Frc consts  --      1.9490                 1.9166                 1.4926
 IR Inten    --     59.6009                57.5283                 1.6016

                     82                     83                     84
                      A                      A                      A
 Frequencies --   1503.2955              1513.9124              1519.2154
 Red. masses --      1.0853                 1.0512                 1.0684
 Frc consts  --      1.4450                 1.4195                 1.4529
 IR Inten    --      3.7601                 4.0457                 3.6605

                     85                     86                     87
                      A                      A                      A
 Frequencies --   1521.3934              1524.1046              1527.9231
 Red. masses --      1.0838                 1.0923                 1.0627
 Frc consts  --      1.4781                 1.4949                 1.4617
 IR Inten    --     13.6898                 0.8540                 7.9202

                     88                     89                     90
                      A                      A                      A
 Frequencies --   1533.5374              1538.1280              1539.7061
 Red. masses --      1.0448                 1.0690                 1.0670
 Frc consts  --      1.4476                 1.4901                 1.4903
 IR Inten    --      5.0674                 6.0433                13.3479

                     91                     92                     93
                      A                      A                      A
 Frequencies --   1551.7118              1555.5285              1747.0228
 Red. masses --      1.0861                 1.0848                10.5276
 Frc consts  --      1.5407                 1.5465                18.9312
 IR Inten    --      6.4685                 9.7507               218.8405

                     94                     95                     96
                      A                      A                      A
 Frequencies --   1861.0704              2996.8133              3017.9908
 Red. masses --     10.0734                 1.0378                 1.0565
 Frc consts  --     20.5565                 5.4916                 5.6696
 IR Inten    --    318.8844                47.8637                21.2394

                     97                     98                     99
                      A                      A                      A
 Frequencies --   3025.3547              3027.7554              3039.5882
 Red. masses --      1.0664                 1.0626                 1.0696
 Frc consts  --      5.7508                 5.7394                 5.8222
 IR Inten    --     47.1795                25.6708                12.0957

                    100                    101                    102
                      A                      A                      A
 Frequencies --   3044.0923              3051.0683              3057.7423
 Red. masses --      1.1035                 1.0422                 1.1001
 Frc consts  --      6.0249                 5.7160                 6.0600
 IR Inten    --     53.9537                21.3701                46.6838

                    103                    104                    105
                      A                      A                      A
 Frequencies --   3065.5476              3071.0206              3078.1444
 Red. masses --      1.0912                 1.0416                 1.0726
 Frc consts  --      6.0418                 5.7879                 5.9875
 IR Inten    --     51.8068                29.6013                18.6064

                    106                    107                    108
                      A                      A                      A
 Frequencies --   3084.5223              3087.2859              3088.9037
 Red. masses --      1.1024                 1.0678                 1.0784
 Frc consts  --      6.1796                 5.9963                 6.0620
 IR Inten    --     40.6229                11.7227                20.2694

                    109                    110                    111
                      A                      A                      A
 Frequencies --   3103.8913              3110.8009              3136.6472
 Red. masses --      1.0936                 1.1021                 1.1028
 Frc consts  --      6.2075                 6.2839                 6.3928
 IR Inten    --     48.3593                40.9043                21.2505

                    112                    113                    114
                      A                      A                      A
 Frequencies --   3140.0492              3140.5855              3147.1951
 Red. masses --      1.1031                 1.0973                 1.0983
 Frc consts  --      6.4081                 6.3768                 6.4093
 IR Inten    --     10.9009                24.6717                27.0047

                    115                    116                    117
                      A                      A                      A
 Frequencies --   3166.4483              3168.1095              3690.1503
 Red. masses --      1.0980                 1.0985                 1.0641
 Frc consts  --      6.4861                 6.4959                 8.5370
 IR Inten    --      3.3062                14.7588                61.5224

 - Thermochemistry -
 -------------------
 Temperature   298.150 Kelvin.  Pressure   1.00000 Atm.
 Atom     1 has atomic number  6 and mass  12.00000

 Molecular mass:   261.15762 amu.
 Principal axes and moments of inertia in atomic units:
                           1         2         3
     Eigenvalues --  4226.585756379.679747811.73802
           X            0.99915  -0.03986   0.01083
           Y            0.03912   0.99733   0.06171
           Z           -0.01326  -0.06123   0.99804
 This molecule is an asymmetric top.
 Rotational symmetry number  1.
 Warning -- assumption of classical behavior for rotation
           may cause significant error
 Rotational temperatures (Kelvin)      0.02049     0.01358     0.01109
 Rotational constants (GHZ):           0.42700     0.28289     0.23103
 Zero-point vibrational energy     938528.2 (Joules/Mol)
                                  224.31363 (Kcal/Mol)
 Warning -- explicit consideration of  31 degrees of freedom as
           vibrations may cause significant error
 Vibrational temperatures:     40.78    47.41    58.39    67.48    76.16
          (Kelvin)             84.48   118.67   131.63   139.45   160.72
                              165.46   199.21   260.46   286.53   305.12
                              327.62   356.93   372.61   428.17   448.58
                              455.63   475.51   505.70   543.58   555.95
                              597.15   668.55   674.58   702.39   775.19
                              841.29   903.73   914.21   996.24  1088.01
                             1133.45  1149.41  1157.53  1186.08  1233.79
                             1243.30  1336.92  1380.12  1396.47  1409.06
                             1420.09  1473.46  1504.48  1507.79  1543.63
                             1596.09  1611.76  1624.37  1648.52  1669.66
                             1703.63  1710.06  1712.12  1720.08  1766.31
                             1780.75  1830.39  1839.73  1879.19  1915.43
                             1926.17  1941.98  1958.10  1970.97  1989.25
                             2006.31  2010.70  2021.28  2024.67  2060.84
                             2074.57  2080.78  2090.72  2108.09  2142.35
                             2160.67  2162.91  2178.18  2185.81  2188.95
                             2192.85  2198.34  2206.42  2213.02  2215.29
                             2232.57  2238.06  2513.58  2677.67  4311.75
                             4342.22  4352.81  4356.26  4373.29  4379.77
                             4389.81  4399.41  4410.64  4418.51  4428.76
                             4437.94  4441.92  4444.24  4465.81  4475.75
                             4512.94  4517.83  4518.60  4528.11  4555.81
                             4558.20  5309.30

 Zero-point correction=                           0.357467 (Hartree/Particle)
 Thermal correction to Energy=                    0.378614
 Thermal correction to Enthalpy=                  0.379558
 Thermal correction to Gibbs Free Energy=         0.305262
 Sum of electronic and zero-point Energies=           -901.702715
 Sum of electronic and thermal Energies=              -901.681567
 Sum of electronic and thermal Enthalpies=            -901.680623
 Sum of electronic and thermal Free Energies=         -901.754919

                     E (Thermal)             CV                S
                      KCal/Mol        Cal/Mol-Kelvin    Cal/Mol-Kelvin
 Total                  237.584             75.204            156.370
 Electronic               0.000              0.000              0.000
 Translational            0.889              2.981             42.579
 Rotational               0.889              2.981             33.709
 Vibrational            235.806             69.242             80.081
 Vibration     1          0.593              1.984              5.942
 Vibration     2          0.594              1.983              5.643
 Vibration     3          0.594              1.981              5.230
 Vibration     4          0.595              1.979              4.944
 Vibration     5          0.596              1.976              4.705
 Vibration     6          0.596              1.974              4.500
 Vibration     7          0.600              1.961              3.831
 Vibration     8          0.602              1.955              3.628
 Vibration     9          0.603              1.951              3.515
 Vibration    10          0.607              1.940              3.239
 Vibration    11          0.608              1.937              3.183
 Vibration    12          0.614              1.915              2.825
 Vibration    13          0.630              1.866              2.318
 Vibration    14          0.637              1.841              2.141
 Vibration    15          0.643              1.822              2.026
 Vibration    16          0.651              1.799              1.897
 Vibration    17          0.662              1.766              1.744
 Vibration    18          0.668              1.748              1.669
 Vibration    19          0.691              1.678              1.430
 Vibration    20          0.700              1.651              1.353
 Vibration    21          0.704              1.642              1.327
 Vibration    22          0.713              1.615              1.258
 Vibration    23          0.728              1.572              1.160
 Vibration    24          0.748              1.517              1.048
 Vibration    25          0.755              1.499              1.014
 Vibration    26          0.778              1.438              0.909
 Vibration    27          0.822              1.328              0.753
 Vibration    28          0.826              1.319              0.741
 Vibration    29          0.844              1.276              0.688
 Vibration    30          0.894              1.164              0.568
 Vibration    31          0.942              1.064              0.477

 Optimization completed.
    -- Stationary point found.
 Normal termination of Gaussian 16 at Sun Dec 13 13:06:45 2020.

 ----------------------------------------------------------------------
 # B3LYP/6-311++G(d,p) empiricaldispersion=gd3bj scf=xqc pop=npa geom=c
 heck
 ----------------------------------------------------------------------

 ---------------------------------------
 CID_119189280_JID_8366_Energie_neutraal
 ---------------------------------------
 Structure from the checkpoint file:  "JID_8366.chk"
 Charge =  0 Multiplicity = 1

 SCF Done:  E(RB3LYP) =  -902.335355869     A.U. after   15 cycles
 Normal termination of Gaussian 16 at Sun Dec 13 13:16:19 2020.

 ----------------------------------------------------------------------
 # B3LYP/6-311++G(d,p) empiricaldispersion=gd3bj scf=xqc pop=npa geom=c
 heck
 ----------------------------------------------------------------------

 -------------------------------------
 CID_119189280_JID_8366_Energie_kation
 -------------------------------------
 Structure from the checkpoint file:  "JID_8366.chk"
 Charge =  1 Multiplicity = 2

 SCF Done:  E(UB3LYP) =  -902.023182447     A.U. after   26 cycles
 Normal termination of Gaussian 16 at Sun Dec 13 13:40:09 2020.
 Gaussian 16:  ES64L-G16RevA.03 25-Dec-2016

 ----------------------------------------------------------------------
 # B3LYP/6-311++G(d,p) empiricaldispersion=gd3bj scf=xqc pop=npa geom=c
 heck
 ----------------------------------------------------------------------

 ------------------------------------
 CID_119189280_JID_8366_Energie_anion
 ------------------------------------
 Structure from the checkpoint file:  "JID_8366.chk"
 Charge = -1 Multiplicity = 2

                         Standard orientation:
 ---------------------------------------------------------------------
 Center     Atomic      Atomic             Coordinates (Angstroms)
 Number     Number       Type             X           Y           Z
 ---------------------------------------------------------------------
      1          6           0        2.267827    1.459041    1.896948
      2          6           0        3.625488    0.762852    1.776763
      3          6           0        4.040700    0.399895    0.343855
      4          6           0        3.081187   -0.525271   -0.400830
      5          8           0        2.058498    0.272101   -1.007908
      6          6           0        0.968850   -0.457836   -1.577398
      7          6           0        1.383191   -1.515219   -2.593144
      8          6           0        0.128050   -1.079819   -0.445696
      9          8           0        0.157555   -2.284093   -0.202026
     10          7           0       -0.616692   -0.230892    0.332414
     11          6           0       -0.799791    1.194800    0.070134
     12          6           0       -2.024065    1.485946   -0.809907
     13          8           0       -2.142628    2.865599   -1.101117
     14          6           0       -2.736667    3.621865   -0.064586
     15          6           0       -1.363846   -0.863285    1.404363
     16          6           0       -2.451723   -1.833733    0.962392
     17          8           0       -2.903913   -2.700096    1.672078
     18          8           0       -2.913119   -1.580333   -0.285072
     19          1           0        2.224249    2.353426    1.264891
     20          1           0        2.077078    1.764203    2.932491
     21          1           0        1.457358    0.795930    1.584315
     22          1           0        4.404461    1.404730    2.208909
     23          1           0        3.615643   -0.153162    2.384333
     24          1           0        4.163277    1.307926   -0.260670
     25          1           0        5.023541   -0.087759    0.379086
     26          1           0        3.621149   -1.078216   -1.180742
     27          1           0        2.639531   -1.265726    0.282130
     28          1           0        0.381498    0.308055   -2.092196
     29          1           0        1.855821   -2.372920   -2.111572
     30          1           0        0.498103   -1.883833   -3.121110
     31          1           0        2.068638   -1.073400   -3.322927
     32          1           0       -0.893421    1.701730    1.035955
     33          1           0        0.099784    1.593684   -0.397915
     34          1           0       -1.912781    0.970504   -1.769406
     35          1           0       -2.939804    1.099759   -0.338168
     36          1           0       -3.728649    3.225160    0.203718
     37          1           0       -2.118752    3.655433    0.845281
     38          1           0       -2.852110    4.640918   -0.441816
     39          1           0       -0.697354   -1.433738    2.055554
     40          1           0       -1.840451   -0.082183    2.004971
     41          1           0       -3.596322   -2.255113   -0.456996
 ---------------------------------------------------------------------

 SCF Done:  E(UB3LYP) =  -902.326825261     A.U. after   32 cycles

 The electronic state is 2-A.
 Alpha  occ. eigenvalues --  -19.08139 -19.04694 -19.03814 -19.02579 -19.00785
 Alpha  occ. eigenvalues --  -14.26470 -10.21897 -10.18524 -10.15021 -10.13288
 Alpha  occ. eigenvalues --  -10.13206 -10.12771 -10.11920 -10.11896 -10.08465
 Alpha  occ. eigenvalues --  -10.08147 -10.08111 -10.06462  -1.02244  -0.96820
 Alpha  occ. eigenvalues --   -0.95049  -0.94795  -0.93348  -0.85798  -0.71935
 Alpha  occ. eigenvalues --   -0.69092  -0.67864  -0.65096  -0.63352  -0.60583
 Alpha  occ. eigenvalues --   -0.57439  -0.54864  -0.52813  -0.52461  -0.49048
 Alpha  occ. eigenvalues --   -0.46980  -0.44477  -0.42693  -0.41313  -0.40683
 Alpha  occ. eigenvalues --   -0.39830  -0.39513  -0.38715  -0.38109  -0.37590
 Alpha  occ. eigenvalues --   -0.36098  -0.35860  -0.34752  -0.33733  -0.33383
 Alpha  occ. eigenvalues --   -0.32963  -0.32326  -0.31453  -0.30736  -0.30576
 Alpha  occ. eigenvalues --   -0.29876  -0.29593  -0.28629  -0.28016  -0.27439
 Alpha  occ. eigenvalues --   -0.25425  -0.25156  -0.24669  -0.23939  -0.23761
 Alpha  occ. eigenvalues --   -0.23094  -0.20683  -0.20001  -0.18540  -0.16340
 Alpha  occ. eigenvalues --   -0.15501   0.03846
 Alpha virt. eigenvalues --    0.05598   0.06010   0.06879   0.07546   0.07709
 Alpha virt. eigenvalues --    0.07858   0.08533   0.08897   0.09361   0.09618
 Alpha virt. eigenvalues --    0.09968   0.10596   0.10712   0.11301   0.11566

  Beta  occ. eigenvalues --  -19.08101 -19.04692 -19.03805 -19.02568 -19.00778
  Beta  occ. eigenvalues --  -14.26472 -10.21881 -10.18513 -10.15017 -10.13257
  Beta  occ. eigenvalues --  -10.13198 -10.12754 -10.11880 -10.11875 -10.08456
  Beta  occ. eigenvalues --  -10.08136 -10.08100 -10.06443  -1.02184  -0.96809
  Beta  occ. eigenvalues --   -0.95030  -0.94787  -0.93304  -0.85789  -0.71916
  Beta  occ. eigenvalues --   -0.69059  -0.67837  -0.65050  -0.63328  -0.60528
  Beta  occ. eigenvalues --   -0.57402  -0.54812  -0.52749  -0.52392  -0.49010
  Beta  occ. eigenvalues --   -0.46947  -0.44455  -0.42660  -0.41289  -0.40654
  Beta  occ. eigenvalues --   -0.39806  -0.39481  -0.38675  -0.38058  -0.37554
  Beta  occ. eigenvalues --   -0.36074  -0.35829  -0.34729  -0.33693  -0.33352
  Beta  occ. eigenvalues --   -0.32940  -0.32284  -0.31430  -0.30700  -0.30544
  Beta  occ. eigenvalues --   -0.29854  -0.29568  -0.28597  -0.27993  -0.27409
  Beta  occ. eigenvalues --   -0.25405  -0.25129  -0.24648  -0.23898  -0.23743
  Beta  occ. eigenvalues --   -0.23051  -0.20655  -0.19993  -0.18512  -0.16329
  Beta  occ. eigenvalues --   -0.15485
  Beta virt. eigenvalues --    0.05666   0.06508   0.06697   0.07332   0.07811
  Beta virt. eigenvalues --    0.08092   0.08214   0.08650   0.09002   0.09623
  Beta virt. eigenvalues --    0.09959   0.10353   0.10739   0.10882   0.11532

 Mulliken charges and spin densities:
               1          2
     1  C   -0.169785  -0.304207
     2  C   -0.597464   0.383338
     3  C    0.273466  -0.546902
     4  C   -0.159754  -0.052392
     5  O    0.044773   0.013746
     6  C   -0.305547   0.281612
     7  C   -0.042193  -0.607939
     8  C   -0.366949  -0.131441
     9  O   -0.225208   0.012922
    10  N    0.371046  -0.019917
    11  C   -1.059757   0.542877
    12  C    0.054118  -0.448227
    13  O   -0.137025   0.046786
    14  C    0.986842  -1.246025
    15  C    0.837951  -1.020779
    16  C   -0.531865   0.507190
    17  O   -0.273377   0.027912
    18  O   -0.200615   0.002622
    19  H    0.021681   0.117827
    20  H   -0.354380   0.502096
    21  H    0.851478  -0.715394
    22  H   -0.050516   0.200310
    23  H    0.019209   0.119563
    24  H    0.032291   0.121408
    25  H   -0.041109   0.186195
    26  H    0.060188   0.075876
    27  H    0.162294   0.016400
    28  H    0.130679   0.058787
    29  H    0.121509   0.072051
    30  H    0.048426   0.114289
    31  H    0.053056   0.103595
    32  H    0.510255  -0.361590
    33  H    0.293764  -0.000071
    34  H    0.004126   0.186646
    35  H    0.232914  -0.044428
    36  H   -0.392767   0.519867
    37  H   -0.613512   0.755994
    38  H   -0.090096   0.244139
    39  H    0.107961   0.150931
    40  H   -0.429116   0.642989
    41  H   -0.176993   0.491344
 Sum of Mulliken charges =  -1.00000   1.00000

 Dipole moment (field-independent basis, Debye):
    X=              5.1649    Y=             -1.7130    Z=             -3.5978  Tot=              6.5234
 Quadrupole moment (field-independent basis, Debye-Ang):
   XX=           -180.4778   YY=           -175.2843   ZZ=           -153.6237
   XY=             -0.7629   XZ=              3.4913   YZ=             -3.4144

 Summary of Natural Population Analysis:

                                       Natural Population
                Natural  -----------------------------------------------
    Atom  No    Charge         Core      Valence    Rydberg      Total
 -----------------------------------------------------------------------
      C    1   -0.28764      0.99966     2.28140    0.00658     3.28764
      C    2   -0.18848      0.99964     2.18094    0.00790     3.18848
      C    3   -0.19700      0.99962     2.18965    0.00773     3.19700
      C    4   -0.01549      0.99956     2.00486    0.01106     3.01549
      O    5   -0.30225      0.99988     3.29360    0.00877     4.30225
      C    6    0.02973      0.99952     1.95700    0.01375     2.97027
      C    7   -0.29955      0.99965     2.29505    0.00485     3.29955
      C    8    0.34031      0.99962     1.63599    0.02408     2.65969
      O    9   -0.32130      0.99988     3.31594    0.00548     4.32130
      N   10   -0.25304      0.99964     2.74011    0.01329     3.75304
      C   11   -0.10282      0.99959     2.09156    0.01168     3.10282
      C   12   -0.01166      0.99957     1.99961    0.01249     3.01166
      O   13   -0.29719      0.99989     3.28781    0.00949     4.29719
      C   14   -0.09838      0.99961     2.08942    0.00935     3.09838
      C   15   -0.13466      0.99955     2.12222    0.01289     3.13466
      C   16    0.40895      0.99973     1.56571    0.02560     2.59105
      O   17   -0.30378      0.99987     3.29795    0.00596     4.30378
      O   18   -0.34460      0.99987     3.33744    0.00729     4.34460
      H   19    0.09724      0.00000     0.40161    0.00114     0.40276
      H   20    0.09839      0.00000     0.40047    0.00114     0.40161
      H   21    0.09791      0.00000     0.39990    0.00219     0.40209
      H   22    0.09417      0.00000     0.40481    0.00101     0.40583
      H   23    0.09164      0.00000     0.40728    0.00108     0.40836
      H   24    0.10054      0.00000     0.39806    0.00140     0.39946
      H   25    0.09770      0.00000     0.40116    0.00113     0.40230
      H   26    0.08245      0.00000     0.41613    0.00142     0.41755
      H   27    0.08571      0.00000     0.41275    0.00154     0.41429
      H   28    0.09831      0.00000     0.39978    0.00191     0.40169
      H   29    0.10858      0.00000     0.39034    0.00108     0.39142
      H   30    0.10741      0.00000     0.39168    0.00091     0.39259
      H   31    0.10086      0.00000     0.39822    0.00092     0.39914
      H   32    0.10162      0.00000     0.39622    0.00216     0.39838
      H   33    0.11063      0.00000     0.38696    0.00240     0.38937
      H   34    0.08843      0.00000     0.40975    0.00182     0.41157
      H   35    0.08564      0.00000     0.41212    0.00224     0.41436
      H   36    0.08103      0.00000     0.41719    0.00178     0.41897
      H   37    0.08085      0.00000     0.41710    0.00204     0.41915
      H   38    0.08967      0.00000     0.40929    0.00105     0.41033
      H   39    0.11790      0.00000     0.38110    0.00099     0.38210
      H   40    0.11784      0.00000     0.38029    0.00187     0.38216
      H   41    0.24431      0.00000     0.24883    0.00686     0.25569
 =======================================================================
   * Total *   -0.00000     17.99437    52.76731    0.23832    71.00000

 Normal termination of Gaussian 16 at Sun Dec 13 14:09:10 2020.
