 Gaussian 16, Revision A.03,

 -----------------------------------------------------------
 # opt freq B3LYP/6-31G(d) empiricaldispersion=gd3bj scf=xqc
 -----------------------------------------------------------

 ------------------------------
 CID_57071493_JID_4448_neutraal
 ------------------------------
 Symbolic Z-matrix:
 Charge =  0 Multiplicity = 1

 SCF Done:  E(RB3LYP) =  -705.293110053     A.U. after   15 cycles
 SCF Done:  E(RB3LYP) =  -705.302931103     A.U. after   13 cycles
 SCF Done:  E(RB3LYP) =  -705.303414554     A.U. after   12 cycles
 SCF Done:  E(RB3LYP) =  -705.302386232     A.U. after   13 cycles
 SCF Done:  E(RB3LYP) =  -705.303843041     A.U. after   12 cycles
 SCF Done:  E(RB3LYP) =  -705.303914568     A.U. after   12 cycles
 SCF Done:  E(RB3LYP) =  -705.303956142     A.U. after   11 cycles
 SCF Done:  E(RB3LYP) =  -705.303990687     A.U. after   11 cycles
 SCF Done:  E(RB3LYP) =  -705.304019560     A.U. after   11 cycles
 SCF Done:  E(RB3LYP) =  -705.304029725     A.U. after   11 cycles
 SCF Done:  E(RB3LYP) =  -705.304043472     A.U. after    7 cycles
 SCF Done:  E(RB3LYP) =  -705.304043545     A.U. after    7 cycles
 SCF Done:  E(RB3LYP) =  -705.304043636     A.U. after    7 cycles
 SCF Done:  E(RB3LYP) =  -705.304043728     A.U. after    7 cycles
 SCF Done:  E(RB3LYP) =  -705.304043761     A.U. after    7 cycles
 Optimization completed.
    -- Stationary point found.
 Normal termination of Gaussian 16 at Thu Dec 10 09:50:12 2020.

 --------------------------------------------------------------------
 #N Geom=AllCheck Guess=TCheck SCRF=Check GenChk RB3LYP/6-31G(d) Freq
 --------------------------------------------------------------------

 Structure from the checkpoint file:  "JID_4448.chk"
 ------------------------------
 CID_57071493_JID_4448_neutraal
 ------------------------------
 Charge =  0 Multiplicity = 1

 SCF Done:  E(RB3LYP) =  -705.304043761     A.U. after    1 cycles

  Exact polarizability: 127.991  -9.124 111.771   7.164  -2.073  76.408
 Approx polarizability: 172.705 -37.107 206.848  17.582  -9.578 118.626

                      1                      2                      3
                      A                      A                      A
 Frequencies --     22.3079                65.7825                76.5947
 Red. masses --      5.4916                 7.6577                 6.0280
 Frc consts  --      0.0016                 0.0195                 0.0208
 IR Inten    --      0.7686                 1.7642                 5.9089

                      4                      5                      6
                      A                      A                      A
 Frequencies --     99.3556               148.2548               179.5179
 Red. masses --      1.0829                 5.8461                 5.2268
 Frc consts  --      0.0063                 0.0757                 0.0992
 IR Inten    --      0.2786                 0.9822                 2.0750

                      7                      8                      9
                      A                      A                      A
 Frequencies --    188.3761               232.2074               243.5238
 Red. masses --      4.1325                 2.1599                 2.8151
 Frc consts  --      0.0864                 0.0686                 0.0984
 IR Inten    --      1.7909                 0.0728                 0.2061

                     10                     11                     12
                      A                      A                      A
 Frequencies --    261.7961               285.3560               306.7870
 Red. masses --      1.5492                 3.1973                 1.1151
 Frc consts  --      0.0626                 0.1534                 0.0618
 IR Inten    --      0.1869                 0.2987                 0.1949

                     13                     14                     15
                      A                      A                      A
 Frequencies --    329.0937               340.0923               361.0042
 Red. masses --      3.2655                 3.3983                 3.7279
 Frc consts  --      0.2084                 0.2316                 0.2862
 IR Inten    --      4.9084                 3.6653                 1.6493

                     16                     17                     18
                      A                      A                      A
 Frequencies --    379.4329               413.6986               453.6484
 Red. masses --      3.8849                 4.7874                 5.3112
 Frc consts  --      0.3295                 0.4827                 0.6440
 IR Inten    --      8.6112                 2.3025                16.0079

                     19                     20                     21
                      A                      A                      A
 Frequencies --    568.4020               588.7056               620.7709
 Red. masses --      4.4165                 4.7445                 1.4191
 Frc consts  --      0.8407                 0.9688                 0.3222
 IR Inten    --      6.3456                11.3453                88.3828

                     22                     23                     24
                      A                      A                      A
 Frequencies --    623.3411               650.8600               695.6020
 Red. masses --      4.4143                 3.1125                 5.3659
 Frc consts  --      1.0106                 0.7769                 1.5297
 IR Inten    --     29.0265                19.1709                10.0629

                     25                     26                     27
                      A                      A                      A
 Frequencies --    704.8640               761.5138               777.4017
 Red. masses --      3.9564                 7.3988                 4.7963
 Frc consts  --      1.1581                 2.5279                 1.7078
 IR Inten    --     12.8440                 0.4231                32.2041

                     28                     29                     30
                      A                      A                      A
 Frequencies --    794.5850               869.1963               913.6112
 Red. masses --      3.2698                 1.5027                 3.5008
 Frc consts  --      1.2163                 0.6689                 1.7216
 IR Inten    --      7.5297                31.4973                29.0144

                     31                     32                     33
                      A                      A                      A
 Frequencies --    948.4126               967.2408              1027.1619
 Red. masses --      2.6771                 1.4779                 1.5884
 Frc consts  --      1.4188                 0.8146                 0.9874
 IR Inten    --      4.0802                 1.6219                11.3099

                     34                     35                     36
                      A                      A                      A
 Frequencies --   1048.5242              1070.4899              1076.5748
 Red. masses --      1.4004                 1.5286                 2.4476
 Frc consts  --      0.9071                 1.0321                 1.6714
 IR Inten    --      5.2287                 2.2181                 2.4489

                     37                     38                     39
                      A                      A                      A
 Frequencies --   1119.0560              1180.0826              1198.7554
 Red. masses --      3.8058                 3.6134                 2.0441
 Frc consts  --      2.8080                 2.9648                 1.7307
 IR Inten    --     75.2457               243.1630                14.7213

                     40                     41                     42
                      A                      A                      A
 Frequencies --   1233.6649              1247.7187              1273.3405
 Red. masses --      2.6116                 2.9617                 2.7221
 Frc consts  --      2.3418                 2.7166                 2.6005
 IR Inten    --     32.6104                 9.7279                14.5753

                     43                     44                     45
                      A                      A                      A
 Frequencies --   1324.3217              1383.6127              1405.6365
 Red. masses --      2.8872                 2.3772                 9.9756
 Frc consts  --      2.9834                 2.6813                11.6128
 IR Inten    --     13.4810                43.1237               331.4083

                     46                     47                     48
                      A                      A                      A
 Frequencies --   1427.5837              1441.3810              1453.7846
 Red. masses --      1.2231                 1.2917                 1.2594
 Frc consts  --      1.4687                 1.5811                 1.5682
 IR Inten    --     16.8498                11.0728                 8.6036

                     49                     50                     51
                      A                      A                      A
 Frequencies --   1498.0133              1505.7418              1508.8073
 Red. masses --      1.0436                 1.0631                 1.0473
 Frc consts  --      1.3798                 1.4202                 1.4048
 IR Inten    --      8.4269                11.0878                 6.8268

                     52                     53                     54
                      A                      A                      A
 Frequencies --   1518.2628              1526.6059              1544.9275
 Red. masses --      1.0485                 1.0532                 1.0642
 Frc consts  --      1.4240                 1.4462                 1.4965
 IR Inten    --      5.7694                 7.9704                17.0936

                     55                     56                     57
                      A                      A                      A
 Frequencies --   1721.3971              1797.2610              1847.7878
 Red. masses --      7.6439                12.3918                10.9894
 Frc consts  --     13.3453                23.5834                22.1068
 IR Inten    --     28.1212               540.0578               185.9943

                     58                     59                     60
                      A                      A                      A
 Frequencies --   1858.6753              3057.0815              3074.6131
 Red. masses --     11.5410                 1.0366                 1.0375
 Frc consts  --     23.4909                 5.7080                 5.7787
 IR Inten    --     53.9831                 7.5303                13.5235

                     61                     62                     63
                      A                      A                      A
 Frequencies --   3081.3741              3110.7290              3149.4003
 Red. masses --      1.0384                 1.0994                 1.1002
 Frc consts  --      5.8091                 6.2682                 6.4293
 IR Inten    --     13.4956                 5.7344                 9.8324

                     64                     65                     66
                      A                      A                      A
 Frequencies --   3149.7986              3157.7861              3173.4372
 Red. masses --      1.1030                 1.0997                 1.1035
 Frc consts  --      6.4477                 6.4607                 6.5475
 IR Inten    --     12.6185                17.6296                 8.3327

                     67                     68                     69
                      A                      A                      A
 Frequencies --   3185.1496              3260.1657              3686.0808
 Red. masses --      1.1037                 1.0979                 1.0640
 Frc consts  --      6.5972                 6.8751                 8.5177
 IR Inten    --      6.9486                 1.1060                60.2458

 - Thermochemistry -
 -------------------
 Temperature   298.150 Kelvin.  Pressure   1.00000 Atm.
 Atom     1 has atomic number  6 and mass  12.00000

 Molecular mass:   197.06881 amu.
 Principal axes and moments of inertia in atomic units:
                           1         2         3
     Eigenvalues --  1450.981513281.424873859.22507
           X            0.99964   0.02215   0.01517
           Y           -0.02232   0.99969   0.01080
           Z           -0.01493  -0.01114   0.99983
 This molecule is an asymmetric top.
 Rotational symmetry number  1.
 Warning -- assumption of classical behavior for rotation
           may cause significant error
 Rotational temperatures (Kelvin)      0.05969     0.02640     0.02244
 Rotational constants (GHZ):           1.24381     0.54999     0.46764
 Zero-point vibrational energy     515567.3 (Joules/Mol)
                                  123.22354 (Kcal/Mol)
 Warning -- explicit consideration of  21 degrees of freedom as
           vibrations may cause significant error
 Vibrational temperatures:     32.10    94.65   110.20   142.95   213.31
          (Kelvin)            258.29   271.03   334.09   350.38   376.67
                              410.56   441.40   473.49   489.32   519.40
                              545.92   595.22   652.70   817.80   847.02
                              893.15   896.85   936.44  1000.82  1014.14
                             1095.65  1118.51  1143.23  1250.58  1314.48
                             1364.55  1391.64  1477.86  1508.59  1540.20
                             1548.95  1610.07  1697.88  1724.74  1774.97
                             1795.19  1832.05  1905.40  1990.71  2022.40
                             2053.97  2073.83  2091.67  2155.31  2166.43
                             2170.84  2184.44  2196.45  2222.81  2476.71
                             2585.86  2658.55  2674.22  4398.46  4423.68
                             4433.41  4475.65  4531.28  4531.86  4543.35
                             4565.87  4582.72  4690.65  5303.45

 Zero-point correction=                           0.196369 (Hartree/Particle)
 Thermal correction to Energy=                    0.210305
 Thermal correction to Enthalpy=                  0.211249
 Thermal correction to Gibbs Free Energy=         0.155353
 Sum of electronic and zero-point Energies=           -705.107675
 Sum of electronic and thermal Energies=              -705.093739
 Sum of electronic and thermal Enthalpies=            -705.092795
 Sum of electronic and thermal Free Energies=         -705.148691

                     E (Thermal)             CV                S
                      KCal/Mol        Cal/Mol-Kelvin    Cal/Mol-Kelvin
 Total                  131.968             51.499            117.644
 Electronic               0.000              0.000              0.000
 Translational            0.889              2.981             41.740
 Rotational               0.889              2.981             31.286
 Vibrational            130.191             45.538             44.617
 Vibration     1          0.593              1.985              6.417
 Vibration     2          0.597              1.971              4.276
 Vibration     3          0.599              1.965              3.976
 Vibration     4          0.604              1.950              3.467
 Vibration     5          0.618              1.905              2.695
 Vibration     6          0.629              1.867              2.333
 Vibration     7          0.633              1.856              2.244
 Vibration     8          0.653              1.792              1.862
 Vibration     9          0.659              1.773              1.777
 Vibration    10          0.669              1.743              1.650
 Vibration    11          0.683              1.701              1.501
 Vibration    12          0.697              1.661              1.380
 Vibration    13          0.712              1.617              1.265
 Vibration    14          0.720              1.595              1.212
 Vibration    15          0.735              1.553              1.118
 Vibration    16          0.749              1.514              1.041
 Vibration    17          0.777              1.440              0.914
 Vibration    18          0.812              1.353              0.785
 Vibration    19          0.924              1.100              0.507
 Vibration    20          0.946              1.056              0.469
 Vibration    21          0.981              0.988              0.415

 Optimization completed.
    -- Stationary point found.
 Normal termination of Gaussian 16 at Thu Dec 10 09:56:51 2020.

 ----------------------------------------------------------------------
 # B3LYP/6-311++G(d,p) empiricaldispersion=gd3bj scf=xqc pop=npa geom=c
 heck
 ----------------------------------------------------------------------

 --------------------------------------
 CID_57071493_JID_4448_Energie_neutraal
 --------------------------------------
 Structure from the checkpoint file:  "JID_4448.chk"
 Charge =  0 Multiplicity = 1

 SCF Done:  E(RB3LYP) =  -705.515751644     A.U. after   15 cycles
 Normal termination of Gaussian 16 at Thu Dec 10 09:59:08 2020.

 ----------------------------------------------------------------------
 # B3LYP/6-311++G(d,p) empiricaldispersion=gd3bj scf=xqc pop=npa geom=c
 heck
 ----------------------------------------------------------------------

 ------------------------------------
 CID_57071493_JID_4448_Energie_kation
 ------------------------------------
 Structure from the checkpoint file:  "JID_4448.chk"
 Charge =  1 Multiplicity = 2

 SCF Done:  E(UB3LYP) =  -705.167054903     A.U. after   33 cycles
 SCF Done:  E(UB3LYP) =  -705.167054904     a.u. after    1 cycles
 Normal termination of Gaussian 16 at Thu Dec 10 10:05:59 2020.
 Gaussian 16:  ES64L-G16RevA.03 25-Dec-2016

 ----------------------------------------------------------------------
 # B3LYP/6-311++G(d,p) empiricaldispersion=gd3bj scf=xqc pop=npa geom=c
 heck
 ----------------------------------------------------------------------

 -----------------------------------
 CID_57071493_JID_4448_Energie_anion
 -----------------------------------
 Structure from the checkpoint file:  "JID_4448.chk"
 Charge = -1 Multiplicity = 2

                         Standard orientation:
 ---------------------------------------------------------------------
 Center     Atomic      Atomic             Coordinates (Angstroms)
 Number     Number       Type             X           Y           Z
 ---------------------------------------------------------------------
      1          6           0       -3.921544    0.109507   -0.314032
      2          6           0       -2.510186   -0.292615   -0.070263
      3          6           0       -1.950150   -1.490405    0.138714
      4          6           0       -0.484811   -1.312819    0.329687
      5          8           0        0.355378   -2.159450    0.558903
      6          7           0       -0.220583    0.066256    0.208905
      7          6           0       -1.415884    0.752344   -0.020335
      8          8           0       -1.581484    1.949620   -0.139622
      9          6           0        1.154591    0.577681    0.314590
     10          6           0        1.269939    2.037166   -0.167490
     11          6           0        1.639468    0.452619    1.765956
     12          6           0        1.997638   -0.241655   -0.681762
     13          8           0        1.608984   -0.608845   -1.765225
     14          8           0        3.268598   -0.408579   -0.255897
     15          1           0       -4.245930    0.839252    0.436681
     16          1           0       -4.592716   -0.752446   -0.289780
     17          1           0       -4.013402    0.605778   -1.287285
     18          1           0       -2.417093   -2.466082    0.178124
     19          1           0        0.708998    2.708403    0.482694
     20          1           0        2.327971    2.315300   -0.142702
     21          1           0        0.896770    2.147429   -1.187133
     22          1           0        1.618127   -0.587719    2.094957
     23          1           0        2.660934    0.827378    1.860086
     24          1           0        0.985094    1.048052    2.410472
     25          1           0        3.729158   -0.882048   -0.974116
 ---------------------------------------------------------------------

 SCF Done:  E(UB3LYP) =  -705.547517390     A.U. after   21 cycles

 The electronic state is 2-A.
 Alpha  occ. eigenvalues --  -19.06634 -18.99663 -18.92232 -18.92151 -14.18616
 Alpha  occ. eigenvalues --  -10.18918 -10.11505 -10.09079 -10.08881 -10.04949
 Alpha  occ. eigenvalues --  -10.04442 -10.02890 -10.00350  -9.99300  -1.00285
 Alpha  occ. eigenvalues --   -0.90958  -0.88755  -0.86844  -0.78849  -0.69551
 Alpha  occ. eigenvalues --   -0.63330  -0.57847  -0.56302  -0.54717  -0.48963
 Alpha  occ. eigenvalues --   -0.46368  -0.41928  -0.39434  -0.37593  -0.36261
 Alpha  occ. eigenvalues --   -0.33793  -0.32304  -0.30919  -0.30755  -0.30158
 Alpha  occ. eigenvalues --   -0.28368  -0.27869  -0.27596  -0.26563  -0.26031
 Alpha  occ. eigenvalues --   -0.25752  -0.24662  -0.23735  -0.23534  -0.22651
 Alpha  occ. eigenvalues --   -0.22107  -0.21023  -0.16502  -0.12657  -0.11053
 Alpha  occ. eigenvalues --   -0.09965  -0.08736   0.03811
 Alpha virt. eigenvalues --    0.07873   0.09601   0.09854   0.10927   0.11522
 Alpha virt. eigenvalues --    0.12020   0.12575   0.13368   0.14119   0.14391
 Alpha virt. eigenvalues --    0.15053   0.15586   0.16741   0.17126   0.18051

  Beta  occ. eigenvalues --  -19.06634 -18.99664 -18.91760 -18.91697 -14.18718
  Beta  occ. eigenvalues --  -10.18921 -10.11503 -10.08830 -10.08640 -10.04950
  Beta  occ. eigenvalues --  -10.04445 -10.02920  -9.99998  -9.99073  -1.00287
  Beta  occ. eigenvalues --   -0.90943  -0.88126  -0.86025  -0.78577  -0.69276
  Beta  occ. eigenvalues --   -0.62929  -0.57847  -0.56051  -0.54689  -0.48512
  Beta  occ. eigenvalues --   -0.45716  -0.41605  -0.39174  -0.37574  -0.36156
  Beta  occ. eigenvalues --   -0.33721  -0.32014  -0.30877  -0.30283  -0.29826
  Beta  occ. eigenvalues --   -0.27829  -0.27593  -0.27472  -0.26384  -0.25778
  Beta  occ. eigenvalues --   -0.25472  -0.24030  -0.23583  -0.23276  -0.22261
  Beta  occ. eigenvalues --   -0.21299  -0.19439  -0.16495  -0.10622  -0.10506
  Beta  occ. eigenvalues --   -0.08618  -0.08269
  Beta virt. eigenvalues --    0.07870   0.09571   0.09821   0.10903   0.11222
  Beta virt. eigenvalues --    0.11527   0.11998   0.12570   0.13508   0.14151
  Beta virt. eigenvalues --    0.14366   0.15035   0.15588   0.16725   0.17125

 Mulliken charges and spin densities:
               1          2
     1  C   -0.623491   0.023457
     2  C    0.751492   0.287499
     3  C   -0.292766   0.144350
     4  C   -0.165479   0.171343
     5  O   -0.376058   0.161878
     6  N    0.513125  -0.064101
     7  C   -0.676155   0.100540
     8  O   -0.424732   0.164617
     9  C   -0.372274  -0.018438
    10  C   -0.525931  -0.001225
    11  C   -0.330508   0.009980
    12  C    0.166519  -0.001171
    13  O   -0.262185  -0.000788
    14  O   -0.128544   0.000453
    15  H    0.132792   0.019746
    16  H    0.112099   0.000477
    17  H    0.132763   0.017837
    18  H    0.104890  -0.018136
    19  H    0.181642   0.001067
    20  H    0.135911  -0.000623
    21  H    0.186119   0.000367
    22  H    0.212157  -0.000032
    23  H    0.140166  -0.000182
    24  H    0.150340   0.001012
    25  H    0.258106   0.000072
 Sum of Mulliken charges =  -1.00000   1.00000

 Dipole moment (field-independent basis, Debye):
    X=              4.5293    Y=              1.6766    Z=              0.5344  Tot=              4.8592
 Quadrupole moment (field-independent basis, Debye-Ang):
   XX=            -97.7831   YY=           -107.4584   ZZ=            -92.7587
   XY=              6.5915   XZ=             -2.2734   YZ=              2.7234

 Summary of Natural Population Analysis:

                                       Natural Population
                Natural  -----------------------------------------------
    Atom  No    Charge         Core      Valence    Rydberg      Total
 -----------------------------------------------------------------------
      C    1   -0.29903      0.99964     2.29406    0.00534     3.29903
      C    2    0.02937      0.99947     1.96266    0.00850     2.97063
      C    3   -0.09892      0.99943     2.09046    0.00904     3.09892
      C    4    0.37277      0.99968     1.60527    0.02228     2.62723
      O    5   -0.27425      0.99987     3.26819    0.00618     4.27425
      N    6   -0.29744      0.99958     2.78629    0.01157     3.79744
      C    7    0.37468      0.99964     1.60386    0.02182     2.62532
      O    8   -0.27839      0.99987     3.27264    0.00588     4.27839
      C    9    0.03314      0.99954     1.95150    0.01581     2.96686
      C   10   -0.28383      0.99963     2.27832    0.00588     3.28383
      C   11   -0.29035      0.99963     2.28496    0.00576     3.29035
      C   12    0.41446      0.99964     1.55679    0.02910     2.58554
      O   13   -0.30396      0.99986     3.29706    0.00705     4.30396
      O   14   -0.35035      0.99987     3.34339    0.00709     4.35035
      H   15    0.10391      0.00000     0.39491    0.00119     0.39609
      H   16    0.09178      0.00000     0.40728    0.00093     0.40822
      H   17    0.10395      0.00000     0.39490    0.00116     0.39605
      H   18    0.08909      0.00000     0.40911    0.00179     0.41091
      H   19    0.11420      0.00000     0.38487    0.00093     0.38580
      H   20    0.09106      0.00000     0.40799    0.00096     0.40894
      H   21    0.11216      0.00000     0.38692    0.00092     0.38784
      H   22    0.11666      0.00000     0.38233    0.00101     0.38334
      H   23    0.09585      0.00000     0.40324    0.00091     0.40415
      H   24    0.09965      0.00000     0.39942    0.00093     0.40035
      H   25    0.23378      0.00000     0.26157    0.00465     0.26622
 =======================================================================
   * Total *    0.00000     13.99536    37.82799    0.17665    52.00000

 Normal termination of Gaussian 16 at Thu Dec 10 10:10:46 2020.
