 Gaussian 16, Revision A.03,

 -----------------------------------------------------------
 # opt freq B3LYP/6-31G(d) empiricaldispersion=gd3bj scf=xqc
 -----------------------------------------------------------

 ------------------------------
 CID_83918979_JID_7045_neutraal
 ------------------------------
 Symbolic Z-matrix:
 Charge =  0 Multiplicity = 1

 SCF Done:  E(RB3LYP) =  -782.288013662     A.U. after   15 cycles
 SCF Done:  E(RB3LYP) =  -782.292565833     A.U. after   13 cycles
 SCF Done:  E(RB3LYP) =  -782.291937964     A.U. after   13 cycles
 SCF Done:  E(RB3LYP) =  -782.293246937     A.U. after   12 cycles
 SCF Done:  E(RB3LYP) =  -782.293347253     A.U. after   11 cycles
 SCF Done:  E(RB3LYP) =  -782.293438958     A.U. after   10 cycles
 SCF Done:  E(RB3LYP) =  -782.293454750     A.U. after   10 cycles
 SCF Done:  E(RB3LYP) =  -782.293459638     A.U. after   10 cycles
 SCF Done:  E(RB3LYP) =  -782.293460753     A.U. after    8 cycles
 SCF Done:  E(RB3LYP) =  -782.293461085     A.U. after    8 cycles
 SCF Done:  E(RB3LYP) =  -782.293465071     A.U. after    9 cycles
 SCF Done:  E(RB3LYP) =  -782.293466656     A.U. after   10 cycles
 SCF Done:  E(RB3LYP) =  -782.293467916     A.U. after    9 cycles
 SCF Done:  E(RB3LYP) =  -782.293468393     A.U. after    9 cycles
 SCF Done:  E(RB3LYP) =  -782.293468510     A.U. after    8 cycles
 SCF Done:  E(RB3LYP) =  -782.293468529     A.U. after    6 cycles
 Optimization completed.
    -- Stationary point found.
 Normal termination of Gaussian 16 at Fri Dec 11 11:52:54 2020.

 --------------------------------------------------------------------
 #N Geom=AllCheck Guess=TCheck SCRF=Check GenChk RB3LYP/6-31G(d) Freq
 --------------------------------------------------------------------

 Structure from the checkpoint file:  "JID_7045.chk"
 ------------------------------
 CID_83918979_JID_7045_neutraal
 ------------------------------
 Charge =  0 Multiplicity = 1

 SCF Done:  E(RB3LYP) =  -782.293468529     A.U. after    1 cycles

  Exact polarizability: 190.199   4.886 161.532  -3.000  -0.225  95.701
 Approx polarizability: 253.041  -2.947 246.007 -10.434  -1.612 154.575

                      1                      2                      3
                      A                      A                      A
 Frequencies --     31.5856                35.3093                43.1914
 Red. masses --      1.1704                 3.8309                 4.1385
 Frc consts  --      0.0007                 0.0028                 0.0045
 IR Inten    --      1.2426                 0.6237                 0.2607

                      4                      5                      6
                      A                      A                      A
 Frequencies --     64.0326                90.7561               104.1460
 Red. masses --      2.8999                 2.8744                 2.8446
 Frc consts  --      0.0070                 0.0139                 0.0182
 IR Inten    --      0.1702                 0.1829                 0.6765

                      7                      8                      9
                      A                      A                      A
 Frequencies --    125.0567               154.2658               180.5079
 Red. masses --      2.5252                 4.4362                 3.4200
 Frc consts  --      0.0233                 0.0622                 0.0657
 IR Inten    --      0.0278                 1.2929                 0.6969

                     10                     11                     12
                      A                      A                      A
 Frequencies --    204.6314               218.1180               223.0536
 Red. masses --      2.0101                 2.4969                 2.1607
 Frc consts  --      0.0496                 0.0700                 0.0633
 IR Inten    --      1.5628                 1.9691                 0.7639

                     13                     14                     15
                      A                      A                      A
 Frequencies --    273.8126               287.7868               324.9250
 Red. masses --      2.4843                 4.0568                 2.8175
 Frc consts  --      0.1097                 0.1980                 0.1753
 IR Inten    --      0.8915                 2.4262                 0.6208

                     16                     17                     18
                      A                      A                      A
 Frequencies --    361.1882               373.0507               381.4535
 Red. masses --      4.2917                 2.4739                 3.5678
 Frc consts  --      0.3299                 0.2028                 0.3059
 IR Inten    --      1.3089                 3.4568                 0.7432

                     19                     20                     21
                      A                      A                      A
 Frequencies --    411.9064               458.7364               480.0561
 Red. masses --      3.1077                 3.5971                 3.9459
 Frc consts  --      0.3107                 0.4460                 0.5358
 IR Inten    --      0.6341                 3.4894                 4.7384

                     22                     23                     24
                      A                      A                      A
 Frequencies --    523.3960               552.9569               582.2778
 Red. masses --      3.3714                 2.9111                 3.6990
 Frc consts  --      0.5442                 0.5244                 0.7389
 IR Inten    --      1.6090                10.9675                 3.7567

                     25                     26                     27
                      A                      A                      A
 Frequencies --    626.7898               649.9511               659.1699
 Red. masses --      2.8438                 1.9066                 3.1497
 Frc consts  --      0.6582                 0.4745                 0.8063
 IR Inten    --     36.1566                48.3192                51.8494

                     28                     29                     30
                      A                      A                      A
 Frequencies --    697.6628               751.7162               764.7972
 Red. masses --      3.7908                 4.0836                 1.5573
 Frc consts  --      1.0871                 1.3596                 0.5367
 IR Inten    --     15.9703                 9.9639                 4.9608

                     31                     32                     33
                      A                      A                      A
 Frequencies --    770.1448               819.4151               842.8009
 Red. masses --      4.9621                 2.7437                 3.0629
 Frc consts  --      1.7340                 1.0854                 1.2818
 IR Inten    --     28.7711                12.7899                 4.3107

                     34                     35                     36
                      A                      A                      A
 Frequencies --    888.3500               921.2272               942.3621
 Red. masses --      2.7639                 3.1628                 1.4964
 Frc consts  --      1.2851                 1.5815                 0.7829
 IR Inten    --      0.8095                 3.8442                 5.1132

                     37                     38                     39
                      A                      A                      A
 Frequencies --    984.2295               995.0540              1018.1487
 Red. masses --      3.2831                 3.5092                 2.2339
 Frc consts  --      1.8738                 2.0471                 1.3644
 IR Inten    --      5.9629                24.7595                 4.9777

                     40                     41                     42
                      A                      A                      A
 Frequencies --   1021.7915              1047.9284              1064.3814
 Red. masses --      1.9402                 1.7010                 2.3227
 Frc consts  --      1.1935                 1.1006                 1.5504
 IR Inten    --      3.9696                 5.2230                 7.8078

                     43                     44                     45
                      A                      A                      A
 Frequencies --   1077.8604              1093.7410              1111.2931
 Red. masses --      1.6240                 2.1588                 1.8140
 Frc consts  --      1.1116                 1.5216                 1.3199
 IR Inten    --      5.8512                 1.7366                 9.6396

                     46                     47                     48
                      A                      A                      A
 Frequencies --   1149.3993              1161.2654              1179.6832
 Red. masses --      2.0275                 3.0013                 2.7068
 Frc consts  --      1.5781                 2.3847                 2.2194
 IR Inten    --      9.3446                57.1913               190.5880

                     49                     50                     51
                      A                      A                      A
 Frequencies --   1209.2624              1216.1604              1237.5016
 Red. masses --      2.6939                 2.6631                 1.2313
 Frc consts  --      2.3210                 2.3207                 1.1110
 IR Inten    --     37.0845                22.0598                 4.6989

                     52                     53                     54
                      A                      A                      A
 Frequencies --   1261.2503              1273.2247              1300.5530
 Red. masses --      2.1915                 1.7682                 1.2373
 Frc consts  --      2.0540                 1.6889                 1.2331
 IR Inten    --     19.1443                 0.9058                 3.3412

                     55                     56                     57
                      A                      A                      A
 Frequencies --   1322.4629              1330.7708              1343.5699
 Red. masses --      1.7053                 1.7441                 1.3596
 Frc consts  --      1.7572                 1.8199                 1.4460
 IR Inten    --      3.6677                 5.8456                 9.9941

                     58                     59                     60
                      A                      A                      A
 Frequencies --   1360.7103              1381.2238              1389.5633
 Red. masses --      1.7282                 1.4458                 1.4866
 Frc consts  --      1.8852                 1.6251                 1.6913
 IR Inten    --     32.2417                19.6682                 3.3132

                     61                     62                     63
                      A                      A                      A
 Frequencies --   1410.0166              1418.4811              1427.4784
 Red. masses --      2.0738                 1.7257                 1.8047
 Frc consts  --      2.4293                 2.0458                 2.1666
 IR Inten    --     29.7985                59.3174                 4.4192

                     64                     65                     66
                      A                      A                      A
 Frequencies --   1437.8324              1447.6557              1456.8292
 Red. masses --      2.2556                 1.2881                 2.1225
 Frc consts  --      2.7475                 1.5905                 2.6541
 IR Inten    --     26.1552                12.1656                64.1271

                     67                     68                     69
                      A                      A                      A
 Frequencies --   1467.8323              1490.4563              1504.2774
 Red. masses --      2.8644                 1.1129                 1.1056
 Frc consts  --      3.6361                 1.4567                 1.4740
 IR Inten    --     87.2973                 3.9296                19.0363

                     70                     71                     72
                      A                      A                      A
 Frequencies --   1508.2490              1511.9984              1518.1713
 Red. masses --      1.0750                 1.1373                 1.0676
 Frc consts  --      1.4408                 1.5319                 1.4498
 IR Inten    --      9.1037                11.8091                 1.3665

                     73                     74                     75
                      A                      A                      A
 Frequencies --   1529.6604              1534.2651              1537.0451
 Red. masses --      1.0498                 1.0703                 1.0886
 Frc consts  --      1.4472                 1.4845                 1.5152
 IR Inten    --      3.3144                 4.3899                 8.1204

                     76                     77                     78
                      A                      A                      A
 Frequencies --   1541.4745              1599.7243              1623.6504
 Red. masses --      1.0888                 6.7385                 9.8732
 Frc consts  --      1.5244                10.1603                15.3354
 IR Inten    --      6.5525               100.2099                92.7362

                     79                     80                     81
                      A                      A                      A
 Frequencies --   1851.7119              2895.9297              2909.7804
 Red. masses --     10.3662                 1.0736                 1.0746
 Frc consts  --     20.9419                 5.3050                 5.3609
 IR Inten    --    280.6405                30.0164                25.8609

                     82                     83                     84
                      A                      A                      A
 Frequencies --   2920.3253              3049.2802              3049.5977
 Red. masses --      1.0731                 1.0478                 1.0533
 Frc consts  --      5.3922                 5.7402                 5.7715
 IR Inten    --    133.4757                16.5252                22.8071

                     85                     86                     87
                      A                      A                      A
 Frequencies --   3061.8036              3069.0628              3069.6712
 Red. masses --      1.0401                 1.0632                 1.0843
 Frc consts  --      5.7448                 5.9006                 6.0198
 IR Inten    --     10.2698                15.7008                24.8170

                     88                     89                     90
                      A                      A                      A
 Frequencies --   3084.1650              3087.7349              3109.8877
 Red. masses --      1.0992                 1.0862                 1.1012
 Frc consts  --      6.1602                 6.1017                 6.2747
 IR Inten    --     10.5055                23.3675                15.3167

                     91                     92                     93
                      A                      A                      A
 Frequencies --   3114.5800              3118.8211              3121.1057
 Red. masses --      1.1022                 1.1013                 1.0973
 Frc consts  --      6.2996                 6.3115                 6.2981
 IR Inten    --     39.5889                73.9863                10.8680

                     94                     95                     96
                      A                      A                      A
 Frequencies --   3137.2660              3172.2585              3681.2017
 Red. masses --      1.0874                 1.1025                 1.0639
 Frc consts  --      6.3058                 6.5370                 8.4946
 IR Inten    --     19.4546                 6.9657                65.8040

 - Thermochemistry -
 -------------------
 Temperature   298.150 Kelvin.  Pressure   1.00000 Atm.
 Atom     1 has atomic number  6 and mass  12.00000

 Molecular mass:   235.13208 amu.
 Principal axes and moments of inertia in atomic units:
                           1         2         3
     Eigenvalues --  2312.089936674.821558705.46525
           X            0.99969   0.02456   0.00395
           Y           -0.02456   0.99970   0.00029
           Z           -0.00394  -0.00039   0.99999
 This molecule is an asymmetric top.
 Rotational symmetry number  1.
 Warning -- assumption of classical behavior for rotation
           may cause significant error
 Rotational temperatures (Kelvin)      0.03746     0.01298     0.00995
 Rotational constants (GHZ):           0.78057     0.27038     0.20731
 Zero-point vibrational energy     752576.1 (Joules/Mol)
                                  179.87000 (Kcal/Mol)
 Warning -- explicit consideration of  24 degrees of freedom as
           vibrations may cause significant error
 Vibrational temperatures:     45.44    50.80    62.14    92.13   130.58
          (Kelvin)            149.84   179.93   221.95   259.71   294.42
                              313.82   320.92   393.96   414.06   467.49
                              519.67   536.74   548.83   592.64   660.02
                              690.69   753.05   795.58   837.77   901.81
                              935.13   948.40  1003.78  1081.55  1100.37
                             1108.07  1178.96  1212.60  1278.14  1325.44
                             1355.85  1416.09  1431.66  1464.89  1470.13
                             1507.74  1531.41  1550.80  1573.65  1598.90
                             1653.73  1670.80  1697.30  1739.86  1749.78
                             1780.49  1814.66  1831.89  1871.21  1902.73
                             1914.68  1933.10  1957.76  1987.27  1999.27
                             2028.70  2040.88  2053.82  2068.72  2082.85
                             2096.05  2111.88  2144.43  2164.32  2170.03
                             2175.43  2184.31  2200.84  2207.47  2211.47
                             2217.84  2301.65  2336.07  2664.20  4166.60
                             4186.53  4201.70  4387.23  4387.69  4405.25
                             4415.70  4416.57  4437.43  4442.56  4474.43
                             4481.19  4487.29  4490.57  4513.83  4564.17
                             5296.43

 Zero-point correction=                           0.286641 (Hartree/Particle)
 Thermal correction to Energy=                    0.303182
 Thermal correction to Enthalpy=                  0.304127
 Thermal correction to Gibbs Free Energy=         0.240887
 Sum of electronic and zero-point Energies=           -782.006827
 Sum of electronic and thermal Energies=              -781.990286
 Sum of electronic and thermal Enthalpies=            -781.989342
 Sum of electronic and thermal Free Energies=         -782.052581

                     E (Thermal)             CV                S
                      KCal/Mol        Cal/Mol-Kelvin    Cal/Mol-Kelvin
 Total                  190.250             61.342            133.099
 Electronic               0.000              0.000              0.000
 Translational            0.889              2.981             42.267
 Rotational               0.889              2.981             33.263
 Vibrational            188.472             55.381             57.569
 Vibration     1          0.594              1.983              5.727
 Vibration     2          0.594              1.982              5.506
 Vibration     3          0.595              1.980              5.107
 Vibration     4          0.597              1.971              4.329
 Vibration     5          0.602              1.956              3.644
 Vibration     6          0.605              1.946              3.375
 Vibration     7          0.610              1.928              3.021
 Vibration     8          0.620              1.898              2.619
 Vibration     9          0.629              1.866              2.323
 Vibration    10          0.640              1.833              2.091
 Vibration    11          0.646              1.813              1.975
 Vibration    12          0.649              1.806              1.934
 Vibration    13          0.676              1.722              1.572
 Vibration    14          0.685              1.696              1.487
 Vibration    15          0.709              1.626              1.285
 Vibration    16          0.735              1.552              1.117
 Vibration    17          0.744              1.527              1.067
 Vibration    18          0.751              1.510              1.033
 Vibration    19          0.776              1.444              0.920
 Vibration    20          0.817              1.342              0.770
 Vibration    21          0.836              1.294              0.710
 Vibration    22          0.878              1.198              0.602
 Vibration    23          0.908              1.133              0.538
 Vibration    24          0.939              1.070              0.481

 Optimization completed.
    -- Stationary point found.
 Normal termination of Gaussian 16 at Fri Dec 11 12:04:57 2020.

 ----------------------------------------------------------------------
 # B3LYP/6-311++G(d,p) empiricaldispersion=gd3bj scf=xqc pop=npa geom=c
 heck
 ----------------------------------------------------------------------

 --------------------------------------
 CID_83918979_JID_7045_Energie_neutraal
 --------------------------------------
 Structure from the checkpoint file:  "JID_7045.chk"
 Charge =  0 Multiplicity = 1

 SCF Done:  E(RB3LYP) =  -782.513255759     A.U. after   16 cycles
 Normal termination of Gaussian 16 at Fri Dec 11 12:12:11 2020.

 ----------------------------------------------------------------------
 # B3LYP/6-311++G(d,p) empiricaldispersion=gd3bj scf=xqc pop=npa geom=c
 heck
 ----------------------------------------------------------------------

 ------------------------------------
 CID_83918979_JID_7045_Energie_kation
 ------------------------------------
 Structure from the checkpoint file:  "JID_7045.chk"
 Charge =  1 Multiplicity = 2

 SCF Done:  E(UB3LYP) =  -782.209618904     A.U. after   26 cycles
 Normal termination of Gaussian 16 at Fri Dec 11 12:24:48 2020.
 Gaussian 16:  ES64L-G16RevA.03 25-Dec-2016

 ----------------------------------------------------------------------
 # B3LYP/6-311++G(d,p) empiricaldispersion=gd3bj scf=xqc pop=npa geom=c
 heck
 ----------------------------------------------------------------------

 -----------------------------------
 CID_83918979_JID_7045_Energie_anion
 -----------------------------------
 Structure from the checkpoint file:  "JID_7045.chk"
 Charge = -1 Multiplicity = 2

                         Standard orientation:
 ---------------------------------------------------------------------
 Center     Atomic      Atomic             Coordinates (Angstroms)
 Number     Number       Type             X           Y           Z
 ---------------------------------------------------------------------
      1          6           0        5.275531    0.798153    0.471036
      2          6           0        4.538111    0.021102   -0.625488
      3          6           0        3.468177   -0.962177   -0.109530
      4          7           0        2.094890   -0.480672   -0.266557
      5          6           0        1.791039    0.720880    0.503255
      6          6           0        0.461440    1.314589    0.035749
      7          6           0       -0.630079    0.272080    0.001121
      8          6           0       -0.286943   -1.091156    0.011287
      9          6           0        1.152355   -1.540214    0.062223
     10          7           0       -1.197792   -2.066928    0.007095
     11          6           0       -2.489631   -1.703345   -0.006324
     12          7           0       -2.931513   -0.442207   -0.010194
     13          6           0       -2.007291    0.527325   -0.015673
     14          6           0       -2.597590    1.914405   -0.001835
     15          8           0       -3.622288    2.220686    0.558040
     16          8           0       -1.852761    2.801626   -0.710068
     17          6           0       -3.513202   -2.803557   -0.028942
     18          1           0        4.593615    1.393745    1.087794
     19          1           0        6.016468    1.480426    0.039675
     20          1           0        5.805835    0.112811    1.142693
     21          1           0        4.060698    0.707348   -1.335454
     22          1           0        5.279567   -0.541149   -1.205613
     23          1           0        3.528625   -1.899251   -0.674830
     24          1           0        3.680624   -1.225866    0.947131
     25          1           0        1.759414    0.511831    1.592379
     26          1           0        2.578042    1.458877    0.339279
     27          1           0        0.177676    2.148502    0.684905
     28          1           0        0.591660    1.733838   -0.968081
     29          1           0        1.276160   -2.373070   -0.638426
     30          1           0        1.332630   -1.958142    1.075896
     31          1           0       -2.322026    3.654646   -0.639511
     32          1           0       -3.484192   -3.326343   -0.992449
     33          1           0       -3.292507   -3.544469    0.745731
     34          1           0       -4.512487   -2.392093    0.121421
 ---------------------------------------------------------------------

 SCF Done:  E(UB3LYP) =  -782.530757692     A.U. after   29 cycles

 The electronic state is 2-A.
 Alpha  occ. eigenvalues --  -19.02454 -18.94962 -14.19939 -14.14143 -14.13769
 Alpha  occ. eigenvalues --  -10.13286 -10.09833 -10.08387 -10.08308 -10.08265
 Alpha  occ. eigenvalues --  -10.08151 -10.07415 -10.06095 -10.04846 -10.04476
 Alpha  occ. eigenvalues --  -10.03523 -10.03433  -0.96022  -0.86654  -0.83156
 Alpha  occ. eigenvalues --   -0.81814  -0.72842  -0.69774  -0.67170  -0.63896
 Alpha  occ. eigenvalues --   -0.60075  -0.58475  -0.55151  -0.51918  -0.51074
 Alpha  occ. eigenvalues --   -0.48448  -0.45289  -0.43167  -0.40089  -0.37794
 Alpha  occ. eigenvalues --   -0.36892  -0.35605  -0.35328  -0.33677  -0.33054
 Alpha  occ. eigenvalues --   -0.32207  -0.31825  -0.31011  -0.30099  -0.29627
 Alpha  occ. eigenvalues --   -0.28514  -0.27571  -0.27210  -0.26511  -0.25992
 Alpha  occ. eigenvalues --   -0.25324  -0.24870  -0.24381  -0.23284  -0.22456
 Alpha  occ. eigenvalues --   -0.21995  -0.18353  -0.15781  -0.14510  -0.12938
 Alpha  occ. eigenvalues --   -0.11586  -0.11518  -0.09037   0.04065
 Alpha virt. eigenvalues --    0.05769   0.07866   0.08245   0.08926   0.09615
 Alpha virt. eigenvalues --    0.09990   0.10958   0.11070   0.11280   0.12134
 Alpha virt. eigenvalues --    0.12658   0.13092   0.13407   0.13831   0.14561

  Beta  occ. eigenvalues --  -19.02376 -18.94667 -14.19936 -14.13935 -14.13320
  Beta  occ. eigenvalues --  -10.13096 -10.09831 -10.08385 -10.08346 -10.08261
  Beta  occ. eigenvalues --  -10.08144 -10.07429 -10.05962 -10.04851 -10.04085
  Beta  occ. eigenvalues --  -10.03502 -10.03435  -0.95732  -0.86208  -0.82963
  Beta  occ. eigenvalues --   -0.81457  -0.72149  -0.69683  -0.66989  -0.63760
  Beta  occ. eigenvalues --   -0.59968  -0.58369  -0.54631  -0.51670  -0.50896
  Beta  occ. eigenvalues --   -0.48399  -0.44962  -0.43049  -0.39996  -0.37741
  Beta  occ. eigenvalues --   -0.36736  -0.35474  -0.35102  -0.33362  -0.32999
  Beta  occ. eigenvalues --   -0.32111  -0.31651  -0.30468  -0.29717  -0.29347
  Beta  occ. eigenvalues --   -0.28207  -0.27452  -0.27021  -0.26415  -0.25948
  Beta  occ. eigenvalues --   -0.25248  -0.24763  -0.24199  -0.22779  -0.22016
  Beta  occ. eigenvalues --   -0.21846  -0.17136  -0.14137  -0.13863  -0.12400
  Beta  occ. eigenvalues --   -0.11406  -0.10295  -0.08631
  Beta virt. eigenvalues --    0.05756   0.07797   0.08140   0.08839   0.09581
  Beta virt. eigenvalues --    0.09926   0.10376   0.10909   0.11009   0.11425
  Beta virt. eigenvalues --    0.12159   0.12685   0.13047   0.13511   0.13788

 Mulliken charges and spin densities:
               1          2
     1  C   -0.335999  -0.200499
     2  C   -0.154914   0.099420
     3  C   -0.207619  -0.087393
     4  N    0.276895   0.008585
     5  C   -0.828666  -0.086197
     6  C   -0.928285  -0.013889
     7  C    0.874487   0.074129
     8  C   -0.447738   0.055633
     9  C   -0.165552  -0.049135
    10  N   -0.074558   0.236182
    11  C   -0.030061  -0.037963
    12  N    0.001854   0.095526
    13  C   -0.213658   0.293749
    14  C    0.057330   0.145427
    15  O   -0.355383   0.097522
    16  O   -0.186452   0.009052
    17  C   -0.386677  -0.000241
    18  H    0.087702   0.043543
    19  H    0.035447   0.083204
    20  H    0.090473   0.036930
    21  H    0.133884   0.026185
    22  H    0.057218   0.082547
    23  H    0.107243   0.015450
    24  H    0.076769   0.000495
    25  H    0.097969  -0.008386
    26  H    0.111892   0.001676
    27  H    0.166102   0.003595
    28  H    0.211643   0.019537
    29  H    0.152175   0.021365
    30  H    0.141563   0.008952
    31  H    0.241058   0.015697
    32  H    0.123887   0.008051
    33  H    0.126354   0.002340
    34  H    0.143619  -0.001088
 Sum of Mulliken charges =  -1.00000   1.00000

 Dipole moment (field-independent basis, Debye):
    X=              8.2143    Y=              0.4214    Z=             -0.2867  Tot=              8.2301
 Quadrupole moment (field-independent basis, Debye-Ang):
   XX=           -160.6026   YY=           -122.7587   ZZ=           -112.1826
   XY=              4.9190   XZ=              5.4459   YZ=             -1.7888

 Summary of Natural Population Analysis:

                                       Natural Population
                Natural  -----------------------------------------------
    Atom  No    Charge         Core      Valence    Rydberg      Total
 -----------------------------------------------------------------------
      C    1   -0.28532      0.99967     2.28125    0.00440     3.28532
      C    2   -0.20159      0.99964     2.19386    0.00809     3.20159
      C    3   -0.07987      0.99962     2.06977    0.01048     3.07987
      N    4   -0.27607      0.99970     2.76371    0.01266     3.77607
      C    5   -0.08167      0.99962     2.07234    0.00971     3.08167
      C    6   -0.19625      0.99961     2.18771    0.00893     3.19625
      C    7   -0.04429      0.99943     2.03491    0.00995     3.04429
      C    8    0.13522      0.99950     1.85246    0.01283     2.86478
      C    9   -0.09553      0.99959     2.08412    0.01182     3.09553
      N   10   -0.21105      0.99963     2.69872    0.01269     3.71105
      C   11    0.19972      0.99964     1.78388    0.01676     2.80028
      N   12   -0.21683      0.99965     2.70760    0.00957     3.71683
      C   13    0.13416      0.99943     1.85213    0.01427     2.86584
      C   14    0.41584      0.99969     1.55857    0.02590     2.58416
      O   15   -0.28419      0.99987     3.27787    0.00645     4.28419
      O   16   -0.35230      0.99988     3.34516    0.00727     4.35230
      C   17   -0.29789      0.99963     2.29355    0.00471     3.29789
      H   18    0.09754      0.00000     0.40135    0.00111     0.40246
      H   19    0.09516      0.00000     0.40376    0.00107     0.40484
      H   20    0.09354      0.00000     0.40523    0.00124     0.40646
      H   21    0.10241      0.00000     0.39569    0.00189     0.39759
      H   22    0.09371      0.00000     0.40487    0.00142     0.40629
      H   23    0.09409      0.00000     0.40432    0.00159     0.40591
      H   24    0.07418      0.00000     0.42373    0.00209     0.42582
      H   25    0.07582      0.00000     0.42182    0.00236     0.42418
      H   26    0.09117      0.00000     0.40690    0.00192     0.40883
      H   27    0.10307      0.00000     0.39532    0.00161     0.39693
      H   28    0.10462      0.00000     0.39301    0.00237     0.39538
      H   29    0.10251      0.00000     0.39565    0.00184     0.39749
      H   30    0.08308      0.00000     0.41487    0.00206     0.41692
      H   31    0.22671      0.00000     0.26794    0.00536     0.27329
      H   32    0.09817      0.00000     0.40087    0.00096     0.40183
      H   33    0.09896      0.00000     0.40014    0.00090     0.40104
      H   34    0.10318      0.00000     0.39601    0.00081     0.39682
 =======================================================================
   * Total *   -0.00000     16.99382    45.78909    0.21709    63.00000

 Normal termination of Gaussian 16 at Fri Dec 11 12:38:37 2020.
