 Gaussian 16, Revision A.03,

 -----------------------------------------------------------
 # opt freq B3LYP/6-31G(d) empiricaldispersion=gd3bj scf=xqc
 -----------------------------------------------------------

 -------------------------------
 CID_123496613_JID_2412_neutraal
 -------------------------------
 Symbolic Z-matrix:
 Charge =  0 Multiplicity = 1

 SCF Done:  E(RB3LYP) =  -615.368418692     A.U. after   13 cycles
 SCF Done:  E(RB3LYP) =  -615.373276041     A.U. after   11 cycles
 SCF Done:  E(RB3LYP) =  -615.373954061     A.U. after   11 cycles
 SCF Done:  E(RB3LYP) =  -615.374134716     A.U. after   11 cycles
 SCF Done:  E(RB3LYP) =  -615.374190756     A.U. after    9 cycles
 SCF Done:  E(RB3LYP) =  -615.374260560     A.U. after   10 cycles
 SCF Done:  E(RB3LYP) =  -615.374309299     A.U. after   10 cycles
 SCF Done:  E(RB3LYP) =  -615.374317103     A.U. after    9 cycles
 SCF Done:  E(RB3LYP) =  -615.374319496     A.U. after    8 cycles
 SCF Done:  E(RB3LYP) =  -615.374320412     A.U. after    8 cycles
 SCF Done:  E(RB3LYP) =  -615.374321230     A.U. after    8 cycles
 SCF Done:  E(RB3LYP) =  -615.374321348     A.U. after    7 cycles
 Optimization completed.
    -- Stationary point found.

 1\1\GINC-NODE354\FOpt\RB3LYP\6-31G(d)\C8H16O4\VSC10255\27-Feb-2021\0\\
 # opt freq B3LYP/6-31G(d) empiricaldispersion=gd3bj scf=xqc\\CID_12349
 6613_JID_2412_neutraal\\0,1\O,-1.4435250716,1.3400911694,0.268225347\O
 ,-0.6423298456,-1.3733256246,1.2899676652\O,-2.9436522179,-0.695528634
 4,-1.422454905\O,1.2317864444,2.0103643334,-0.2852032792\C,-0.50581810
 76,0.4209073813,-0.3167958523\C,-1.0539471877,-0.9790244758,-0.0167327
 153\C,-2.5656451602,-0.7203189641,-0.0521739065\C,0.8970124085,0.70739
 4415,0.2031417027\C,-2.6334272591,0.6494309391,0.6255896797\C,1.915020

 Normal termination of Gaussian 16 at Sat Feb 27 18:18:16 2021.

 --------------------------------------------------------------------
 #N Geom=AllCheck Guess=TCheck SCRF=Check GenChk RB3LYP/6-31G(d) Freq
 --------------------------------------------------------------------

 Structure from the checkpoint file:  "JID_2412.chk"
 -------------------------------
 CID_123496613_JID_2412_neutraal
 -------------------------------
 Charge =  0 Multiplicity = 1

 SCF Done:  E(RB3LYP) =  -615.374321348     A.U. after    1 cycles

  Exact polarizability: 115.825  -0.870  88.355  -0.671  -0.977  84.987
 Approx polarizability: 131.717   0.832 127.608   0.792  -2.921 130.231

                      1                      2                      3
                      A                      A                      A
 Frequencies --     50.5418                68.3626                86.5184
 Red. masses --      3.9782                 2.3744                 2.7253
 Frc consts  --      0.0060                 0.0065                 0.0120
 IR Inten    --      1.1672                 3.9314                 1.8237

                      4                      5                      6
                      A                      A                      A
 Frequencies --     98.5020               124.1644               143.5810
 Red. masses --      3.6390                 2.8980                 2.9105
 Frc consts  --      0.0208                 0.0263                 0.0354
 IR Inten    --      3.3658                 2.5047                 4.1396

                      7                      8                      9
                      A                      A                      A
 Frequencies --    192.8095               212.3687               228.4385
 Red. masses --      1.7014                 1.7019                 1.2390
 Frc consts  --      0.0373                 0.0452                 0.0381
 IR Inten    --     74.1575                53.0679                99.7185

                     10                     11                     12
                      A                      A                      A
 Frequencies --    232.2198               252.4897               283.9583
 Red. masses --      3.9432                 1.1496                 2.2516
 Frc consts  --      0.1253                 0.0432                 0.1070
 IR Inten    --     11.2501                 0.4829                47.5651

                     13                     14                     15
                      A                      A                      A
 Frequencies --    297.1643               317.8443               352.3981
 Red. masses --      1.7076                 3.3093                 3.7193
 Frc consts  --      0.0888                 0.1970                 0.2721
 IR Inten    --     55.1656                21.6739                 9.3527

                     16                     17                     18
                      A                      A                      A
 Frequencies --    389.6398               423.8723               482.1556
 Red. masses --      3.1770                 3.6451                 3.3740
 Frc consts  --      0.2842                 0.3859                 0.4621
 IR Inten    --      4.2665                13.3178                13.3635

                     19                     20                     21
                      A                      A                      A
 Frequencies --    528.8196               598.8875               765.1051
 Red. masses --      3.6103                 3.2969                 1.5492
 Frc consts  --      0.5949                 0.6967                 0.5343
 IR Inten    --      1.6412                 3.8951                20.5765

                     22                     23                     24
                      A                      A                      A
 Frequencies --    769.1499               822.2930               863.4893
 Red. masses --      2.4465                 4.9519                 2.1365
 Frc consts  --      0.8527                 1.9728                 0.9386
 IR Inten    --     17.3261                23.6941                 1.7973

                     25                     26                     27
                      A                      A                      A
 Frequencies --    877.6722               886.6135               911.8005
 Red. masses --      2.2508                 2.4344                 1.8671
 Frc consts  --      1.0215                 1.1275                 0.9146
 IR Inten    --      6.1634                25.3190                 8.4432

                     28                     29                     30
                      A                      A                      A
 Frequencies --    963.7741               986.4826               994.4014
 Red. masses --      2.5479                 1.9670                 2.4717
 Frc consts  --      1.3944                 1.1278                 1.4400
 IR Inten    --     13.0911                14.2576                31.5257

                     31                     32                     33
                      A                      A                      A
 Frequencies --   1040.1318              1052.0630              1067.7939
 Red. masses --      1.7345                 2.8882                 2.4666
 Frc consts  --      1.1056                 1.8835                 1.6570
 IR Inten    --     13.2418                41.1352                27.7069

                     34                     35                     36
                      A                      A                      A
 Frequencies --   1103.4343              1113.3995              1126.4918
 Red. masses --      2.8604                 2.7309                 3.8620
 Frc consts  --      2.0520                 1.9946                 2.8875
 IR Inten    --     20.8273                96.1281               102.4197

                     37                     38                     39
                      A                      A                      A
 Frequencies --   1143.1812              1155.2851              1160.9641
 Red. masses --      2.9375                 2.5202                 1.8022
 Frc consts  --      2.2618                 1.9818                 1.4312
 IR Inten    --     32.1414                58.6832                 7.5604

                     40                     41                     42
                      A                      A                      A
 Frequencies --   1203.4264              1221.2794              1233.3806
 Red. masses --      1.2975                 1.1695                 1.2031
 Frc consts  --      1.1071                 1.0277                 1.0784
 IR Inten    --      8.1320                42.6666                15.6787

                     43                     44                     45
                      A                      A                      A
 Frequencies --   1271.0918              1277.1230              1308.6378
 Red. masses --      1.2218                 1.3497                 1.2577
 Frc consts  --      1.1631                 1.2971                 1.2691
 IR Inten    --     24.1906                 5.9001                 5.6322

                     46                     47                     48
                      A                      A                      A
 Frequencies --   1314.1726              1349.7498              1354.6642
 Red. masses --      1.2525                 1.1237                 1.3010
 Frc consts  --      1.2745                 1.2062                 1.4067
 IR Inten    --     36.5920                 0.7341                21.1292

                     49                     50                     51
                      A                      A                      A
 Frequencies --   1372.2400              1383.5398              1388.1207
 Red. masses --      1.3043                 1.4436                 1.3536
 Frc consts  --      1.4470                 1.6281                 1.5367
 IR Inten    --      9.5545                22.6577                 5.4539

                     52                     53                     54
                      A                      A                      A
 Frequencies --   1398.3481              1416.9028              1419.9778
 Red. masses --      1.4134                 1.4647                 1.5183
 Frc consts  --      1.6283                 1.7325                 1.8037
 IR Inten    --      7.1708                 8.4104                 9.8131

                     55                     56                     57
                      A                      A                      A
 Frequencies --   1440.5955              1444.9742              1460.7290
 Red. masses --      1.2453                 1.5653                 1.6459
 Frc consts  --      1.5227                 1.9256                 2.0691
 IR Inten    --      1.0034                 0.3910                 6.2154

                     58                     59                     60
                      A                      A                      A
 Frequencies --   1511.1747              1526.7067              1529.8873
 Red. masses --      1.0862                 1.0504                 1.0409
 Frc consts  --      1.4615                 1.4424                 1.4354
 IR Inten    --      0.7968                 1.4919                 6.3638

                     61                     62                     63
                      A                      A                      A
 Frequencies --   1539.7030              1541.5808              3001.4213
 Red. masses --      1.0935                 1.0877                 1.0811
 Frc consts  --      1.5274                 1.5230                 5.7382
 IR Inten    --      0.9839                 1.0624                45.0624

                     64                     65                     66
                      A                      A                      A
 Frequencies --   3020.0715              3024.6080              3033.3309
 Red. masses --      1.0644                 1.0611                 1.0668
 Frc consts  --      5.7202                 5.7196                 5.7833
 IR Inten    --     15.8404               110.8290                14.2066

                     67                     68                     69
                      A                      A                      A
 Frequencies --   3038.2153              3043.1294              3051.5653
 Red. masses --      1.0797                 1.0373                 1.0832
 Frc consts  --      5.8722                 5.6598                 5.9428
 IR Inten    --      4.3417                33.3948                33.7076

                     70                     71                     72
                      A                      A                      A
 Frequencies --   3056.2296              3062.6748              3072.3519
 Red. masses --      1.1086                 1.0958                 1.0870
 Frc consts  --      6.1007                 6.0561                 6.0454
 IR Inten    --     60.7247                 5.3283                52.6744

                     73                     74                     75
                      A                      A                      A
 Frequencies --   3094.8413              3110.2883              3112.6986
 Red. masses --      1.1002                 1.1029                 1.1021
 Frc consts  --      6.2089                 6.2860                 6.2911
 IR Inten    --     14.3643                73.5004                45.3180

                     76                     77                     78
                      A                      A                      A
 Frequencies --   3747.6983              3752.4568              3775.9003
 Red. masses --      1.0664                 1.0664                 1.0665
 Frc consts  --      8.8243                 8.8472                 8.9590
 IR Inten    --     15.9299                16.4279                14.4208

 - Thermochemistry -
 -------------------
 Temperature   298.150 Kelvin.  Pressure   1.00000 Atm.
 Atom     1 has atomic number  8 and mass  15.99491

 Molecular mass:   176.10486 amu.
 Principal axes and moments of inertia in atomic units:
                           1         2         3
     Eigenvalues --  1045.216463683.270534104.58296
           X            0.99993  -0.01017  -0.00602
           Y            0.01024   0.99987   0.01217
           Z            0.00589  -0.01223   0.99991
 This molecule is an asymmetric top.
 Rotational symmetry number  1.
 Warning -- assumption of classical behavior for rotation
           may cause significant error
 Rotational temperatures (Kelvin)      0.08287     0.02352     0.02110
 Rotational constants (GHZ):           1.72667     0.48998     0.43969
 Zero-point vibrational energy     640443.3 (Joules/Mol)
                                  153.06961 (Kcal/Mol)
 Warning -- explicit consideration of  20 degrees of freedom as
           vibrations may cause significant error
 Vibrational temperatures:     72.72    98.36   124.48   141.72   178.64
          (Kelvin)            206.58   277.41   305.55   328.67   334.11
                              363.28   408.55   427.55   457.31   507.02
                              560.60   609.86   693.71   760.85   861.67
                             1100.82  1106.64  1183.10  1242.37  1262.77
                             1275.64  1311.88  1386.66  1419.33  1430.72
                             1496.52  1513.68  1536.32  1587.60  1601.93
                             1620.77  1644.78  1662.20  1670.37  1731.46
                             1757.15  1774.56  1828.82  1837.50  1882.84
                             1890.80  1941.99  1949.06  1974.35  1990.61
                             1997.20  2011.91  2038.61  2043.03  2072.70
                             2079.00  2101.66  2174.24  2196.59  2201.17
                             2215.29  2217.99  4318.38  4345.21  4351.74
                             4364.29  4371.31  4378.38  4390.52  4397.23
                             4406.51  4420.43  4452.79  4475.01  4478.48
                             5392.10  5398.95  5432.68

 Zero-point correction=                           0.243932 (Hartree/Particle)
 Thermal correction to Energy=                    0.257708
 Thermal correction to Enthalpy=                  0.258652
 Thermal correction to Gibbs Free Energy=         0.203597
 Sum of electronic and zero-point Energies=           -615.130389
 Sum of electronic and thermal Energies=              -615.116614
 Sum of electronic and thermal Enthalpies=            -615.115670
 Sum of electronic and thermal Free Energies=         -615.170724

                     E (Thermal)             CV                S
                      KCal/Mol        Cal/Mol-Kelvin    Cal/Mol-Kelvin
 Total                  161.714             50.166            115.872
 Electronic               0.000              0.000              0.000
 Translational            0.889              2.981             41.405
 Rotational               0.889              2.981             31.136
 Vibrational            159.937             44.205             43.331
 Vibration     1          0.595              1.977              4.796
 Vibration     2          0.598              1.969              4.200
 Vibration     3          0.601              1.959              3.737
 Vibration     4          0.604              1.950              3.484
 Vibration     5          0.610              1.929              3.035
 Vibration     6          0.616              1.910              2.756
 Vibration     7          0.635              1.850              2.201
 Vibration     8          0.643              1.822              2.023
 Vibration     9          0.651              1.798              1.891
 Vibration    10          0.653              1.792              1.862
 Vibration    11          0.664              1.759              1.713
 Vibration    12          0.682              1.703              1.510
 Vibration    13          0.691              1.679              1.433
 Vibration    14          0.704              1.639              1.321
 Vibration    15          0.729              1.570              1.155
 Vibration    16          0.758              1.492              1.002
 Vibration    17          0.786              1.418              0.879
 Vibration    18          0.838              1.290              0.704
 Vibration    19          0.884              1.186              0.590
 Vibration    20          0.957              1.034              0.452

                           ! Non-Optimized Parameters !

 1\1\GINC-NODE354\Freq\RB3LYP\6-31G(d)\C8H16O4\VSC10255\27-Feb-2021\0\\
 #N Geom=AllCheck Guess=TCheck SCRF=Check GenChk RB3LYP/6-31G(d) Freq\\
 CID_123496613_JID_2412_neutraal\\0,1\O,-1.4435250716,1.3400911694,0.26
 8225347\O,-0.6423298456,-1.3733256246,1.2899676652\O,-2.9436522179,-0.
 6955286344,-1.422454905\O,1.2317864444,2.0103643334,-0.2852032792\C,-0
 .5058181076,0.4209073813,-0.3167958523\C,-1.0539471877,-0.9790244758,-
 0.0167327153\C,-2.5656451602,-0.7203189641,-0.0521739065\C,0.897012408
 5,0.707394415,0.2031417027\C,-2.6334272591,0.6494309391,0.6255896797\C

 Normal termination of Gaussian 16 at Sat Feb 27 18:24:20 2021.

 ----------------------------------------------------------------------
 # B3LYP/6-311++G(d,p) empiricaldispersion=gd3bj scf=xqc pop=npa geom=c
 heck
 ----------------------------------------------------------------------

 ---------------------------------------
 CID_123496613_JID_2412_Energie_neutraal
 ---------------------------------------
 Structure from the checkpoint file:  "JID_2412.chk"
 Charge =  0 Multiplicity = 1

 SCF Done:  E(RB3LYP) =  -615.584470969     A.U. after   13 cycles
 Normal termination of Gaussian 16 at Sat Feb 27 18:26:27 2021.

 ----------------------------------------------------------------------
 # B3LYP/6-311++G(d,p) empiricaldispersion=gd3bj scf=xqc pop=npa geom=c
 heck
 ----------------------------------------------------------------------

 -------------------------------------
 CID_123496613_JID_2412_Energie_kation
 -------------------------------------
 Structure from the checkpoint file:  "JID_2412.chk"
 Charge =  1 Multiplicity = 2

 SCF Done:  E(UB3LYP) =  -615.257528213     A.U. after   22 cycles
 Normal termination of Gaussian 16 at Sat Feb 27 18:31:04 2021.
 Gaussian 16:  ES64L-G16RevA.03 25-Dec-2016

 ------------------------------------
 CID_123496613_JID_2412_Energie_anion
 ------------------------------------
 Structure from the checkpoint file:  "JID_2412.chk"
 Charge = -1 Multiplicity = 2

                         Standard orientation:
 ---------------------------------------------------------------------
 Center     Atomic      Atomic             Coordinates (Angstroms)
 Number     Number       Type             X           Y           Z
 ---------------------------------------------------------------------
      1          8           0       -1.495522    1.348724    0.312255
      2          8           0       -0.667800   -1.381269    1.266464
      3          8           0       -2.984439   -0.658875   -1.421298
      4          8           0        1.172040    2.054740   -0.234090
      5          6           0       -0.552184    0.451725   -0.297621
      6          6           0       -1.087398   -0.959562   -0.029094
      7          6           0       -2.601343   -0.712986   -0.053276
      8          6           0        0.850026    0.737730    0.224252
      9          6           0       -2.678266    0.639649    0.657100
     10          6           0        1.875139   -0.288303   -0.276148
     11          6           0        3.309610    0.047532    0.142044
     12          6           0        4.322745   -1.000252   -0.324021
     13          1           0       -0.559138    0.622497   -1.382692
     14          1           0       -0.782209   -1.668520   -0.807819
     15          1           0       -3.157098   -1.497827    0.484222
     16          1           0        0.811345    0.713207    1.321306
     17          1           0       -3.556691    1.223348    0.347656
     18          1           0       -2.729052    0.489311    1.744690
     19          1           0        1.821229   -0.339667   -1.372748
     20          1           0        1.604024   -1.275081    0.116853
     21          1           0        3.356071    0.140040    1.237289
     22          1           0        3.583926    1.026880   -0.270172
     23          1           0       -1.019663   -2.272511    1.413500
     24          1           0       -3.804970   -0.147325   -1.486133
     25          1           0        1.860994    2.405067    0.348028
     26          1           0        4.314270   -1.095049   -1.416538
     27          1           0        4.090910   -1.986717    0.095430
     28          1           0        5.341846   -0.737408   -0.018939
 ---------------------------------------------------------------------

 SCF Done:  E(UB3LYP) =  -615.572874085     A.U. after   29 cycles

 The electronic state is 2-A.
 Alpha  occ. eigenvalues --  -19.02577 -19.02268 -19.02262 -19.01371 -10.12220
 Alpha  occ. eigenvalues --  -10.11996 -10.11773 -10.11431 -10.11009 -10.07376
 Alpha  occ. eigenvalues --  -10.06793 -10.06338  -0.95166  -0.92657  -0.92125
 Alpha  occ. eigenvalues --   -0.91260  -0.70278  -0.66870  -0.65522  -0.60593
 Alpha  occ. eigenvalues --   -0.54524  -0.50588  -0.49004  -0.46758  -0.44194
 Alpha  occ. eigenvalues --   -0.41993  -0.39885  -0.39092  -0.36962  -0.36459
 Alpha  occ. eigenvalues --   -0.35265  -0.33044  -0.32246  -0.30741  -0.29537
 Alpha  occ. eigenvalues --   -0.28894  -0.27732  -0.26442  -0.26117  -0.25693
 Alpha  occ. eigenvalues --   -0.24804  -0.23660  -0.22767  -0.20877  -0.18568
 Alpha  occ. eigenvalues --   -0.17940  -0.17445  -0.14847   0.04413
 Alpha virt. eigenvalues --    0.05991   0.06990   0.07527   0.08863   0.09251
 Alpha virt. eigenvalues --    0.09722   0.10779   0.11089   0.11488   0.11713
 Alpha virt. eigenvalues --    0.12330   0.12684   0.14675   0.14873   0.15849

  Beta  occ. eigenvalues --  -19.02546 -19.02256 -19.02219 -19.01371 -10.12210
  Beta  occ. eigenvalues --  -10.11966 -10.11767 -10.11429 -10.10984 -10.07364
  Beta  occ. eigenvalues --  -10.06767 -10.06329  -0.95130  -0.92629  -0.92042
  Beta  occ. eigenvalues --   -0.91225  -0.70255  -0.66828  -0.65465  -0.60552
  Beta  occ. eigenvalues --   -0.54478  -0.50497  -0.48951  -0.46717  -0.44139
  Beta  occ. eigenvalues --   -0.41941  -0.39828  -0.38995  -0.36943  -0.36428
  Beta  occ. eigenvalues --   -0.35230  -0.33006  -0.32210  -0.30712  -0.29510
  Beta  occ. eigenvalues --   -0.28871  -0.27690  -0.26407  -0.26082  -0.25655
  Beta  occ. eigenvalues --   -0.24777  -0.23637  -0.22746  -0.20847  -0.18531
  Beta  occ. eigenvalues --   -0.17894  -0.17418  -0.14837
  Beta virt. eigenvalues --    0.06418   0.07456   0.07620   0.08467   0.09049
  Beta virt. eigenvalues --    0.09974   0.10079   0.11178   0.11359   0.11767
  Beta virt. eigenvalues --    0.12071   0.12515   0.12983   0.14817   0.15032

 Mulliken charges and spin densities:
               1          2
     1  O   -0.123365   0.023224
     2  O   -0.257775   0.078949
     3  O   -0.217324   0.024961
     4  O   -0.201014   0.008881
     5  C   -1.315435   1.352874
     6  C    0.370354  -0.892319
     7  C    0.307347  -0.628302
     8  C    0.630317  -0.958595
     9  C    1.061523  -1.240339
    10  C    0.122047  -0.229165
    11  C   -0.773562   0.643513
    12  C    0.544641  -1.238594
    13  H    0.095738   0.131153
    14  H    0.093795   0.147267
    15  H   -0.994877   1.206186
    16  H    0.168809   0.072130
    17  H   -0.440732   0.590843
    18  H    0.114700   0.037007
    19  H    0.176652  -0.030674
    20  H    0.079562   0.065388
    21  H   -0.022089   0.172002
    22  H    0.066277   0.025872
    23  H   -0.243858   0.503882
    24  H    0.069396   0.172704
    25  H    0.156947   0.083187
    26  H   -0.051499   0.180978
    27  H   -0.123860   0.267048
    28  H   -0.292714   0.429939
 Sum of Mulliken charges =  -1.00000   1.00000

 Dipole moment (field-independent basis, Debye):
    X=              3.3264    Y=              3.7167    Z=             -1.2610  Tot=              5.1448
 Quadrupole moment (field-independent basis, Debye-Ang):
   XX=           -148.2339   YY=           -115.6333   ZZ=           -102.2991
   XY=             -1.6034   XZ=              2.2547   YZ=              8.0791

 Summary of Natural Population Analysis:

                                       Natural Population
                Natural  -----------------------------------------------
    Atom  No    Charge         Core      Valence    Rydberg      Total
 -----------------------------------------------------------------------
      O    1   -0.30250      0.99989     3.29383    0.00878     4.30250
      O    2   -0.37538      0.99989     3.36855    0.00694     4.37538
      O    3   -0.37211      0.99989     3.36539    0.00683     4.37211
      O    4   -0.37052      0.99989     3.36410    0.00653     4.37052
      C    5    0.05672      0.99949     1.92835    0.01543     2.94328
      C    6    0.04806      0.99951     1.93682    0.01561     2.95194
      C    7    0.04127      0.99954     1.94326    0.01593     2.95873
      C    8    0.05811      0.99951     1.92862    0.01377     2.94189
      C    9   -0.01930      0.99957     2.00601    0.01372     3.01930
      C   10   -0.20385      0.99960     2.19506    0.00919     3.20385
      C   11   -0.19300      0.99964     2.18450    0.00885     3.19300
      C   12   -0.28139      0.99967     2.27746    0.00426     3.28139
      H   13    0.09507      0.00000     0.40334    0.00159     0.40493
      H   14    0.09293      0.00000     0.40560    0.00147     0.40707
      H   15    0.08950      0.00000     0.40460    0.00590     0.41050
      H   16    0.08839      0.00000     0.40961    0.00200     0.41161
      H   17    0.08574      0.00000     0.41244    0.00182     0.41426
      H   18    0.08965      0.00000     0.40873    0.00162     0.41035
      H   19    0.09420      0.00000     0.40456    0.00124     0.40580
      H   20    0.10781      0.00000     0.39057    0.00162     0.39219
      H   21    0.09266      0.00000     0.40610    0.00123     0.40734
      H   22    0.09231      0.00000     0.40637    0.00131     0.40769
      H   23    0.23851      0.00000     0.25030    0.01119     0.26149
      H   24    0.23169      0.00000     0.26422    0.00409     0.26831
      H   25    0.22656      0.00000     0.27063    0.00281     0.27344
      H   26    0.09446      0.00000     0.40428    0.00126     0.40554
      H   27    0.09739      0.00000     0.40119    0.00141     0.40261
      H   28    0.09701      0.00000     0.40184    0.00114     0.40299
 =======================================================================
   * Total *    0.00000     11.99610    35.83634    0.16756    48.00000

 Normal termination of Gaussian 16 at Sat Feb 27 18:37:01 2021.
