 Gaussian 16, Revision A.03,

 -----------------------------------------------------------
 # opt freq B3LYP/6-31G(d) empiricaldispersion=gd3bj scf=xqc
 -----------------------------------------------------------

 ------------------------------
 CID_20443307_JID_6432_neutraal
 ------------------------------
 Symbolic Z-matrix:
 Charge =  0 Multiplicity = 1

 SCF Done:  E(RB3LYP) =  -684.710028200     A.U. after   14 cycles
 SCF Done:  E(RB3LYP) =  -684.721410760     A.U. after   12 cycles
 SCF Done:  E(RB3LYP) =  -684.724575050     A.U. after   12 cycles
 SCF Done:  E(RB3LYP) =  -684.725716046     A.U. after   12 cycles
 SCF Done:  E(RB3LYP) =  -684.725999424     A.U. after   11 cycles
 SCF Done:  E(RB3LYP) =  -684.726065413     A.U. after   10 cycles
 SCF Done:  E(RB3LYP) =  -684.726093936     A.U. after   10 cycles
 SCF Done:  E(RB3LYP) =  -684.726110132     A.U. after   10 cycles
 SCF Done:  E(RB3LYP) =  -684.726113458     A.U. after    8 cycles
 SCF Done:  E(RB3LYP) =  -684.726115767     A.U. after    8 cycles
 SCF Done:  E(RB3LYP) =  -684.726116356     A.U. after    8 cycles
 SCF Done:  E(RB3LYP) =  -684.726116633     A.U. after    7 cycles
 SCF Done:  E(RB3LYP) =  -684.726116828     A.U. after    7 cycles
 SCF Done:  E(RB3LYP) =  -684.726116915     A.U. after    7 cycles
 Optimization completed.
    -- Stationary point found.
 Normal termination of Gaussian 16 at Thu Dec 10 22:45:04 2020.

 --------------------------------------------------------------------
 #N Geom=AllCheck Guess=TCheck SCRF=Check GenChk RB3LYP/6-31G(d) Freq
 --------------------------------------------------------------------

 Structure from the checkpoint file:  "JID_6432.chk"
 ------------------------------
 CID_20443307_JID_6432_neutraal
 ------------------------------
 Charge =  0 Multiplicity = 1

 SCF Done:  E(RB3LYP) =  -684.726116915     A.U. after    1 cycles

  Exact polarizability: 220.660   0.616 145.650   0.964  17.577  85.853
 Approx polarizability: 303.996   0.345 245.841   5.678  47.829 139.317

                      1                      2                      3
                      A                      A                      A
 Frequencies --     52.1977                56.2039                78.8464
 Red. masses --      4.1494                 3.2847                 4.3243
 Frc consts  --      0.0067                 0.0061                 0.0158
 IR Inten    --      1.7798                 1.1262                 0.6057

                      4                      5                      6
                      A                      A                      A
 Frequencies --    119.4822               170.9361               199.2089
 Red. masses --      4.0593                 4.1744                 2.8266
 Frc consts  --      0.0341                 0.0719                 0.0661
 IR Inten    --      1.5169                 2.9841                 1.3157

                      7                      8                      9
                      A                      A                      A
 Frequencies --    254.8018               257.1518               269.3748
 Red. masses --      2.9787                 1.1395                 1.2714
 Frc consts  --      0.1139                 0.0444                 0.0544
 IR Inten    --      0.6989                 0.7304                 1.3337

                     10                     11                     12
                      A                      A                      A
 Frequencies --    301.2083               318.2911               342.1738
 Red. masses --      3.5275                 3.5898                 5.4042
 Frc consts  --      0.1886                 0.2143                 0.3728
 IR Inten    --      5.2154                 3.6283                 4.1525

                     13                     14                     15
                      A                      A                      A
 Frequencies --    375.7620               417.5315               435.1601
 Red. masses --      3.7109                 2.6860                 2.9009
 Frc consts  --      0.3087                 0.2759                 0.3237
 IR Inten    --      4.5983                 3.4347                 2.1144

                     16                     17                     18
                      A                      A                      A
 Frequencies --    497.3226               537.4134               547.9782
 Red. masses --      1.6752                 2.4928                 3.8124
 Frc consts  --      0.2441                 0.4242                 0.6745
 IR Inten    --     36.6156                46.2124                26.7732

                     19                     20                     21
                      A                      A                      A
 Frequencies --    566.7732               590.3249               607.5482
 Red. masses --      4.1593                 3.6376                 5.0688
 Frc consts  --      0.7872                 0.7469                 1.1023
 IR Inten    --     10.1199                 4.5172                13.0486

                     22                     23                     24
                      A                      A                      A
 Frequencies --    638.0859               705.4921               727.1748
 Red. masses --      5.9591                 3.3727                 4.1097
 Frc consts  --      1.4295                 0.9890                 1.2804
 IR Inten    --      1.4028                24.3319                 3.6081

                     25                     26                     27
                      A                      A                      A
 Frequencies --    749.3151               753.6220               764.3100
 Red. masses --      1.5572                 1.6448                 3.5613
 Frc consts  --      0.5152                 0.5504                 1.2257
 IR Inten    --     15.9866                56.6705                14.9816

                     28                     29                     30
                      A                      A                      A
 Frequencies --    793.6553               820.9643               856.0254
 Red. masses --      3.0018                 4.1132                 1.4331
 Frc consts  --      1.1140                 1.6333                 0.6187
 IR Inten    --      4.7617                 4.4780                 0.3626

                     31                     32                     33
                      A                      A                      A
 Frequencies --    897.6854               906.7751               913.5941
 Red. masses --      3.7021                 3.2637                 1.4676
 Frc consts  --      1.7577                 1.5811                 0.7217
 IR Inten    --      4.1358                13.9892                 9.6366

                     34                     35                     36
                      A                      A                      A
 Frequencies --    914.6454               941.3075               961.6847
 Red. masses --      1.3910                 3.5249                 1.2197
 Frc consts  --      0.6856                 1.8402                 0.6646
 IR Inten    --      0.4456                 0.6922                 0.0997

                     37                     38                     39
                      A                      A                      A
 Frequencies --    965.6245              1005.7840              1039.6629
 Red. masses --      3.6270                 1.9486                 2.0901
 Frc consts  --      1.9926                 1.1614                 1.3311
 IR Inten    --      4.0234                 7.9950                 4.7490

                     40                     41                     42
                      A                      A                      A
 Frequencies --   1074.5746              1091.3617              1103.3791
 Red. masses --      2.8693                 1.7419                 1.6571
 Frc consts  --      1.9521                 1.2224                 1.1886
 IR Inten    --      1.5894                56.6631                10.7905

                     43                     44                     45
                      A                      A                      A
 Frequencies --   1132.7351              1143.7668              1147.6517
 Red. masses --      1.9732                 1.5891                 2.0899
 Frc consts  --      1.4917                 1.2249                 1.6218
 IR Inten    --     12.4393                 2.9317                11.0580

                     46                     47                     48
                      A                      A                      A
 Frequencies --   1168.5823              1176.8830              1183.4014
 Red. masses --      2.1735                 1.4437                 1.1261
 Frc consts  --      1.7487                 1.1781                 0.9291
 IR Inten    --      0.2931                23.1235                 0.9876

                     49                     50                     51
                      A                      A                      A
 Frequencies --   1236.5468              1259.7884              1273.0918
 Red. masses --      2.4683                 2.0881                 1.9584
 Frc consts  --      2.2237                 1.9525                 1.8701
 IR Inten    --     10.8901                18.8547                18.5166

                     52                     53                     54
                      A                      A                      A
 Frequencies --   1304.7398              1331.1443              1345.6893
 Red. masses --      3.8584                 1.6721                 2.0829
 Frc consts  --      3.8700                 1.7457                 2.2223
 IR Inten    --     98.7170                 7.9730                 2.0194

                     55                     56                     57
                      A                      A                      A
 Frequencies --   1376.6061              1389.2086              1417.7033
 Red. masses --      1.4313                 1.6104                 3.9860
 Frc consts  --      1.5981                 1.8311                 4.7202
 IR Inten    --     41.7182                 5.5038                 1.9514

                     58                     59                     60
                      A                      A                      A
 Frequencies --   1428.6480              1462.0910              1473.3523
 Red. masses --      1.2531                 2.4244                 1.5754
 Frc consts  --      1.5069                 3.0536                 2.0149
 IR Inten    --     14.4196                61.4424                36.1458

                     61                     62                     63
                      A                      A                      A
 Frequencies --   1500.2002              1513.4542              1515.1817
 Red. masses --      2.7857                 1.0571                 1.0692
 Frc consts  --      3.6939                 1.4266                 1.4462
 IR Inten    --     85.8342                 9.4674                 6.6870

                     64                     65                     66
                      A                      A                      A
 Frequencies --   1530.7846              1534.2235              1535.2520
 Red. masses --      2.3148                 1.1773                 1.0602
 Frc consts  --      3.1959                 1.6328                 1.4723
 IR Inten    --      9.9901                 3.9022                 5.8717

                     67                     68                     69
                      A                      A                      A
 Frequencies --   1606.3903              1646.7713              1685.7695
 Red. masses --      6.4145                 6.5618                 7.0925
 Frc consts  --      9.7524                10.4844                11.8754
 IR Inten    --    606.6649                17.9293                65.1408

                     70                     71                     72
                      A                      A                      A
 Frequencies --   1715.0843              3017.7632              3036.9130
 Red. masses --      6.4142                 1.0843                 1.0397
 Frc consts  --     11.1163                 5.8178                 5.6496
 IR Inten    --     19.9825                46.7588                57.8339

                     73                     74                     75
                      A                      A                      A
 Frequencies --   3058.8568              3119.1749              3124.3597
 Red. masses --      1.0376                 1.0975                 1.1027
 Frc consts  --      5.7201                 6.2911                 6.3421
 IR Inten    --     21.9510                20.0343                33.7679

                     76                     77                     78
                      A                      A                      A
 Frequencies --   3152.3375              3171.5511              3183.2386
 Red. masses --      1.1039                 1.1002                 1.0852
 Frc consts  --      6.4630                 6.5204                 6.4788
 IR Inten    --     17.9980                 3.7676                 0.2990

                     79                     80                     81
                      A                      A                      A
 Frequencies --   3192.8626              3205.8860              3215.3593
 Red. masses --      1.0897                 1.0941                 1.0954
 Frc consts  --      6.5454                 6.6250                 6.6726
 IR Inten    --     16.5254                34.0325                19.5531

                     82                     83                     84
                      A                      A                      A
 Frequencies --   3240.2430              3263.0676              3653.0284
 Red. masses --      1.0875                 1.1057                 1.0792
 Frc consts  --      6.7274                 6.9368                 8.4854
 IR Inten    --      1.9150                10.6025                58.3318

 - Thermochemistry -
 -------------------
 Temperature   298.150 Kelvin.  Pressure   1.00000 Atm.
 Atom     1 has atomic number  6 and mass  12.00000

 Molecular mass:   214.12185 amu.
 Principal axes and moments of inertia in atomic units:
                           1         2         3
     Eigenvalues --  1371.186075456.560766319.85978
           X            1.00000   0.00046   0.00124
           Y           -0.00044   0.99986  -0.01653
           Z           -0.00125   0.01653   0.99986
 This molecule is an asymmetric top.
 Rotational symmetry number  1.
 Warning -- assumption of classical behavior for rotation
           may cause significant error
 Rotational temperatures (Kelvin)      0.06317     0.01587     0.01371
 Rotational constants (GHZ):           1.31619     0.33075     0.28557
 Zero-point vibrational energy     653698.2 (Joules/Mol)
                                  156.23761 (Kcal/Mol)
 Warning -- explicit consideration of  21 degrees of freedom as
           vibrations may cause significant error
 Vibrational temperatures:     75.10    80.86   113.44   171.91   245.94
          (Kelvin)            286.62   366.60   369.98   387.57   433.37
                              457.95   492.31   540.64   600.73   626.10
                              715.54   773.22   788.42   815.46   849.35
                              874.13   918.06  1015.05  1046.24  1078.10
                             1084.29  1099.67  1141.89  1181.18  1231.63
                             1291.57  1304.65  1314.46  1315.97  1354.33
                             1383.65  1389.32  1447.10  1495.84  1546.07
                             1570.23  1587.52  1629.75  1645.63  1651.21
                             1681.33  1693.27  1702.65  1779.12  1812.55
                             1831.70  1877.23  1915.22  1936.15  1980.63
                             1998.76  2039.76  2055.51  2103.62  2119.83
                             2158.45  2177.52  2180.01  2202.46  2207.41
                             2208.89  2311.24  2369.34  2425.45  2467.62
                             4341.89  4369.44  4401.01  4487.80  4495.26
                             4535.51  4563.15  4579.97  4593.82  4612.55
                             4626.18  4661.99  4694.83  5255.89

 Zero-point correction=                           0.248980 (Hartree/Particle)
 Thermal correction to Energy=                    0.262329
 Thermal correction to Enthalpy=                  0.263273
 Thermal correction to Gibbs Free Energy=         0.209013
 Sum of electronic and zero-point Energies=           -684.477136
 Sum of electronic and thermal Energies=              -684.463788
 Sum of electronic and thermal Enthalpies=            -684.462844
 Sum of electronic and thermal Free Energies=         -684.517104

                     E (Thermal)             CV                S
                      KCal/Mol        Cal/Mol-Kelvin    Cal/Mol-Kelvin
 Total                  164.614             53.631            114.199
 Electronic               0.000              0.000              0.000
 Translational            0.889              2.981             41.988
 Rotational               0.889              2.981             32.225
 Vibrational            162.836             47.669             39.986
 Vibration     1          0.596              1.977              4.732
 Vibration     2          0.596              1.975              4.586
 Vibration     3          0.600              1.963              3.919
 Vibration     4          0.609              1.933              3.109
 Vibration     5          0.626              1.878              2.425
 Vibration     6          0.637              1.841              2.140
 Vibration     7          0.665              1.755              1.697
 Vibration     8          0.667              1.751              1.681
 Vibration     9          0.674              1.730              1.600
 Vibration    10          0.693              1.671              1.410
 Vibration    11          0.705              1.639              1.319
 Vibration    12          0.721              1.591              1.202
 Vibration    13          0.747              1.522              1.056
 Vibration    14          0.781              1.432              0.900
 Vibration    15          0.796              1.394              0.842
 Vibration    16          0.853              1.256              0.665
 Vibration    17          0.892              1.167              0.571
 Vibration    18          0.903              1.144              0.548
 Vibration    19          0.923              1.103              0.510
 Vibration    20          0.948              1.052              0.467
 Vibration    21          0.966              1.016              0.437

                           ! Non-Optimized Parameters !
 Normal termination of Gaussian 16 at Thu Dec 10 22:54:27 2020.

 ----------------------------------------------------------------------
 # B3LYP/6-311++G(d,p) empiricaldispersion=gd3bj scf=xqc pop=npa geom=c
 heck
 ----------------------------------------------------------------------

 --------------------------------------
 CID_20443307_JID_6432_Energie_neutraal
 --------------------------------------
 Structure from the checkpoint file:  "JID_6432.chk"
 Charge =  0 Multiplicity = 1

 SCF Done:  E(RB3LYP) =  -684.906567991     A.U. after   15 cycles
 Normal termination of Gaussian 16 at Thu Dec 10 22:58:37 2020.

 ----------------------------------------------------------------------
 # B3LYP/6-311++G(d,p) empiricaldispersion=gd3bj scf=xqc pop=npa geom=c
 heck
 ----------------------------------------------------------------------

 ------------------------------------
 CID_20443307_JID_6432_Energie_kation
 ------------------------------------
 Structure from the checkpoint file:  "JID_6432.chk"
 Charge =  1 Multiplicity = 2

 SCF Done:  E(UB3LYP) =  -684.651682870     A.U. after   25 cycles
 Normal termination of Gaussian 16 at Thu Dec 10 23:06:39 2020.
 Gaussian 16:  ES64L-G16RevA.03 25-Dec-2016

 ----------------------------------------------------------------------
 # B3LYP/6-311++G(d,p) empiricaldispersion=gd3bj scf=xqc pop=npa geom=c
 heck
 ----------------------------------------------------------------------

 -----------------------------------
 CID_20443307_JID_6432_Energie_anion
 -----------------------------------
 Structure from the checkpoint file:  "JID_6432.chk"
 Charge = -1 Multiplicity = 2

                         Standard orientation:
 ---------------------------------------------------------------------
 Center     Atomic      Atomic             Coordinates (Angstroms)
 Number     Number       Type             X           Y           Z
 ---------------------------------------------------------------------
      1          6           0       -1.760811   -2.315575    0.718024
      2          6           0       -2.415431   -1.273901   -0.197477
      3          6           0       -3.635631   -0.643335    0.429039
      4          6           0       -3.455797    0.666130    0.585718
      5          7           0       -2.207624    1.130088    0.102430
      6          7           0       -1.580322   -0.059198   -0.444598
      7          6           0       -0.208919   -0.081089   -0.294752
      8          7           0        0.591968   -1.016232   -0.757424
      9          6           0        1.868916   -0.592607   -0.396970
     10          6           0        3.108996   -1.197246   -0.615179
     11          6           0        4.251288   -0.546519   -0.148553
     12          6           0        4.171640    0.685002    0.522503
     13          6           0        2.942356    1.310083    0.745977
     14          6           0        1.808992    0.652411    0.281225
     15          7           0        0.453534    0.966860    0.313756
     16          6           0       -2.335915    2.156650   -0.948587
     17          1           0       -0.850249   -2.713181    0.267512
     18          1           0       -2.468642   -3.135400    0.883838
     19          1           0       -1.513329   -1.871732    1.688227
     20          1           0       -2.649102   -1.753091   -1.158651
     21          1           0       -4.487396   -1.218390    0.768180
     22          1           0       -4.128194    1.399905    1.012956
     23          1           0        3.168505   -2.149123   -1.133384
     24          1           0        5.225294   -1.000887   -0.306849
     25          1           0        5.081353    1.162439    0.874775
     26          1           0        2.880111    2.263164    1.263489
     27          1           0       -0.018124    1.673770    0.858104
     28          1           0       -2.910961    1.791449   -1.809788
     29          1           0       -2.833201    3.029739   -0.514597
     30          1           0       -1.337068    2.450684   -1.278765
 ---------------------------------------------------------------------

 SCF Done:  E(UB3LYP) =  -684.895889735     A.U. after   33 cycles
 SCF Done:  E(UB3LYP) =  -684.895889735     a.u. after    1 cycles

 The electronic state is 2-A.
 Alpha  occ. eigenvalues --  -14.26960 -14.26901 -14.26400 -14.19486 -10.17751
 Alpha  occ. eigenvalues --  -10.13058 -10.11726 -10.10904 -10.10404 -10.09864
 Alpha  occ. eigenvalues --  -10.08626 -10.08193 -10.08140 -10.08036 -10.07626
 Alpha  occ. eigenvalues --  -10.06831  -0.94997  -0.90675  -0.78928  -0.77114
 Alpha  occ. eigenvalues --   -0.74636  -0.71510  -0.65366  -0.64069  -0.63334
 Alpha  occ. eigenvalues --   -0.57399  -0.55354  -0.53041  -0.51761  -0.48876
 Alpha  occ. eigenvalues --   -0.47980  -0.45122  -0.42997  -0.40934  -0.39539
 Alpha  occ. eigenvalues --   -0.36942  -0.35655  -0.35300  -0.35167  -0.34738
 Alpha  occ. eigenvalues --   -0.34359  -0.33363  -0.32497  -0.31690  -0.29573
 Alpha  occ. eigenvalues --   -0.28565  -0.27718  -0.27024  -0.26308  -0.25955
 Alpha  occ. eigenvalues --   -0.22722  -0.21697  -0.19361  -0.18589  -0.14089
 Alpha  occ. eigenvalues --   -0.13611  -0.10245   0.04158
 Alpha virt. eigenvalues --    0.06212   0.06722   0.07348   0.07660   0.07964
 Alpha virt. eigenvalues --    0.08503   0.09228   0.09702   0.09908   0.10151
 Alpha virt. eigenvalues --    0.10553   0.10781   0.11710   0.12078   0.12966

  Beta  occ. eigenvalues --  -14.26958 -14.26901 -14.26373 -14.19483 -10.17749
  Beta  occ. eigenvalues --  -10.13055 -10.11727 -10.10873 -10.10403 -10.09812
  Beta  occ. eigenvalues --  -10.08612 -10.08191 -10.08139 -10.08035 -10.07605
  Beta  occ. eigenvalues --  -10.06816  -0.94985  -0.90661  -0.78904  -0.77100
  Beta  occ. eigenvalues --   -0.74625  -0.71482  -0.65351  -0.64034  -0.63311
  Beta  occ. eigenvalues --   -0.57330  -0.55326  -0.53001  -0.51740  -0.48840
  Beta  occ. eigenvalues --   -0.47948  -0.45085  -0.42954  -0.40909  -0.39510
  Beta  occ. eigenvalues --   -0.36913  -0.35611  -0.35283  -0.35141  -0.34705
  Beta  occ. eigenvalues --   -0.34336  -0.33325  -0.32452  -0.31658  -0.29529
  Beta  occ. eigenvalues --   -0.28544  -0.27703  -0.27009  -0.26289  -0.25941
  Beta  occ. eigenvalues --   -0.22696  -0.21682  -0.19340  -0.18583  -0.14076
  Beta  occ. eigenvalues --   -0.13589  -0.10233
  Beta virt. eigenvalues --    0.06329   0.06826   0.07321   0.07651   0.08178
  Beta virt. eigenvalues --    0.08588   0.08833   0.09401   0.09797   0.10439
  Beta virt. eigenvalues --    0.10575   0.10907   0.11070   0.11960   0.12761

 Mulliken charges and spin densities:
               1          2
     1  C    0.230533  -0.806259
     2  C   -0.054393   0.122595
     3  C    0.317246  -0.507900
     4  C    0.578098  -0.863696
     5  N   -0.078782   0.267056
     6  N   -0.106104   0.100795
     7  C    0.822548  -0.880989
     8  N   -0.088211  -0.068472
     9  C    0.452915  -0.310260
    10  C   -1.448755   0.910852
    11  C   -0.277367  -0.074971
    12  C    0.456426  -0.562456
    13  C   -1.633234   1.016747
    14  C    2.118210  -1.557390
    15  N   -0.397278   0.181017
    16  C    0.958492  -1.273344
    17  H    0.162778   0.005300
    18  H   -0.078660   0.219855
    19  H    0.062013   0.095773
    20  H    0.027356   0.172806
    21  H   -0.665103   0.850796
    22  H   -1.002076   1.184433
    23  H    0.102526   0.046528
    24  H    0.108626   0.023038
    25  H    0.109791   0.040226
    26  H   -0.630607   0.782935
    27  H   -0.090965   0.435711
    28  H   -0.011406   0.168659
    29  H   -0.778197   0.949118
    30  H   -0.166419   0.331498
 Sum of Mulliken charges =  -1.00000   1.00000

 Dipole moment (field-independent basis, Debye):
    X=              6.9235    Y=             -5.2558    Z=             -1.7677  Tot=              8.8703
 Quadrupole moment (field-independent basis, Debye-Ang):
   XX=           -175.3053   YY=           -148.2952   ZZ=           -126.2185
   XY=              9.7556   XZ=              6.3327   YZ=             -3.7361

 Summary of Natural Population Analysis:

                                       Natural Population
                Natural  -----------------------------------------------
    Atom  No    Charge         Core      Valence    Rydberg      Total
 -----------------------------------------------------------------------
      C    1   -0.29617      0.99964     2.29117    0.00536     3.29617
      C    2   -0.01053      0.99959     1.99853    0.01241     3.01053
      C    3   -0.12643      0.99950     2.11648    0.01046     3.12643
      C    4    0.01160      0.99947     1.97564    0.01329     2.98840
      N    5   -0.18023      0.99972     2.66310    0.01741     3.68023
      N    6   -0.16992      0.99963     2.65767    0.01262     3.66992
      C    7    0.30580      0.99959     1.67624    0.01837     2.69420
      N    8   -0.28337      0.99966     2.77521    0.00850     3.78337
      C    9    0.06263      0.99946     1.92497    0.01294     2.93737
      C   10   -0.10996      0.99952     2.10194    0.00850     3.10996
      C   11   -0.11575      0.99958     2.10693    0.00924     3.11575
      C   12   -0.11544      0.99958     2.10513    0.01072     3.11544
      C   13   -0.11669      0.99952     2.10742    0.00975     3.11669
      C   14    0.06322      0.99946     1.92588    0.01144     2.93678
      N   15   -0.28842      0.99963     2.78057    0.00822     3.78842
      C   16   -0.17571      0.99962     2.16709    0.00900     3.17571
      H   17    0.11480      0.00000     0.38392    0.00128     0.38520
      H   18    0.10048      0.00000     0.39847    0.00105     0.39952
      H   19    0.10067      0.00000     0.39835    0.00098     0.39933
      H   20    0.09651      0.00000     0.40205    0.00144     0.40349
      H   21    0.10991      0.00000     0.38843    0.00165     0.39009
      H   22    0.11048      0.00000     0.38545    0.00408     0.38952
      H   23    0.10178      0.00000     0.39687    0.00135     0.39822
      H   24    0.09666      0.00000     0.40261    0.00073     0.40334
      H   25    0.09801      0.00000     0.40127    0.00073     0.40199
      H   26    0.10612      0.00000     0.39255    0.00133     0.39388
      H   27    0.21663      0.00000     0.27926    0.00411     0.28337
      H   28    0.09003      0.00000     0.40836    0.00161     0.40997
      H   29    0.10396      0.00000     0.39224    0.00380     0.39604
      H   30    0.09932      0.00000     0.39901    0.00166     0.40068
 =======================================================================
   * Total *    0.00000     15.99318    40.80278    0.20404    57.00000

 Normal termination of Gaussian 16 at Thu Dec 10 23:17:26 2020.
