 Gaussian 16, Revision A.03,

 -----------------------------------------------------------
 # opt freq B3LYP/6-31G(d) empiricaldispersion=gd3bj scf=xqc
 -----------------------------------------------------------

 ------------------------------
 CID_65248584_JID_5149_neutraal
 ------------------------------
 Symbolic Z-matrix:
 Charge =  0 Multiplicity = 1

 SCF Done:  E(RB3LYP) =  -980.705497792     A.U. after   14 cycles
 SCF Done:  E(RB3LYP) =  -980.708009344     A.U. after   13 cycles
 SCF Done:  E(RB3LYP) =  -980.700275969     A.U. after   13 cycles
 SCF Done:  E(RB3LYP) =  -980.702379765     A.U. after   14 cycles
 SCF Done:  E(RB3LYP) =  -980.709159511     A.U. after   10 cycles
 SCF Done:  E(RB3LYP) =  -980.710489613     A.U. after   13 cycles
 SCF Done:  E(RB3LYP) =  -980.711319962     A.U. after   12 cycles
 SCF Done:  E(RB3LYP) =  -980.711681120     A.U. after   12 cycles
 SCF Done:  E(RB3LYP) =  -980.712029791     A.U. after   11 cycles
 SCF Done:  E(RB3LYP) =  -980.712376462     A.U. after   12 cycles
 SCF Done:  E(RB3LYP) =  -980.713436494     A.U. after   10 cycles
 SCF Done:  E(RB3LYP) =  -980.713442108     A.U. after   10 cycles
 SCF Done:  E(RB3LYP) =  -980.713443075     A.U. after    8 cycles
 SCF Done:  E(RB3LYP) =  -980.713443670     A.U. after    8 cycles
 SCF Done:  E(RB3LYP) =  -980.713443842     A.U. after    7 cycles
 Optimization completed.
    -- Stationary point found.
 Normal termination of Gaussian 16 at Thu Dec 10 15:07:25 2020.

 --------------------------------------------------------------------
 #N Geom=AllCheck Guess=TCheck SCRF=Check GenChk RB3LYP/6-31G(d) Freq
 --------------------------------------------------------------------

 Structure from the checkpoint file:  "JID_5149.chk"
 ------------------------------
 CID_65248584_JID_5149_neutraal
 ------------------------------
 Charge =  0 Multiplicity = 1

 SCF Done:  E(RB3LYP) =  -980.713443842     A.U. after    1 cycles

  Exact polarizability: 187.103   7.551 156.564   6.381   1.937 130.421
 Approx polarizability: 255.494  19.866 226.864  19.270   5.603 200.368

                      1                      2                      3
                      A                      A                      A
 Frequencies --     22.8336                54.1666                67.4758
 Red. masses --      4.5612                 3.9653                 3.0027
 Frc consts  --      0.0014                 0.0069                 0.0081
 IR Inten    --      1.8837                 0.2543                 0.2967

                      4                      5                      6
                      A                      A                      A
 Frequencies --     99.2380               131.8973               150.3306
 Red. masses --      3.6803                 3.1242                 2.1202
 Frc consts  --      0.0214                 0.0320                 0.0282
 IR Inten    --      0.1496                 2.2411                 0.5542

                      7                      8                      9
                      A                      A                      A
 Frequencies --    193.1305               210.9873               215.7037
 Red. masses --      1.7404                 1.6074                 2.1102
 Frc consts  --      0.0382                 0.0422                 0.0578
 IR Inten    --      0.3044                 0.6576                 1.6187

                     10                     11                     12
                      A                      A                      A
 Frequencies --    230.2354               231.3690               246.9476
 Red. masses --      1.5923                 1.5495                 1.2422
 Frc consts  --      0.0497                 0.0489                 0.0446
 IR Inten    --      1.0217                 1.0181                 0.4603

                     13                     14                     15
                      A                      A                      A
 Frequencies --    250.4806               263.9219               274.2557
 Red. masses --      1.3512                 1.8890                 2.1794
 Frc consts  --      0.0499                 0.0775                 0.0966
 IR Inten    --      0.4655                 1.0391                 0.3686

                     16                     17                     18
                      A                      A                      A
 Frequencies --    279.1384               293.5502               310.3444
 Red. masses --      1.7136                 1.2169                 2.0813
 Frc consts  --      0.0787                 0.0618                 0.1181
 IR Inten    --      0.5370                 0.3335                 2.1534

                     19                     20                     21
                      A                      A                      A
 Frequencies --    327.9235               358.0998               364.1738
 Red. masses --      2.2818                 2.1181                 2.2536
 Frc consts  --      0.1446                 0.1600                 0.1761
 IR Inten    --      2.2432                 1.1200                 0.0348

                     22                     23                     24
                      A                      A                      A
 Frequencies --    372.9102               410.4223               432.4057
 Red. masses --      2.3182                 2.6271                 2.2159
 Frc consts  --      0.1899                 0.2607                 0.2441
 IR Inten    --      1.4888                 2.2575                 0.6104

                     25                     26                     27
                      A                      A                      A
 Frequencies --    461.5248               470.4778               485.8255
 Red. masses --      2.1293                 2.8842                 2.7050
 Frc consts  --      0.2672                 0.3761                 0.3762
 IR Inten    --      4.7519                 5.5563                 2.8357

                     28                     29                     30
                      A                      A                      A
 Frequencies --    515.1962               531.8531               563.2136
 Red. masses --      2.8557                 2.8751                 2.4979
 Frc consts  --      0.4466                 0.4792                 0.4668
 IR Inten    --     11.4771                 3.9684                 9.3974

                     31                     32                     33
                      A                      A                      A
 Frequencies --    636.6033               655.1345               684.5084
 Red. masses --      3.8596                 1.6037                 2.5831
 Frc consts  --      0.9216                 0.4055                 0.7131
 IR Inten    --     10.2830                60.5645                37.4220

                     34                     35                     36
                      A                      A                      A
 Frequencies --    705.3432               789.4186               812.4328
 Red. masses --      3.2218                 1.4836                 2.5344
 Frc consts  --      0.9444                 0.5447                 0.9856
 IR Inten    --     25.6663                 5.1464                 4.5987

                     37                     38                     39
                      A                      A                      A
 Frequencies --    831.1764               878.9191               905.8082
 Red. masses --      1.7158                 2.0642                 1.1141
 Frc consts  --      0.6984                 0.9395                 0.5386
 IR Inten    --      2.3184                 7.2598                30.1090

                     40                     41                     42
                      A                      A                      A
 Frequencies --    923.3206               943.3678               953.2662
 Red. masses --      2.0025                 1.5403                 2.1349
 Frc consts  --      1.0058                 0.8076                 1.1430
 IR Inten    --      3.7893                 1.4814                19.0049

                     43                     44                     45
                      A                      A                      A
 Frequencies --    964.8612               974.5435              1003.7938
 Red. masses --      1.6034                 2.1868                 1.6724
 Frc consts  --      0.8795                 1.2236                 0.9929
 IR Inten    --     13.5665                53.5823                 4.5125

                     46                     47                     48
                      A                      A                      A
 Frequencies --   1010.4302              1019.9077              1028.2162
 Red. masses --      1.7475                 1.3884                 1.6559
 Frc consts  --      1.0512                 0.8509                 1.0315
 IR Inten    --      8.0728                 9.4196                 2.7949

                     49                     50                     51
                      A                      A                      A
 Frequencies --   1042.4607              1079.7968              1086.3086
 Red. masses --      1.4362                 2.0511                 2.0248
 Frc consts  --      0.9196                 1.4090                 1.4078
 IR Inten    --      3.6613                 3.7659                10.8957

                     52                     53                     54
                      A                      A                      A
 Frequencies --   1091.1926              1124.5595              1163.0725
 Red. masses --      1.7431                 2.0176                 1.4651
 Frc consts  --      1.2229                 1.5033                 1.1677
 IR Inten    --      6.9204                15.8028                 7.3160

                     55                     56                     57
                      A                      A                      A
 Frequencies --   1191.5630              1203.6701              1214.7185
 Red. masses --      2.7063                 2.0537                 2.2263
 Frc consts  --      2.2639                 1.7531                 1.9355
 IR Inten    --      1.4819                 6.3392                12.1905

                     58                     59                     60
                      A                      A                      A
 Frequencies --   1228.6464              1234.4284              1249.4352
 Red. masses --      2.0683                 2.1485                 2.2811
 Frc consts  --      1.8396                 1.9289                 2.0981
 IR Inten    --     50.8312                11.0487                15.9178

                     61                     62                     63
                      A                      A                      A
 Frequencies --   1294.7438              1314.3489              1341.9887
 Red. masses --      2.5923                 1.3896                 1.4294
 Frc consts  --      2.5604                 1.4143                 1.5167
 IR Inten    --     26.5483                 5.4971                 4.8704

                     64                     65                     66
                      A                      A                      A
 Frequencies --   1352.1815              1368.0113              1394.4299
 Red. masses --      1.5730                 1.3836                 1.4586
 Frc consts  --      1.6945                 1.5256                 1.6710
 IR Inten    --      8.4484                25.6485                 0.3360

                     67                     68                     69
                      A                      A                      A
 Frequencies --   1398.6024              1419.2382              1425.9144
 Red. masses --      1.3701                 1.2303                 1.2967
 Frc consts  --      1.5790                 1.4601                 1.5534
 IR Inten    --      7.2944                 5.7771                 2.9456

                     70                     71                     72
                      A                      A                      A
 Frequencies --   1429.1269              1443.6907              1446.6224
 Red. masses --      1.2577                 1.2474                 2.0708
 Frc consts  --      1.5134                 1.5318                 2.5532
 IR Inten    --      1.4129                 8.6528               166.6285

                     73                     74                     75
                      A                      A                      A
 Frequencies --   1448.2696              1455.7442              1486.3826
 Red. masses --      1.2631                 1.5910                 1.1675
 Frc consts  --      1.5609                 1.9865                 1.5197
 IR Inten    --     32.2733                83.5732                 2.3552

                     76                     77                     78
                      A                      A                      A
 Frequencies --   1502.7449              1510.8257              1511.5692
 Red. masses --      1.0782                 1.0581                 1.0631
 Frc consts  --      1.4345                 1.4230                 1.4311
 IR Inten    --      6.0714                 1.6830                 1.8997

                     79                     80                     81
                      A                      A                      A
 Frequencies --   1517.7085              1521.1991              1527.3931
 Red. masses --      1.0571                 1.0540                 1.0567
 Frc consts  --      1.4347                 1.4371                 1.4524
 IR Inten    --      5.2736                 0.2999                 4.2472

                     82                     83                     84
                      A                      A                      A
 Frequencies --   1528.4989              1530.7587              1533.3558
 Red. masses --      1.0541                 1.0452                 1.0599
 Frc consts  --      1.4509                 1.4430                 1.4683
 IR Inten    --      3.7916                10.2056                 5.4393

                     85                     86                     87
                      A                      A                      A
 Frequencies --   1537.3159              1538.3104              1544.6633
 Red. masses --      1.0485                 1.0521                 1.0532
 Frc consts  --      1.4600                 1.4669                 1.4806
 IR Inten    --      6.7992                13.3337                 0.3863

                     88                     89                     90
                      A                      A                      A
 Frequencies --   1547.7153              1552.2363              1558.8974
 Red. masses --      1.0568                 1.0671                 1.0648
 Frc consts  --      1.4915                 1.5148                 1.5246
 IR Inten    --      8.8553                 7.4361                11.1142

                     91                     92                     93
                      A                      A                      A
 Frequencies --   1728.1223              2988.5726              2999.8711
 Red. masses --      1.1734                 1.0758                 1.0576
 Frc consts  --      2.0647                 5.6610                 5.6077
 IR Inten    --     83.7981                73.6035               142.7150

                     94                     95                     96
                      A                      A                      A
 Frequencies --   3047.0914              3049.6276              3052.7578
 Red. masses --      1.0471                 1.0435                 1.0536
 Frc consts  --      5.7283                 5.7182                 5.7849
 IR Inten    --      9.5916                23.3888                 5.0141

                     97                     98                     99
                      A                      A                      A
 Frequencies --   3056.6135              3058.3009              3060.2012
 Red. masses --      1.0489                 1.0416                 1.0362
 Frc consts  --      5.7738                 5.7399                 5.7171
 IR Inten    --     43.9159                63.3867                28.2561

                    100                    101                    102
                      A                      A                      A
 Frequencies --   3069.6494              3082.0848              3085.7775
 Red. masses --      1.0389                 1.1019                 1.1018
 Frc consts  --      5.7679                 6.1671                 6.1815
 IR Inten    --     14.5393                12.0246                14.7233

                    103                    104                    105
                      A                      A                      A
 Frequencies --   3112.9996              3117.2340              3120.2820
 Red. masses --      1.1019                 1.0797                 1.0990
 Frc consts  --      6.2913                 6.1813                 6.3044
 IR Inten    --     30.6727               140.7423                40.1880

                    106                    107                    108
                      A                      A                      A
 Frequencies --   3121.7026              3122.8127              3124.6435
 Red. masses --      1.0999                 1.1015                 1.0831
 Frc consts  --      6.3153                 6.3288                 6.2306
 IR Inten    --    102.0951                46.7132               814.5973

                    109                    110                    111
                      A                      A                      A
 Frequencies --   3126.3499              3129.4227              3131.9430
 Red. masses --      1.0975                 1.1015                 1.1010
 Frc consts  --      6.3199                 6.3555                 6.3629
 IR Inten    --    163.4365                49.1998                93.9580

                    112                    113                    114
                      A                      A                      A
 Frequencies --   3151.7781              3153.4370              3161.5048
 Red. masses --      1.1012                 1.1003                 1.1004
 Frc consts  --      6.4453                 6.4464                 6.4802
 IR Inten    --     22.5586                17.8757                23.1490

                    115                    116                    117
                      A                      A                      A
 Frequencies --   3166.4910              3172.7410              3612.5759
 Red. masses --      1.0985                 1.0856                 1.0816
 Frc consts  --      6.4897                 6.4387                 8.3167
 IR Inten    --     12.9784                19.4943                34.6019

 - Thermochemistry -
 -------------------
 Temperature   298.150 Kelvin.  Pressure   1.00000 Atm.
 Atom     1 has atomic number  6 and mass  12.00000

 Molecular mass:   230.18167 amu.
 Principal axes and moments of inertia in atomic units:
                           1         2         3
     Eigenvalues --  2193.822315449.310726203.42618
           X            0.99945  -0.03310  -0.00086
           Y            0.03309   0.99940  -0.01008
           Z            0.00119   0.01005   0.99995
 This molecule is an asymmetric top.
 Rotational symmetry number  1.
 Warning -- assumption of classical behavior for rotation
           may cause significant error
 Rotational temperatures (Kelvin)      0.03948     0.01589     0.01396
 Rotational constants (GHZ):           0.82265     0.33119     0.29093
 Zero-point vibrational energy     988342.8 (Joules/Mol)
                                  236.21960 (Kcal/Mol)
 Warning -- explicit consideration of  30 degrees of freedom as
           vibrations may cause significant error
 Vibrational temperatures:     32.85    77.93    97.08   142.78   189.77
          (Kelvin)            216.29   277.87   303.56   310.35   331.26
                              332.89   355.30   360.39   379.72   394.59
                              401.62   422.35   446.52   471.81   515.23
                              523.96   536.53   590.51   622.14   664.03
                              676.91   698.99   741.25   765.22   810.34
                              915.93   942.59   984.85  1014.83  1135.80
                             1168.91  1195.88  1264.57  1303.26  1328.45
                             1357.30  1371.54  1388.22  1402.15  1444.24
                             1453.78  1467.42  1479.37  1499.87  1553.59
                             1562.96  1569.98  1617.99  1673.40  1714.39
                             1731.81  1747.71  1767.75  1776.07  1797.66
                             1862.85  1891.05  1930.82  1945.49  1968.26
                             2006.27  2012.28  2041.97  2051.57  2056.19
                             2077.15  2081.37  2083.74  2094.49  2138.57
                             2162.11  2173.74  2174.81  2183.64  2188.67
                             2197.58  2199.17  2202.42  2206.16  2211.85
                             2213.29  2222.43  2226.82  2233.32  2242.91
                             2486.38  4299.89  4316.15  4384.08  4387.73
                             4392.24  4397.79  4400.21  4402.95  4416.54
                             4434.43  4439.75  4478.91  4485.00  4489.39
                             4491.43  4493.03  4495.67  4498.12  4502.54
                             4506.17  4534.71  4537.09  4548.70  4555.87
                             4564.87  5197.69

 Zero-point correction=                           0.376440 (Hartree/Particle)
 Thermal correction to Energy=                    0.394663
 Thermal correction to Enthalpy=                  0.395607
 Thermal correction to Gibbs Free Energy=         0.331612
 Sum of electronic and zero-point Energies=           -980.337004
 Sum of electronic and thermal Energies=              -980.318781
 Sum of electronic and thermal Enthalpies=            -980.317837
 Sum of electronic and thermal Free Energies=         -980.381832

                     E (Thermal)             CV                S
                      KCal/Mol        Cal/Mol-Kelvin    Cal/Mol-Kelvin
 Total                  247.655             70.911            134.690
 Electronic               0.000              0.000              0.000
 Translational            0.889              2.981             42.203
 Rotational               0.889              2.981             32.672
 Vibrational            245.877             64.949             59.815
 Vibration     1          0.593              1.985              6.371
 Vibration     2          0.596              1.976              4.659
 Vibration     3          0.598              1.970              4.226
 Vibration     4          0.604              1.950              3.469
 Vibration     5          0.612              1.921              2.918
 Vibration     6          0.618              1.902              2.668
 Vibration     7          0.635              1.849              2.198
 Vibration     8          0.643              1.824              2.035
 Vibration     9          0.645              1.817              1.995
 Vibration    10          0.652              1.795              1.877
 Vibration    11          0.653              1.793              1.868
 Vibration    12          0.661              1.768              1.752
 Vibration    13          0.663              1.762              1.727
 Vibration    14          0.670              1.739              1.636
 Vibration    15          0.677              1.721              1.569
 Vibration    16          0.679              1.712              1.539
 Vibration    17          0.688              1.686              1.453
 Vibration    18          0.699              1.654              1.360
 Vibration    19          0.711              1.620              1.270
 Vibration    20          0.733              1.559              1.130
 Vibration    21          0.738              1.546              1.104
 Vibration    22          0.744              1.528              1.068
 Vibration    23          0.775              1.448              0.925
 Vibration    24          0.793              1.400              0.851
 Vibration    25          0.819              1.335              0.762
 Vibration    26          0.828              1.316              0.736
 Vibration    27          0.842              1.281              0.695
 Vibration    28          0.870              1.216              0.621
 Vibration    29          0.887              1.180              0.583
 Vibration    30          0.919              1.111              0.517

 Optimization completed.
    -- Stationary point found.
 Normal termination of Gaussian 16 at Thu Dec 10 15:24:17 2020.

 ----------------------------------------------------------------------
 # B3LYP/6-311++G(d,p) empiricaldispersion=gd3bj scf=xqc pop=npa geom=c
 heck
 ----------------------------------------------------------------------

 --------------------------------------
 CID_65248584_JID_5149_Energie_neutraal
 --------------------------------------
 Structure from the checkpoint file:  "JID_5149.chk"
 Charge =  0 Multiplicity = 1

 SCF Done:  E(RB3LYP) =  -980.906395708     A.U. after   15 cycles
 Normal termination of Gaussian 16 at Thu Dec 10 15:31:59 2020.

 ----------------------------------------------------------------------
 # B3LYP/6-311++G(d,p) empiricaldispersion=gd3bj scf=xqc pop=npa geom=c
 heck
 ----------------------------------------------------------------------

 ------------------------------------
 CID_65248584_JID_5149_Energie_kation
 ------------------------------------
 Structure from the checkpoint file:  "JID_5149.chk"
 Charge =  1 Multiplicity = 2

 SCF Done:  E(UB3LYP) =  -980.634402623     A.U. after   21 cycles
 Normal termination of Gaussian 16 at Thu Dec 10 15:47:35 2020.
 Gaussian 16:  ES64L-G16RevA.03 25-Dec-2016

 ----------------------------------------------------------------------
 # B3LYP/6-311++G(d,p) empiricaldispersion=gd3bj scf=xqc pop=npa geom=c
 heck
 ----------------------------------------------------------------------

 -----------------------------------
 CID_65248584_JID_5149_Energie_anion
 -----------------------------------
 Structure from the checkpoint file:  "JID_5149.chk"
 Charge = -1 Multiplicity = 2

                         Standard orientation:
 ---------------------------------------------------------------------
 Center     Atomic      Atomic             Coordinates (Angstroms)
 Number     Number       Type             X           Y           Z
 ---------------------------------------------------------------------
      1          6           0       -2.442689    2.323189   -0.563435
      2          6           0       -3.230659    1.107757   -0.068031
      3          6           0       -2.394901   -0.063591    0.505716
      4          6           0       -1.658922    0.431215    1.767486
      5          6           0       -3.362144   -1.197456    0.901380
      6          7           0       -1.384214   -0.510235   -0.508422
      7          6           0       -1.940576   -0.814231   -1.828950
      8          6           0       -0.521337   -1.627666   -0.070489
      9          6           0        0.892993   -1.612710   -0.684126
     10          6           0        2.042611   -0.813778    0.003657
     11          6           0        2.079431   -1.102321    1.519708
     12          6           0        3.355714   -1.331909   -0.624639
     13          6           0        1.984115    0.717608   -0.184028
     14         16           0        3.266696    1.718573    0.224052
     15          7           0        0.845845    1.218494   -0.677561
     16          1           0       -1.803277    2.738730    0.221805
     17          1           0       -3.128910    3.114919   -0.882180
     18          1           0       -1.806167    2.076706   -1.419224
     19          1           0       -3.911592    1.425147    0.730797
     20          1           0       -3.878745    0.738314   -0.871291
     21          1           0       -1.265879   -0.392444    2.369922
     22          1           0       -2.356234    0.984311    2.404832
     23          1           0       -0.825541    1.091457    1.515289
     24          1           0       -3.948532   -1.549013    0.046108
     25          1           0       -2.823957   -2.053135    1.321714
     26          1           0       -4.067060   -0.844175    1.661567
     27          1           0       -1.127754   -1.118033   -2.493137
     28          1           0       -2.677513   -1.633427   -1.808577
     29          1           0       -2.409210    0.066181   -2.270578
     30          1           0       -0.439848   -1.614318    1.014761
     31          1           0       -0.997804   -2.586947   -0.328648
     32          1           0        1.229160   -2.656271   -0.685476
     33          1           0        0.843025   -1.322154   -1.740499
     34          1           0        2.070593   -2.184807    1.696830
     35          1           0        2.987993   -0.680273    1.954443
     36          1           0        1.226431   -0.659322    2.043069
     37          1           0        3.355804   -1.182036   -1.710218
     38          1           0        4.213902   -0.802020   -0.209400
     39          1           0        3.464179   -2.404377   -0.425326
     40          1           0       -0.031463    0.667944   -0.722635
     41          1           0        0.788049    2.227417   -0.742381
 ---------------------------------------------------------------------

 SCF Done:  E(UB3LYP) =  -980.897880790     A.U. after   33 cycles
 SCF Done:  E(UB3LYP) =  -980.897880790     a.u. after    1 cycles

 The electronic state is 2-A.
 Alpha  occ. eigenvalues --  -88.69153 -14.23918 -14.22529 -10.15980 -10.12296
 Alpha  occ. eigenvalues --  -10.10982 -10.10459 -10.09409 -10.08305 -10.07558
 Alpha  occ. eigenvalues --  -10.07219 -10.07097 -10.06963 -10.06955 -10.06307
 Alpha  occ. eigenvalues --   -7.77945  -5.74308  -5.73844  -5.73458  -0.85185
 Alpha  occ. eigenvalues --   -0.83629  -0.73559  -0.71228  -0.65362  -0.65060
 Alpha  occ. eigenvalues --   -0.62061  -0.60334  -0.59907  -0.58003  -0.55089
 Alpha  occ. eigenvalues --   -0.53278  -0.50902  -0.46304  -0.44660  -0.43179
 Alpha  occ. eigenvalues --   -0.40644  -0.38534  -0.37695  -0.37091  -0.35720
 Alpha  occ. eigenvalues --   -0.35207  -0.34055  -0.33897  -0.32403  -0.31168
 Alpha  occ. eigenvalues --   -0.30793  -0.30436  -0.29780  -0.29343  -0.28508
 Alpha  occ. eigenvalues --   -0.28155  -0.28005  -0.27136  -0.26667  -0.26041
 Alpha  occ. eigenvalues --   -0.25590  -0.24891  -0.23971  -0.23556  -0.22918
 Alpha  occ. eigenvalues --   -0.22496  -0.14408  -0.13000  -0.11197   0.03912
 Alpha virt. eigenvalues --    0.05858   0.06234   0.06708   0.07229   0.08435
 Alpha virt. eigenvalues --    0.08485   0.08760   0.09460   0.09862   0.10623
 Alpha virt. eigenvalues --    0.10891   0.11167   0.11587   0.11891   0.12778

  Beta  occ. eigenvalues --  -88.69150 -14.23908 -14.22522 -10.15913 -10.12293
  Beta  occ. eigenvalues --  -10.10987 -10.10441 -10.09366 -10.08291 -10.07533
  Beta  occ. eigenvalues --  -10.07195 -10.07078 -10.06954 -10.06937 -10.06271
  Beta  occ. eigenvalues --   -7.77943  -5.74309  -5.73836  -5.73457  -0.85140
  Beta  occ. eigenvalues --   -0.83600  -0.73534  -0.71200  -0.65319  -0.65021
  Beta  occ. eigenvalues --   -0.62009  -0.60290  -0.59864  -0.57944  -0.55035
  Beta  occ. eigenvalues --   -0.53221  -0.50846  -0.46264  -0.44609  -0.43154
  Beta  occ. eigenvalues --   -0.40612  -0.38498  -0.37665  -0.37054  -0.35680
  Beta  occ. eigenvalues --   -0.35179  -0.33998  -0.33863  -0.32358  -0.31128
  Beta  occ. eigenvalues --   -0.30755  -0.30408  -0.29738  -0.29297  -0.28477
  Beta  occ. eigenvalues --   -0.28115  -0.27972  -0.27094  -0.26604  -0.25979
  Beta  occ. eigenvalues --   -0.25537  -0.24852  -0.23931  -0.23517  -0.22888
  Beta  occ. eigenvalues --   -0.22470  -0.14368  -0.12925  -0.11187
  Beta virt. eigenvalues --    0.06172   0.06328   0.06894   0.07409   0.07795
  Beta virt. eigenvalues --    0.08745   0.08868   0.09211   0.09755   0.10351
  Beta virt. eigenvalues --    0.10971   0.11063   0.11450   0.11904   0.12175

 Mulliken charges and spin densities:
               1          2
     1  C    0.072643  -0.675500
     2  C   -0.197959  -0.121460
     3  C   -1.195997   1.335625
     4  C    0.472154  -1.078451
     5  C    0.813103  -1.289814
     6  N   -0.060658  -0.007168
     7  C    0.985037  -1.404529
     8  C   -1.845709   1.708170
     9  C    1.294840  -2.257462
    10  C    1.111608   0.433648
    11  C   -0.154815  -0.597239
    12  C   -0.157946  -0.416397
    13  C   -0.645253   0.292256
    14  S   -0.817134  -0.030513
    15  N   -0.156824  -0.048375
    16  H    0.157861  -0.010895
    17  H   -0.371041   0.538986
    18  H   -0.080208   0.218260
    19  H   -0.121859   0.276185
    20  H   -0.241760   0.426427
    21  H   -0.041458   0.208424
    22  H    0.022059   0.152682
    23  H    0.168301  -0.028467
    24  H   -0.071548   0.231770
    25  H   -0.399911   0.557456
    26  H   -0.347927   0.514732
    27  H   -0.208987   0.351085
    28  H   -0.292265   0.453318
    29  H   -0.143246   0.300213
    30  H    0.218817  -0.084951
    31  H   -0.349921   0.543285
    32  H   -0.131340   0.301165
    33  H    0.256374  -0.089599
    34  H   -0.142201   0.308906
    35  H    0.106535   0.040038
    36  H    0.218053  -0.095884
    37  H    0.051839   0.094807
    38  H    0.165363  -0.028832
    39  H    0.082315   0.040662
    40  H    0.763451  -0.082726
    41  H    0.215614   0.020161
 Sum of Mulliken charges =  -1.00000   1.00000

 Dipole moment (field-independent basis, Debye):
    X=              4.0702    Y=              0.6119    Z=              0.7247  Tot=              4.1793
 Quadrupole moment (field-independent basis, Debye-Ang):
   XX=           -192.4216   YY=           -156.9112   ZZ=           -146.0979
   XY=            -12.0707   XZ=             -4.7333   YZ=              1.3367

 Summary of Natural Population Analysis:

                                       Natural Population
                Natural  -----------------------------------------------
    Atom  No    Charge         Core      Valence    Rydberg      Total
 -----------------------------------------------------------------------
      C    1   -0.28776      0.99965     2.28197    0.00614     3.28776
      C    2   -0.19518      0.99957     2.18544    0.01017     3.19518
      C    3    0.07574      0.99955     1.90858    0.01613     2.92426
      C    4   -0.29342      0.99960     2.28702    0.00680     3.29342
      C    5   -0.29632      0.99960     2.28956    0.00715     3.29632
      N    6   -0.31378      0.99971     2.79602    0.01805     3.81378
      C    7   -0.17796      0.99961     2.16940    0.00895     3.17796
      C    8   -0.08972      0.99959     2.07805    0.01209     3.08972
      C    9   -0.19809      0.99959     2.18758    0.01092     3.19809
      C   10   -0.06847      0.99950     2.05704    0.01192     3.06847
      C   11   -0.28440      0.99962     2.27730    0.00748     3.28440
      C   12   -0.28038      0.99963     2.27456    0.00619     3.28038
      C   13    0.09022      0.99957     1.88879    0.02142     2.90978
      S   14   -0.13474      4.99954     3.12241    0.01278     8.13474
      N   15   -0.38474      0.99964     2.87425    0.01086     3.88474
      H   16    0.09626      0.00000     0.40266    0.00108     0.40374
      H   17    0.10182      0.00000     0.39739    0.00078     0.39818
      H   18    0.09650      0.00000     0.40213    0.00138     0.40350
      H   19    0.10120      0.00000     0.39763    0.00117     0.39880
      H   20    0.10235      0.00000     0.39611    0.00154     0.39765
      H   21    0.10069      0.00000     0.39835    0.00096     0.39931
      H   22    0.10414      0.00000     0.39509    0.00077     0.39586
      H   23    0.10457      0.00000     0.39407    0.00137     0.39543
      H   24    0.10455      0.00000     0.39411    0.00134     0.39545
      H   25    0.10239      0.00000     0.39633    0.00128     0.39761
      H   26    0.10395      0.00000     0.39476    0.00129     0.39605
      H   27    0.09776      0.00000     0.40101    0.00124     0.40224
      H   28    0.09169      0.00000     0.40656    0.00175     0.40831
      H   29    0.09978      0.00000     0.39881    0.00141     0.40022
      H   30    0.10298      0.00000     0.39485    0.00217     0.39702
      H   31    0.09443      0.00000     0.40398    0.00159     0.40557
      H   32    0.10492      0.00000     0.39393    0.00115     0.39508
      H   33    0.10339      0.00000     0.39525    0.00136     0.39661
      H   34    0.09965      0.00000     0.39959    0.00076     0.40035
      H   35    0.10992      0.00000     0.38931    0.00078     0.39008
      H   36    0.10151      0.00000     0.39752    0.00098     0.39849
      H   37    0.09965      0.00000     0.39955    0.00079     0.40035
      H   38    0.11225      0.00000     0.38677    0.00098     0.38775
      H   39    0.09594      0.00000     0.40326    0.00080     0.40406
      H   40    0.21438      0.00000     0.28096    0.00466     0.28562
      H   41    0.19236      0.00000     0.30519    0.00245     0.30764
 =======================================================================
   * Total *    0.00000     18.99400    44.80314    0.20286    64.00000

 Normal termination of Gaussian 16 at Thu Dec 10 16:11:18 2020.
