 Gaussian 16, Revision A.03,

 -----------------------------------------------------------
 # opt freq B3LYP/6-31G(d) empiricaldispersion=gd3bj scf=xqc
 -----------------------------------------------------------

 ------------------------------
 CID_60678041_JID_2587_neutraal
 ------------------------------
 Symbolic Z-matrix:
 Charge =  0 Multiplicity = 1

 SCF Done:  E(RB3LYP) =  -591.869480067     A.U. after   15 cycles
 SCF Done:  E(RB3LYP) =  -591.873226988     A.U. after   13 cycles
 SCF Done:  E(RB3LYP) =  -591.873427377     A.U. after   13 cycles
 SCF Done:  E(RB3LYP) =  -591.874990344     A.U. after   12 cycles
 SCF Done:  E(RB3LYP) =  -591.875740155     A.U. after   12 cycles
 SCF Done:  E(RB3LYP) =  -591.876146385     A.U. after   12 cycles
 SCF Done:  E(RB3LYP) =  -591.876418411     A.U. after   11 cycles
 SCF Done:  E(RB3LYP) =  -591.876552260     A.U. after   11 cycles
 SCF Done:  E(RB3LYP) =  -591.876601441     A.U. after   11 cycles
 SCF Done:  E(RB3LYP) =  -591.876668511     A.U. after   11 cycles
 SCF Done:  E(RB3LYP) =  -591.876934999     A.U. after   10 cycles
 SCF Done:  E(RB3LYP) =  -591.876937604     A.U. after    9 cycles
 SCF Done:  E(RB3LYP) =  -591.876938889     A.U. after    9 cycles
 SCF Done:  E(RB3LYP) =  -591.876939140     A.U. after    8 cycles
 SCF Done:  E(RB3LYP) =  -591.876939203     A.U. after    7 cycles
 Optimization completed.
    -- Stationary point found.
 Normal termination of Gaussian 16 at Wed Dec  9 18:06:13 2020.

 --------------------------------------------------------------------
 #N Geom=AllCheck Guess=TCheck SCRF=Check GenChk RB3LYP/6-31G(d) Freq
 --------------------------------------------------------------------

 Structure from the checkpoint file:  "JID_2587.chk"
 ------------------------------
 CID_60678041_JID_2587_neutraal
 ------------------------------
 Charge =  0 Multiplicity = 1

 SCF Done:  E(RB3LYP) =  -591.876939203     A.U. after    1 cycles

  Exact polarizability: 119.264   0.130 112.288  -4.799   0.603  64.820
 Approx polarizability: 172.114  -5.664 170.714 -14.346  -2.650  99.409

                      1                      2                      3
                      A                      A                      A
 Frequencies --     53.4469                87.3590                92.9672
 Red. masses --      2.9647                 1.7476                 1.6626
 Frc consts  --      0.0050                 0.0079                 0.0085
 IR Inten    --      0.7665                 1.1504                 1.2419

                      4                      5                      6
                      A                      A                      A
 Frequencies --    110.9788               121.7058               155.2285
 Red. masses --      1.1855                 1.1608                 3.6375
 Frc consts  --      0.0086                 0.0101                 0.0516
 IR Inten    --      0.2458                 0.1893                 9.5521

                      7                      8                      9
                      A                      A                      A
 Frequencies --    164.7593               199.9024               205.4887
 Red. masses --      3.4443                 3.3885                 3.0759
 Frc consts  --      0.0551                 0.0798                 0.0765
 IR Inten    --      0.9942                 8.8966                 9.0197

                     10                     11                     12
                      A                      A                      A
 Frequencies --    266.2732               284.2534               298.9386
 Red. masses --      2.7659                 2.5471                 2.3298
 Frc consts  --      0.1155                 0.1213                 0.1227
 IR Inten    --     11.4859                 7.2660                46.5494

                     13                     14                     15
                      A                      A                      A
 Frequencies --    317.4319               331.6611               401.4444
 Red. masses --      2.0276                 3.5672                 6.9208
 Frc consts  --      0.1204                 0.2312                 0.6571
 IR Inten    --    111.7251                 5.2179                 1.1997

                     16                     17                     18
                      A                      A                      A
 Frequencies --    454.9818               571.3646               588.8704
 Red. masses --      3.4783                 2.9625                 4.6452
 Frc consts  --      0.4242                 0.5698                 0.9491
 IR Inten    --     23.2614                26.7803                11.8398

                     19                     20                     21
                      A                      A                      A
 Frequencies --    613.6428               637.6209               650.2801
 Red. masses --      4.1433                 4.9349                 4.5191
 Frc consts  --      0.9192                 1.1821                 1.1259
 IR Inten    --      8.8449                 4.7951                 8.4916

                     22                     23                     24
                      A                      A                      A
 Frequencies --    686.7590               743.7626               783.0318
 Red. masses --      5.4220                 1.7949                 9.0065
 Frc consts  --      1.5067                 0.5850                 3.2536
 IR Inten    --      9.8009               164.9187                 6.2146

                     25                     26                     27
                      A                      A                      A
 Frequencies --    853.7377               957.4880              1029.1025
 Red. masses --      3.6526                 1.8417                 1.7439
 Frc consts  --      1.5686                 0.9948                 1.0882
 IR Inten    --      9.4931                 1.4114                 8.0789

                     28                     29                     30
                      A                      A                      A
 Frequencies --   1071.6468              1077.0435              1082.1229
 Red. masses --      1.4164                 2.6940                 1.5260
 Frc consts  --      0.9584                 1.8413                 1.0528
 IR Inten    --      0.6511                14.9639                 8.7444

                     31                     32                     33
                      A                      A                      A
 Frequencies --   1085.6337              1086.7627              1140.7443
 Red. masses --      2.6848                 1.5206                 3.4244
 Frc consts  --      1.8643                 1.0581                 2.6255
 IR Inten    --     25.5597                 1.1061                27.9169

                     34                     35                     36
                      A                      A                      A
 Frequencies --   1166.6593              1259.7252              1322.0510
 Red. masses --      4.0651                 5.1955                 5.1935
 Frc consts  --      3.2599                 4.8577                 5.3482
 IR Inten    --     15.1720                31.0243                41.0703

                     37                     38                     39
                      A                      A                      A
 Frequencies --   1372.1003              1416.0914              1425.2291
 Red. masses --      4.0222                 1.2040                 1.8442
 Frc consts  --      4.4615                 1.4225                 2.2071
 IR Inten    --     59.4418                22.9296                20.2033

                     40                     41                     42
                      A                      A                      A
 Frequencies --   1441.0770              1443.9741              1453.3198
 Red. masses --      1.3549                 1.3711                 1.5651
 Frc consts  --      1.6578                 1.6844                 1.9476
 IR Inten    --      5.5110                53.0604                15.5322

                     43                     44                     45
                      A                      A                      A
 Frequencies --   1457.3246              1502.6231              1503.4779
 Red. masses --      1.6010                 1.0790                 1.0462
 Frc consts  --      2.0033                 1.4355                 1.3933
 IR Inten    --     10.9179                 9.3340                 5.8247

                     46                     47                     48
                      A                      A                      A
 Frequencies --   1507.8395              1517.4015              1521.4515
 Red. masses --      1.0508                 1.0797                 1.0835
 Frc consts  --      1.4076                 1.4647                 1.4777
 IR Inten    --      8.2394                13.7017                 5.7591

                     49                     50                     51
                      A                      A                      A
 Frequencies --   1527.5436              1633.1566              1689.3985
 Red. masses --      1.0697                 6.8044                 7.2083
 Frc consts  --      1.4707                10.6929                12.1212
 IR Inten    --     10.8502               125.6569                 6.0440

                     52                     53                     54
                      A                      A                      A
 Frequencies --   1756.5559              3044.5634              3049.3164
 Red. masses --      9.0746                 1.0392                 1.0405
 Frc consts  --     16.4968                 5.6752                 5.7000
 IR Inten    --    236.2820                35.6016                29.4537

                     55                     56                     57
                      A                      A                      A
 Frequencies --   3064.0034              3092.7949              3098.1195
 Red. masses --      1.0367                 1.1014                 1.1009
 Frc consts  --      5.7344                 6.2073                 6.2259
 IR Inten    --     24.0193                16.8342                14.1777

                     58                     59                     60
                      A                      A                      A
 Frequencies --   3124.7290              3139.3791              3147.3303
 Red. masses --      1.1009                 1.1011                 1.0978
 Frc consts  --      6.3329                 6.3941                 6.4070
 IR Inten    --     18.3705                12.4368                12.4457

                     61                     62                     63
                      A                      A                      A
 Frequencies --   3179.8480              3534.3076              3631.6842
 Red. masses --      1.0974                 1.0772                 1.0683
 Frc consts  --      6.5375                 7.9280                 8.3015
 IR Inten    --      0.4719                16.0762                 7.1649

 - Thermochemistry -
 -------------------
 Temperature   298.150 Kelvin.  Pressure   1.00000 Atm.
 Atom     1 has atomic number  6 and mass  12.00000

 Molecular mass:   169.07389 amu.
 Principal axes and moments of inertia in atomic units:
                           1         2         3
     Eigenvalues --  1436.814832192.120613272.20405
           X            0.99924   0.03808   0.00794
           Y           -0.03824   0.99905   0.02076
           Z           -0.00714  -0.02104   0.99975
 This molecule is an asymmetric top.
 Rotational symmetry number  1.
 Warning -- assumption of classical behavior for rotation
           may cause significant error
 Rotational temperatures (Kelvin)      0.06028     0.03951     0.02647
 Rotational constants (GHZ):           1.25607     0.82329     0.55154
 Zero-point vibrational energy     485860.4 (Joules/Mol)
                                  116.12342 (Kcal/Mol)
 Warning -- explicit consideration of  19 degrees of freedom as
           vibrations may cause significant error
 Vibrational temperatures:     76.90   125.69   133.76   159.67   175.11
          (Kelvin)            223.34   237.05   287.61   295.65   383.11
                              408.98   430.11   456.71   477.19   577.59
                              654.62   822.07   847.25   882.90   917.39
                              935.61   988.09  1070.11  1126.61  1228.34
                             1377.61  1480.65  1541.86  1549.63  1556.93
                             1561.98  1563.61  1641.28  1678.56  1812.46
                             1902.14  1974.15  2037.44  2050.59  2073.39
                             2077.56  2091.00  2096.77  2161.94  2163.17
                             2169.44  2183.20  2189.03  2197.79  2349.75
                             2430.67  2527.29  4380.45  4387.29  4408.42
                             4449.84  4457.50  4495.79  4516.87  4528.31
                             4575.09  5085.08  5225.18

 Zero-point correction=                           0.185054 (Hartree/Particle)
 Thermal correction to Energy=                    0.198157
 Thermal correction to Enthalpy=                  0.199101
 Thermal correction to Gibbs Free Energy=         0.145642
 Sum of electronic and zero-point Energies=           -591.691885
 Sum of electronic and thermal Energies=              -591.678782
 Sum of electronic and thermal Enthalpies=            -591.677838
 Sum of electronic and thermal Free Energies=         -591.731297

                     E (Thermal)             CV                S
                      KCal/Mol        Cal/Mol-Kelvin    Cal/Mol-Kelvin
 Total                  124.345             46.494            112.514
 Electronic               0.000              0.000              0.000
 Translational            0.889              2.981             41.283
 Rotational               0.889              2.981             30.711
 Vibrational            122.568             40.533             40.520
 Vibration     1          0.596              1.976              4.686
 Vibration     2          0.601              1.958              3.718
 Vibration     3          0.602              1.954              3.597
 Vibration     4          0.607              1.940              3.252
 Vibration     5          0.609              1.931              3.073
 Vibration     6          0.620              1.897              2.607
 Vibration     7          0.623              1.886              2.494
 Vibration     8          0.638              1.840              2.134
 Vibration     9          0.640              1.832              2.083
 Vibration    10          0.672              1.735              1.620
 Vibration    11          0.683              1.703              1.508
 Vibration    12          0.692              1.676              1.423
 Vibration    13          0.704              1.640              1.323
 Vibration    14          0.714              1.612              1.252
 Vibration    15          0.767              1.467              0.957
 Vibration    16          0.813              1.350              0.781
 Vibration    17          0.928              1.093              0.502
 Vibration    18          0.946              1.056              0.469
 Vibration    19          0.973              1.003              0.427

                           ! Non-Optimized Parameters !
 Normal termination of Gaussian 16 at Wed Dec  9 18:12:44 2020.

 ----------------------------------------------------------------------
 # B3LYP/6-311++G(d,p) empiricaldispersion=gd3bj scf=xqc pop=npa geom=c
 heck
 ----------------------------------------------------------------------

 --------------------------------------
 CID_60678041_JID_2587_Energie_neutraal
 --------------------------------------
 Structure from the checkpoint file:  "JID_2587.chk"
 Charge =  0 Multiplicity = 1

 SCF Done:  E(RB3LYP) =  -592.055931717     A.U. after   16 cycles
 Normal termination of Gaussian 16 at Wed Dec  9 18:16:12 2020.

 ----------------------------------------------------------------------
 # B3LYP/6-311++G(d,p) empiricaldispersion=gd3bj scf=xqc pop=npa geom=c
 heck
 ----------------------------------------------------------------------

 ------------------------------------
 CID_60678041_JID_2587_Energie_kation
 ------------------------------------
 Structure from the checkpoint file:  "JID_2587.chk"
 Charge =  1 Multiplicity = 2

 SCF Done:  E(UB3LYP) =  -591.761524586     A.U. after   23 cycles
 Normal termination of Gaussian 16 at Wed Dec  9 18:21:27 2020.
 Gaussian 16:  ES64L-G16RevA.03 25-Dec-2016

 ----------------------------------------------------------------------
 # B3LYP/6-311++G(d,p) empiricaldispersion=gd3bj scf=xqc pop=npa geom=c
 heck
 ----------------------------------------------------------------------

 -----------------------------------
 CID_60678041_JID_2587_Energie_anion
 -----------------------------------
 Structure from the checkpoint file:  "JID_2587.chk"
 Charge = -1 Multiplicity = 2

                         Standard orientation:
 ---------------------------------------------------------------------
 Center     Atomic      Atomic             Coordinates (Angstroms)
 Number     Number       Type             X           Y           Z
 ---------------------------------------------------------------------
      1          6           0       -0.448103   -2.258698   -0.590722
      2          6           0       -0.713125   -0.827557   -0.233965
      3          6           0       -1.928076   -0.256908   -0.002324
      4          8           0       -1.780891    1.097499    0.231707
      5          6           0       -0.463007    1.402480    0.122957
      6          6           0        0.250301    0.258899   -0.143729
      7          6           0        1.708610    0.266370   -0.353717
      8          8           0        2.328154    1.196423   -0.862467
      9          7           0        2.414825   -0.868564    0.033437
     10          8           0        1.950394   -1.658589    1.101095
     11          6           0       -0.081027    2.824056    0.322686
     12          6           0       -3.322022   -0.772102    0.032234
     13          1           0        0.252974   -2.325161   -1.429451
     14          1           0       -1.372174   -2.766969   -0.882287
     15          1           0        0.004914   -2.803817    0.241487
     16          1           0        3.419954   -0.719125    0.077133
     17          1           0        1.817156   -1.051619    1.853668
     18          1           0       -0.560743    3.461454   -0.429855
     19          1           0       -0.398219    3.184366    1.308926
     20          1           0        0.999109    2.929723    0.218234
     21          1           0       -3.774715   -0.642423    1.023304
     22          1           0       -3.959936   -0.250130   -0.691400
     23          1           0       -3.334658   -1.838272   -0.207025
 ---------------------------------------------------------------------

 SCF Done:  E(UB3LYP) =  -592.048036281     A.U. after   33 cycles
 SCF Done:  E(UB3LYP) =  -592.048036281     a.u. after    1 cycles

 The electronic state is 2-A.
 Alpha  occ. eigenvalues --  -19.06474 -19.04088 -18.96655 -14.25213 -10.14765
 Alpha  occ. eigenvalues --  -10.10925 -10.10496 -10.06908 -10.06163 -10.06095
 Alpha  occ. eigenvalues --  -10.05498 -10.05043  -0.99194  -0.96797  -0.90810
 Alpha  occ. eigenvalues --   -0.72020  -0.69907  -0.68416  -0.62455  -0.59902
 Alpha  occ. eigenvalues --   -0.54615  -0.51930  -0.46407  -0.43659  -0.40663
 Alpha  occ. eigenvalues --   -0.38521  -0.35886  -0.34475  -0.33629  -0.31421
 Alpha  occ. eigenvalues --   -0.31205  -0.30791  -0.29788  -0.28835  -0.28363
 Alpha  occ. eigenvalues --   -0.27999  -0.27677  -0.26403  -0.26033  -0.23708
 Alpha  occ. eigenvalues --   -0.20476  -0.15750  -0.14859  -0.13200  -0.10083
 Alpha  occ. eigenvalues --    0.04840
 Alpha virt. eigenvalues --    0.06964   0.08457   0.08925   0.09596   0.10300
 Alpha virt. eigenvalues --    0.10654   0.11326   0.12129   0.12933   0.13468
 Alpha virt. eigenvalues --    0.14022   0.14388   0.14771   0.16149   0.17652

  Beta  occ. eigenvalues --  -19.06432 -19.03965 -18.96497 -14.25181 -10.14635
  Beta  occ. eigenvalues --  -10.10747 -10.10519 -10.06876 -10.06145 -10.06097
  Beta  occ. eigenvalues --  -10.05536 -10.05026  -0.99099  -0.96531  -0.90515
  Beta  occ. eigenvalues --   -0.71818  -0.69873  -0.68274  -0.62394  -0.59852
  Beta  occ. eigenvalues --   -0.54521  -0.51736  -0.46273  -0.43471  -0.40579
  Beta  occ. eigenvalues --   -0.38430  -0.35666  -0.34330  -0.33403  -0.31316
  Beta  occ. eigenvalues --   -0.31105  -0.30707  -0.29711  -0.28736  -0.28302
  Beta  occ. eigenvalues --   -0.27944  -0.27567  -0.26228  -0.25679  -0.23642
  Beta  occ. eigenvalues --   -0.20313  -0.15494  -0.14692  -0.12946  -0.09730
  Beta virt. eigenvalues --    0.07269   0.08568   0.08832   0.09470   0.10071
  Beta virt. eigenvalues --    0.10685   0.11309   0.11653   0.12335   0.13160
  Beta virt. eigenvalues --    0.13414   0.14131   0.14626   0.14924   0.16110

 Mulliken charges and spin densities:
               1          2
     1  C    0.407287  -1.054672
     2  C   -0.302563   1.207745
     3  C   -1.561849   0.889490
     4  O   -0.047407   0.063419
     5  C   -0.299340  -0.266904
     6  C    0.975993   0.187892
     7  C   -1.326701   1.002247
     8  O   -0.361279   0.049048
     9  N   -0.157557  -0.127457
    10  O   -0.044452  -0.043645
    11  C    0.119134  -0.682469
    12  C    2.206124  -2.785939
    13  H    0.027775   0.136204
    14  H    0.015906   0.085643
    15  H    0.049282   0.158251
    16  H    0.136008   0.158411
    17  H   -0.382521   0.633895
    18  H    0.097990   0.040577
    19  H   -0.169634   0.325738
    20  H    0.202345  -0.006251
    21  H   -0.212625   0.372893
    22  H   -0.093461   0.240407
    23  H   -0.278452   0.415479
 Sum of Mulliken charges =  -1.00000   1.00000

 Dipole moment (field-independent basis, Debye):
    X=             -0.7816    Y=              1.3747    Z=             -2.8489  Tot=              3.2584
 Quadrupole moment (field-independent basis, Debye-Ang):
   XX=           -114.6668   YY=           -101.8266   ZZ=           -100.2940
   XY=             -2.8237   XZ=             -0.2938   YZ=              3.5378

 Summary of Natural Population Analysis:

                                       Natural Population
                Natural  -----------------------------------------------
    Atom  No    Charge         Core      Valence    Rydberg      Total
 -----------------------------------------------------------------------
      C    1   -0.29268      0.99963     2.28843    0.00462     3.29268
      C    2   -0.03874      0.99943     2.02837    0.01094     3.03874
      C    3    0.13327      0.99938     1.85243    0.01492     2.86673
      O    4   -0.24104      0.99985     3.23327    0.00792     4.24104
      C    5    0.21780      0.99945     1.76857    0.01418     2.78220
      C    6   -0.12571      0.99937     2.11425    0.01209     3.12571
      C    7    0.34165      0.99961     1.63591    0.02283     2.65835
      O    8   -0.31036      0.99988     3.30509    0.00539     4.31036
      N    9   -0.16918      0.99965     2.65412    0.01541     3.66918
      O   10   -0.27845      0.99990     3.27013    0.00842     4.27845
      C   11   -0.31199      0.99962     2.30667    0.00570     3.31199
      C   12   -0.30092      0.99963     2.29648    0.00482     3.30092
      H   13    0.10369      0.00000     0.39503    0.00128     0.39631
      H   14    0.09711      0.00000     0.40190    0.00099     0.40289
      H   15    0.11608      0.00000     0.38226    0.00166     0.38392
      H   16    0.17749      0.00000     0.31998    0.00253     0.32251
      H   17    0.23659      0.00000     0.23529    0.02812     0.26341
      H   18    0.10337      0.00000     0.39569    0.00094     0.39663
      H   19    0.10601      0.00000     0.39263    0.00136     0.39399
      H   20    0.12125      0.00000     0.37790    0.00085     0.37875
      H   21    0.10534      0.00000     0.39290    0.00177     0.39466
      H   22    0.10180      0.00000     0.39671    0.00149     0.39820
      H   23    0.10762      0.00000     0.39124    0.00114     0.39238
 =======================================================================
   * Total *   -0.00000     11.99539    32.83524    0.16937    45.00000

 Normal termination of Gaussian 16 at Wed Dec  9 18:28:45 2020.
