 Gaussian 16, Revision A.03,

 -----------------------------------------------------------
 # opt freq B3LYP/6-31G(d) empiricaldispersion=gd3bj scf=xqc
 -----------------------------------------------------------

 ------------------------------
 CID_62880704_JID_7457_neutraal
 ------------------------------
 Symbolic Z-matrix:
 Charge =  0 Multiplicity = 1

 SCF Done:  E(RB3LYP) =  -1087.96239821     A.U. after   16 cycles
 SCF Done:  E(RB3LYP) =  -1087.89558485     A.U. after   15 cycles
 SCF Done:  E(RB3LYP) =  -1087.97068318     A.U. after   13 cycles
 SCF Done:  E(RB3LYP) =  -1087.97204483     A.U. after   13 cycles
 SCF Done:  E(RB3LYP) =  -1087.97282530     A.U. after   14 cycles
 SCF Done:  E(RB3LYP) =  -1087.97268625     A.U. after   13 cycles
 SCF Done:  E(RB3LYP) =  -1087.97256795     A.U. after   13 cycles
 SCF Done:  E(RB3LYP) =  -1087.97243040     A.U. after   13 cycles
 SCF Done:  E(RB3LYP) =  -1087.97318140     A.U. after   13 cycles
 SCF Done:  E(RB3LYP) =  -1087.97324135     A.U. after   12 cycles
 SCF Done:  E(RB3LYP) =  -1087.97328131     A.U. after    9 cycles
 SCF Done:  E(RB3LYP) =  -1087.97328316     A.U. after    9 cycles
 SCF Done:  E(RB3LYP) =  -1087.97328284     A.U. after    9 cycles
 SCF Done:  E(RB3LYP) =  -1087.97328297     A.U. after    9 cycles
 SCF Done:  E(RB3LYP) =  -1087.97328341     A.U. after    8 cycles
 Optimization completed.
    -- Stationary point found.
 Normal termination of Gaussian 16 at Fri Dec 11 12:12:38 2020.

 --------------------------------------------------------------------
 #N Geom=AllCheck Guess=TCheck SCRF=Check GenChk RB3LYP/6-31G(d) Freq
 --------------------------------------------------------------------

 Structure from the checkpoint file:  "JID_7457.chk"
 ------------------------------
 CID_62880704_JID_7457_neutraal
 ------------------------------
 Charge =  0 Multiplicity = 1

 SCF Done:  E(RB3LYP) =  -1087.97328341     A.U. after    1 cycles

  Exact polarizability: 156.297  32.948 172.620 -19.623  16.752 132.820
 Approx polarizability: 244.773  81.342 293.711 -34.767  40.953 244.439

                      1                      2                      3
                      A                      A                      A
 Frequencies --     40.7664                51.2112                58.1818
 Red. masses --      5.5070                 4.8724                 7.9590
 Frc consts  --      0.0054                 0.0075                 0.0159
 IR Inten    --      1.0276                 0.7264                 3.9691

                      4                      5                      6
                      A                      A                      A
 Frequencies --     70.7163                99.7682               114.6367
 Red. masses --      5.8607                 5.3608                 5.3263
 Frc consts  --      0.0173                 0.0314                 0.0412
 IR Inten    --      0.6117                 0.6248                 2.4429

                      7                      8                      9
                      A                      A                      A
 Frequencies --    143.8677               180.3534               187.7889
 Red. masses --      3.6465                 4.9312                 2.6979
 Frc consts  --      0.0445                 0.0945                 0.0561
 IR Inten    --      1.8999                 4.4656                 1.8258

                     10                     11                     12
                      A                      A                      A
 Frequencies --    245.1822               276.4474               318.4928
 Red. masses --      3.9585                 3.9674                 2.8615
 Frc consts  --      0.1402                 0.1786                 0.1710
 IR Inten    --      0.8734                 4.7637                 1.8343

                     13                     14                     15
                      A                      A                      A
 Frequencies --    324.6387               363.5813               419.3303
 Red. masses --      2.3261                 2.3142                 3.3757
 Frc consts  --      0.1444                 0.1802                 0.3497
 IR Inten    --      0.5747                 2.0179                 2.1153

                     16                     17                     18
                      A                      A                      A
 Frequencies --    424.5794               463.8421               470.9192
 Red. masses --      3.4886                 4.1975                 3.4649
 Frc consts  --      0.3705                 0.5321                 0.4527
 IR Inten    --      6.1373                 7.6983                11.1455

                     19                     20                     21
                      A                      A                      A
 Frequencies --    476.9771               520.1923               561.7420
 Red. masses --      3.2752                 3.8189                 3.7309
 Frc consts  --      0.4390                 0.6089                 0.6937
 IR Inten    --      8.9253                 0.7225                 1.0598

                     22                     23                     24
                      A                      A                      A
 Frequencies --    577.8862               618.6379               657.0170
 Red. masses --      2.8574                 3.1732                 6.6989
 Frc consts  --      0.5622                 0.7155                 1.7038
 IR Inten    --      5.9948                 1.7133                 0.3169

                     25                     26                     27
                      A                      A                      A
 Frequencies --    663.6799               697.3581               717.6104
 Red. masses --      4.5180                 1.2263                 2.4842
 Frc consts  --      1.1725                 0.3514                 0.7537
 IR Inten    --      5.1371               103.4430                 1.0968

                     28                     29                     30
                      A                      A                      A
 Frequencies --    734.3570               747.9519               780.1811
 Red. masses --      2.4023                 6.9653                 1.9700
 Frc consts  --      0.7633                 2.2958                 0.7065
 IR Inten    --     19.4119                 1.0316                50.5078

                     31                     32                     33
                      A                      A                      A
 Frequencies --    799.1002               827.7434               836.6554
 Red. masses --      1.2877                 2.0669                 1.6657
 Frc consts  --      0.4845                 0.8344                 0.6870
 IR Inten    --      0.6095                 9.0163                 5.7194

                     34                     35                     36
                      A                      A                      A
 Frequencies --    838.0183               855.6293               862.7241
 Red. masses --      2.2624                 2.3386                 3.2262
 Frc consts  --      0.9361                 1.0087                 1.4148
 IR Inten    --      6.7864                59.7614                27.5649

                     37                     38                     39
                      A                      A                      A
 Frequencies --    897.7371               906.0729               928.1519
 Red. masses --      1.9171                 1.3640                 2.5176
 Frc consts  --      0.9103                 0.6598                 1.2779
 IR Inten    --      3.5352                 0.6826                 4.8037

                     40                     41                     42
                      A                      A                      A
 Frequencies --    951.9584               959.8355               971.7428
 Red. masses --      1.2656                 1.2438                 2.4045
 Frc consts  --      0.6758                 0.6751                 1.3378
 IR Inten    --      0.4295                 0.0368                14.4391

                     43                     44                     45
                      A                      A                      A
 Frequencies --   1026.1274              1035.5992              1058.9516
 Red. masses --      2.6807                 1.9673                 1.8209
 Frc consts  --      1.6630                 1.2431                 1.2030
 IR Inten    --      0.2616                 2.0164                 3.6389

                     46                     47                     48
                      A                      A                      A
 Frequencies --   1080.8863              1107.1512              1120.5892
 Red. masses --      1.5831                 1.8671                 1.3540
 Frc consts  --      1.0897                 1.3484                 1.0017
 IR Inten    --      1.1811                 3.8522                 1.7735

                     49                     50                     51
                      A                      A                      A
 Frequencies --   1142.8304              1173.7546              1185.1119
 Red. masses --      1.8277                 2.5557                 2.6586
 Frc consts  --      1.4064                 2.0745                 2.2000
 IR Inten    --      0.2012                 6.3847                48.9155

                     52                     53                     54
                      A                      A                      A
 Frequencies --   1220.1770              1229.1240              1234.6946
 Red. masses --      1.3852                 1.3957                 2.0324
 Frc consts  --      1.2150                 1.2423                 1.8255
 IR Inten    --     86.3906                 0.5467                23.6047

                     55                     56                     57
                      A                      A                      A
 Frequencies --   1244.4486              1262.9786              1274.3530
 Red. masses --      1.3573                 1.6621                 1.4154
 Frc consts  --      1.2384                 1.5620                 1.3543
 IR Inten    --      7.9971                 8.7891                 3.8480

                     58                     59                     60
                      A                      A                      A
 Frequencies --   1293.6208              1338.1803              1372.5880
 Red. masses --      1.3076                 1.3284                 1.3693
 Frc consts  --      1.2893                 1.4015                 1.5200
 IR Inten    --     14.3441                 4.2981                 4.8272

                     61                     62                     63
                      A                      A                      A
 Frequencies --   1382.6967              1401.0358              1406.3110
 Red. masses --      1.3609                 1.3635                 2.0645
 Frc consts  --      1.5330                 1.5769                 2.4056
 IR Inten    --     20.2602                 8.3791                 2.1928

                     64                     65                     66
                      A                      A                      A
 Frequencies --   1417.8794              1421.7940              1458.6870
 Red. masses --      1.3505                 1.3610                 1.8296
 Frc consts  --      1.5997                 1.6210                 2.2937
 IR Inten    --     12.9244                12.6612                 5.8351

                     67                     68                     69
                      A                      A                      A
 Frequencies --   1501.5232              1502.2382              1503.9826
 Red. masses --      1.2712                 1.5480                 3.1635
 Frc consts  --      1.6885                 2.0582                 4.2161
 IR Inten    --      8.4826                21.8497                 5.9734

                     70                     71                     72
                      A                      A                      A
 Frequencies --   1509.9351              1527.2728              1541.4760
 Red. masses --      1.8217                 1.2419                 1.1404
 Frc consts  --      2.4471                 1.7067                 1.5965
 IR Inten    --     21.2947                21.7980                 3.5739

                     73                     74                     75
                      A                      A                      A
 Frequencies --   1552.3140              1603.6873              1606.0304
 Red. masses --      1.1605                 5.3426                 5.6336
 Frc consts  --      1.6476                 8.0955                 8.5613
 IR Inten    --     39.9570                 1.5504                 2.1058

                     76                     77                     78
                      A                      A                      A
 Frequencies --   1687.3277              1735.4294              2952.8944
 Red. masses --      5.9362                 7.9468                 1.0712
 Frc consts  --      9.9577                14.1013                 5.5034
 IR Inten    --      0.1183               465.5920                53.0660

                     79                     80                     81
                      A                      A                      A
 Frequencies --   3045.9248              3048.8913              3062.7679
 Red. masses --      1.0627                 1.0783                 1.0674
 Frc consts  --      5.8090                 5.9060                 5.8992
 IR Inten    --     18.9555                34.3425                65.1100

                     82                     83                     84
                      A                      A                      A
 Frequencies --   3065.1787              3087.1332              3103.3103
 Red. masses --      1.0663                 1.1056                 1.1046
 Frc consts  --      5.9024                 6.2083                 6.2675
 IR Inten    --     63.3965                27.1695                13.3319

                     85                     86                     87
                      A                      A                      A
 Frequencies --   3135.6598              3204.2190              3208.1463
 Red. masses --      1.0992                 1.0900                 1.0885
 Frc consts  --      6.3675                 6.5939                 6.6009
 IR Inten    --     17.6817                 8.6551                 5.7587

                     88                     89                     90
                      A                      A                      A
 Frequencies --   3220.7336              3225.6113              3232.3826
 Red. masses --      1.0899                 1.0944                 1.0958
 Frc consts  --      6.6611                 6.7090                 6.7456
 IR Inten    --      6.9455                 8.2674                 5.1362

                     91                     92                     93
                      A                      A                      A
 Frequencies --   3254.7867              3286.3918              3499.1703
 Red. masses --      1.0943                 1.0967                 1.0732
 Frc consts  --      6.8299                 6.9789                 7.7420
 IR Inten    --      2.6465                 3.6891                15.9619

 - Thermochemistry -
 -------------------
 Temperature   298.150 Kelvin.  Pressure   1.00000 Atm.
 Atom     1 has atomic number  6 and mass  12.00000

 Molecular mass:   248.09834 amu.
 Principal axes and moments of inertia in atomic units:
                           1         2         3
     Eigenvalues --  3527.366993721.280895986.48137
           X            0.97678   0.21358  -0.01712
           Y           -0.21343   0.97690   0.01031
           Z            0.01893  -0.00642   0.99980
 This molecule is an asymmetric top.
 Rotational symmetry number  1.
 Warning -- assumption of classical behavior for rotation
           may cause significant error
 Rotational temperatures (Kelvin)      0.02455     0.02328     0.01447
 Rotational constants (GHZ):           0.51164     0.48498     0.30147
 Zero-point vibrational energy     720374.8 (Joules/Mol)
                                  172.17370 (Kcal/Mol)
 Warning -- explicit consideration of  23 degrees of freedom as
           vibrations may cause significant error
 Vibrational temperatures:     58.65    73.68    83.71   101.74   143.54
          (Kelvin)            164.94   206.99   259.49   270.19   352.76
                              397.75   458.24   467.08   523.11   603.32
                              610.88   667.37   677.55   686.26   748.44
                              808.22   831.45   890.08   945.30   954.89
                             1003.34  1032.48  1056.58  1076.14  1122.51
                             1149.73  1190.94  1203.76  1205.72  1231.06
                             1241.27  1291.64  1303.64  1335.40  1369.66
                             1380.99  1398.12  1476.37  1490.00  1523.60
                             1555.15  1592.94  1612.28  1644.28  1688.77
                             1705.11  1755.56  1768.44  1776.45  1790.48
                             1817.14  1833.51  1861.23  1925.34  1974.85
                             1989.39  2015.78  2023.37  2040.01  2045.64
                             2098.73  2160.36  2161.39  2163.90  2172.46
                             2197.40  2217.84  2233.43  2307.35  2310.72
                             2427.69  2496.90  4248.56  4382.41  4386.67
                             4406.64  4410.11  4441.70  4464.97  4511.52
                             4610.16  4615.81  4633.92  4640.94  4650.68
                             4682.91  4728.38  5034.53

 Zero-point correction=                           0.274376 (Hartree/Particle)
 Thermal correction to Energy=                    0.289762
 Thermal correction to Enthalpy=                  0.290706
 Thermal correction to Gibbs Free Energy=         0.230966
 Sum of electronic and zero-point Energies=          -1087.698907
 Sum of electronic and thermal Energies=             -1087.683521
 Sum of electronic and thermal Enthalpies=           -1087.682577
 Sum of electronic and thermal Free Energies=        -1087.742318

                     E (Thermal)             CV                S
                      KCal/Mol        Cal/Mol-Kelvin    Cal/Mol-Kelvin
 Total                  181.828             60.035            125.734
 Electronic               0.000              0.000              0.000
 Translational            0.889              2.981             42.427
 Rotational               0.889              2.981             32.730
 Vibrational            180.051             54.073             50.578
 Vibration     1          0.594              1.981              5.221
 Vibration     2          0.595              1.977              4.770
 Vibration     3          0.596              1.974              4.518
 Vibration     4          0.598              1.968              4.133
 Vibration     5          0.604              1.949              3.459
 Vibration     6          0.608              1.937              3.189
 Vibration     7          0.616              1.909              2.752
 Vibration     8          0.629              1.866              2.325
 Vibration     9          0.632              1.857              2.250
 Vibration    10          0.660              1.771              1.765
 Vibration    11          0.678              1.717              1.556
 Vibration    12          0.705              1.638              1.318
 Vibration    13          0.709              1.626              1.287
 Vibration    14          0.737              1.547              1.107
 Vibration    15          0.782              1.428              0.894
 Vibration    16          0.787              1.417              0.877
 Vibration    17          0.821              1.330              0.755
 Vibration    18          0.828              1.315              0.735
 Vibration    19          0.834              1.301              0.718
 Vibration    20          0.875              1.205              0.610
 Vibration    21          0.917              1.114              0.520
 Vibration    22          0.934              1.079              0.489
 Vibration    23          0.979              0.993              0.419

                           ! Non-Optimized Parameters !
 Normal termination of Gaussian 16 at Fri Dec 11 12:26:01 2020.

 ----------------------------------------------------------------------
 # B3LYP/6-311++G(d,p) empiricaldispersion=gd3bj scf=xqc pop=npa geom=c
 heck
 ----------------------------------------------------------------------

 --------------------------------------
 CID_62880704_JID_7457_Energie_neutraal
 --------------------------------------
 Structure from the checkpoint file:  "JID_7457.chk"
 Charge =  0 Multiplicity = 1

 SCF Done:  E(RB3LYP) =  -1088.19234210     A.U. after   18 cycles
 Normal termination of Gaussian 16 at Fri Dec 11 12:32:37 2020.

 ----------------------------------------------------------------------
 # B3LYP/6-311++G(d,p) empiricaldispersion=gd3bj scf=xqc pop=npa geom=c
 heck
 ----------------------------------------------------------------------

 ------------------------------------
 CID_62880704_JID_7457_Energie_kation
 ------------------------------------
 Structure from the checkpoint file:  "JID_7457.chk"
 Charge =  1 Multiplicity = 2

 SCF Done:  E(UB3LYP) =  -1087.91013371     A.U. after   31 cycles
 Normal termination of Gaussian 16 at Fri Dec 11 12:51:49 2020.
 Gaussian 16:  ES64L-G16RevA.03 25-Dec-2016

 ----------------------------------------------------------------------
 # B3LYP/6-311++G(d,p) empiricaldispersion=gd3bj scf=xqc pop=npa geom=c
 heck
 ----------------------------------------------------------------------

 -----------------------------------
 CID_62880704_JID_7457_Energie_anion
 -----------------------------------
 Structure from the checkpoint file:  "JID_7457.chk"
 Charge = -1 Multiplicity = 2

                         Standard orientation:
 ---------------------------------------------------------------------
 Center     Atomic      Atomic             Coordinates (Angstroms)
 Number     Number       Type             X           Y           Z
 ---------------------------------------------------------------------
      1          6           0       -2.963885   -0.445196    0.863354
      2          6           0       -2.599490   -0.951157   -0.352182
      3         16           0       -1.706066    0.214725   -1.274683
      4          6           0       -1.803097    1.403512    0.008381
      5          6           0       -2.509251    0.894374    1.067239
      6          6           0       -1.126580    2.742144   -0.089368
      7          6           0        0.371388    2.699741    0.264278
      8          7           0        1.124005    1.998636   -0.768155
      9          6           0        2.532077    1.784612   -0.495641
     10          6           0        2.853726    0.811871    0.664709
     11          7           0        2.095609   -0.435890    0.546544
     12          6           0        2.322258   -1.280058   -0.516050
     13          6           0        1.513142   -2.334914   -0.789217
     14          6           0        0.328179   -2.627746    0.018502
     15          8           0       -0.475131   -3.528933   -0.253144
     16          6           0        0.186715   -1.739259    1.169764
     17          6           0        1.023631   -0.691666    1.370710
     18          1           0       -3.527543   -1.011581    1.596550
     19          1           0       -2.741212   -1.950626   -0.738113
     20          1           0       -2.699157    1.466250    1.970316
     21          1           0       -1.230303    3.163177   -1.095951
     22          1           0       -1.627133    3.427844    0.603757
     23          1           0        0.755986    3.726620    0.323404
     24          1           0        0.470742    2.259931    1.273563
     25          1           0        0.684101    1.101330   -0.963740
     26          1           0        2.994398    1.399418   -1.412629
     27          1           0        3.011691    2.748328   -0.281891
     28          1           0        3.926573    0.585870    0.679706
     29          1           0        2.598743    1.253253    1.630581
     30          1           0        3.192247   -1.038713   -1.118221
     31          1           0        1.726388   -2.976883   -1.636630
     32          1           0       -0.644940   -1.901014    1.842894
     33          1           0        0.897351    0.005876    2.190896
 ---------------------------------------------------------------------

 SCF Done:  E(UB3LYP) =  -1088.18828793     A.U. after   33 cycles
 SCF Done:  E(UB3LYP) =  -1088.18828793     a.u. after    1 cycles

 The electronic state is 2-A.
 Alpha  occ. eigenvalues --  -88.78273 -18.96444 -14.28027 -14.20583 -10.13009
 Alpha  occ. eigenvalues --  -10.12496 -10.12371 -10.11711 -10.11369 -10.10532
 Alpha  occ. eigenvalues --  -10.10297 -10.10287 -10.09314 -10.08593 -10.08358
 Alpha  occ. eigenvalues --  -10.07323 -10.06897  -7.86906  -5.83184  -5.82819
 Alpha  occ. eigenvalues --   -5.82520  -0.90343  -0.89290  -0.82019  -0.78960
 Alpha  occ. eigenvalues --   -0.71034  -0.68864  -0.68321  -0.64385  -0.63709
 Alpha  occ. eigenvalues --   -0.60849  -0.55632  -0.54480  -0.52298  -0.50640
 Alpha  occ. eigenvalues --   -0.47039  -0.44644  -0.42941  -0.41424  -0.41213
 Alpha  occ. eigenvalues --   -0.40334  -0.38238  -0.37591  -0.36589  -0.35229
 Alpha  occ. eigenvalues --   -0.34688  -0.33021  -0.32036  -0.31409  -0.30990
 Alpha  occ. eigenvalues --   -0.30275  -0.29053  -0.28507  -0.28129  -0.27670
 Alpha  occ. eigenvalues --   -0.26922  -0.26251  -0.25555  -0.25157  -0.24957
 Alpha  occ. eigenvalues --   -0.18266  -0.16562  -0.14379  -0.13890  -0.12974
 Alpha  occ. eigenvalues --   -0.12115   0.03780
 Alpha virt. eigenvalues --    0.05850   0.06606   0.07222   0.07345   0.07715
 Alpha virt. eigenvalues --    0.08249   0.08738   0.09297   0.09477   0.09581
 Alpha virt. eigenvalues --    0.10337   0.11137   0.11303   0.12157   0.12337

  Beta  occ. eigenvalues --  -88.78270 -18.96367 -14.27997 -14.20585 -10.12962
  Beta  occ. eigenvalues --  -10.12431 -10.12324 -10.11664 -10.11354 -10.10510
  Beta  occ. eigenvalues --  -10.10279 -10.10255 -10.09304 -10.08594 -10.08346
  Beta  occ. eigenvalues --  -10.07334 -10.06915  -7.86904  -5.83183  -5.82818
  Beta  occ. eigenvalues --   -5.82511  -0.90240  -0.89177  -0.82006  -0.78938
  Beta  occ. eigenvalues --   -0.70971  -0.68823  -0.68243  -0.64363  -0.63650
  Beta  occ. eigenvalues --   -0.60800  -0.55582  -0.54436  -0.52214  -0.50532
  Beta  occ. eigenvalues --   -0.47016  -0.44608  -0.42846  -0.41384  -0.41180
  Beta  occ. eigenvalues --   -0.40292  -0.38170  -0.37526  -0.36487  -0.35180
  Beta  occ. eigenvalues --   -0.34648  -0.32971  -0.32000  -0.31356  -0.30948
  Beta  occ. eigenvalues --   -0.30158  -0.28974  -0.28447  -0.28074  -0.27633
  Beta  occ. eigenvalues --   -0.26873  -0.26202  -0.25519  -0.25006  -0.24821
  Beta  occ. eigenvalues --   -0.18105  -0.16518  -0.14310  -0.13829  -0.12906
  Beta  occ. eigenvalues --   -0.11908
  Beta virt. eigenvalues --    0.06186   0.06641   0.07079   0.07710   0.07865
  Beta virt. eigenvalues --    0.08100   0.08710   0.09113   0.09588   0.09693
  Beta virt. eigenvalues --    0.10126   0.10564   0.11437   0.11649   0.12334

 Mulliken charges and spin densities:
               1          2
     1  C   -0.280805  -0.133373
     2  C   -0.155632  -0.082016
     3  S    0.073814   0.198394
     4  C    0.045923   0.529965
     5  C   -0.032408  -0.503843
     6  C    0.070943  -0.864271
     7  C    0.389401  -0.578501
     8  N   -0.068690   0.091329
     9  C    0.148629  -0.554323
    10  C    0.462420  -0.637150
    11  N    0.105357   0.129074
    12  C   -0.162732  -0.084600
    13  C    0.601187  -0.393552
    14  C   -0.794398  -0.016905
    15  O   -0.358634   0.025035
    16  C    1.204738  -0.280819
    17  C   -0.465680  -0.414156
    18  H    0.130393   0.017955
    19  H    0.298401  -0.007434
    20  H   -0.201629   0.357964
    21  H    0.152270   0.020692
    22  H   -0.157526   0.342171
    23  H   -0.378666   0.561583
    24  H    0.066850   0.008833
    25  H    0.219302  -0.053548
    26  H   -0.037322   0.215178
    27  H   -0.431439   0.595424
    28  H   -0.971163   1.194568
    29  H   -0.553856   0.723328
    30  H   -0.132907   0.280320
    31  H    0.148529   0.029759
    32  H    0.198663   0.012441
    33  H   -0.133332   0.270480
 Sum of Mulliken charges =  -1.00000   1.00000

 Dipole moment (field-independent basis, Debye):
    X=             -6.1706    Y=             -1.4380    Z=             -2.2587  Tot=              6.7266
 Quadrupole moment (field-independent basis, Debye-Ang):
   XX=           -173.8580   YY=           -177.2055   ZZ=           -137.6285
   XY=            -12.9782   XZ=             -9.0678   YZ=             -7.0518

 Summary of Natural Population Analysis:

                                       Natural Population
                Natural  -----------------------------------------------
    Atom  No    Charge         Core      Valence    Rydberg      Total
 -----------------------------------------------------------------------
      C    1   -0.13123      0.99953     2.12121    0.01049     3.13123
      C    2   -0.18639      0.99954     2.17560    0.01125     3.18639
      S    3    0.20376      4.99939     2.77749    0.01936     7.79624
      C    4   -0.09584      0.99949     2.08295    0.01340     3.09584
      C    5   -0.13223      0.99945     2.12209    0.01068     3.13223
      C    6   -0.20921      0.99957     2.19834    0.01130     3.20921
      C    7   -0.08122      0.99961     2.06968    0.01193     3.08122
      N    8   -0.34695      0.99974     2.83631    0.01090     3.84695
      C    9   -0.09127      0.99962     2.07922    0.01243     3.09127
      C   10   -0.09055      0.99960     2.07840    0.01254     3.09055
      N   11   -0.21292      0.99965     2.70046    0.01281     3.71292
      C   12    0.03381      0.99954     1.95478    0.01186     2.96619
      C   13   -0.15738      0.99953     2.14709    0.01076     3.15738
      C   14    0.22130      0.99957     1.75822    0.02091     2.77870
      O   15   -0.32633      0.99989     3.32023    0.00621     4.32633
      C   16   -0.16101      0.99953     2.14977    0.01171     3.16101
      C   17    0.03608      0.99953     1.95212    0.01226     2.96392
      H   18    0.10518      0.00000     0.39392    0.00090     0.39482
      H   19    0.12027      0.00000     0.37889    0.00084     0.37973
      H   20    0.10644      0.00000     0.39253    0.00103     0.39356
      H   21    0.10656      0.00000     0.39227    0.00117     0.39344
      H   22    0.10952      0.00000     0.38941    0.00107     0.39048
      H   23    0.09592      0.00000     0.40233    0.00175     0.40408
      H   24    0.08020      0.00000     0.41726    0.00253     0.41980
      H   25    0.17674      0.00000     0.31879    0.00446     0.32326
      H   26    0.09358      0.00000     0.40510    0.00131     0.40642
      H   27    0.10194      0.00000     0.39595    0.00211     0.39806
      H   28    0.10722      0.00000     0.38690    0.00588     0.39278
      H   29    0.10431      0.00000     0.39252    0.00317     0.39569
      H   30    0.10180      0.00000     0.39696    0.00124     0.39820
      H   31    0.10604      0.00000     0.39297    0.00099     0.39396
      H   32    0.10923      0.00000     0.38939    0.00138     0.39077
      H   33    0.10262      0.00000     0.39591    0.00148     0.39738
 =======================================================================
   * Total *    0.00000     20.99278    44.76508    0.24214    66.00000

 Normal termination of Gaussian 16 at Fri Dec 11 13:08:29 2020.
