 Gaussian 16, Revision A.03,

 -----------------------------------------------------------
 # opt freq B3LYP/6-31G(d) empiricaldispersion=gd3bj scf=xqc
 -----------------------------------------------------------

 -------------------------------
 CID_105907777_JID_6898_neutraal
 -------------------------------
 Symbolic Z-matrix:
 Charge =  0 Multiplicity = 1

 SCF Done:  E(RB3LYP) =  -1032.41589687     A.U. after   14 cycles
 SCF Done:  E(RB3LYP) =  -1032.42004201     A.U. after   11 cycles
 SCF Done:  E(RB3LYP) =  -1032.42072145     A.U. after   12 cycles
 SCF Done:  E(RB3LYP) =  -1032.42075047     A.U. after   11 cycles
 SCF Done:  E(RB3LYP) =  -1032.42094817     A.U. after   11 cycles
 SCF Done:  E(RB3LYP) =  -1032.42102474     A.U. after   11 cycles
 SCF Done:  E(RB3LYP) =  -1032.42138667     A.U. after   14 cycles
 SCF Done:  E(RB3LYP) =  -1032.39894956     A.U. after   13 cycles
 SCF Done:  E(RB3LYP) =  -1032.42245906     A.U. after   13 cycles
 SCF Done:  E(RB3LYP) =  -1032.42275364     A.U. after   13 cycles
 SCF Done:  E(RB3LYP) =  -1032.42344079     A.U. after    9 cycles
 SCF Done:  E(RB3LYP) =  -1032.42344207     A.U. after    8 cycles
 SCF Done:  E(RB3LYP) =  -1032.42344332     A.U. after    8 cycles
 SCF Done:  E(RB3LYP) =  -1032.42344396     A.U. after    9 cycles
 SCF Done:  E(RB3LYP) =  -1032.42344411     A.U. after    8 cycles
 Optimization completed.
    -- Stationary point found.
 Normal termination of Gaussian 16 at Fri Dec 11 01:13:07 2020.

 --------------------------------------------------------------------
 #N Geom=AllCheck Guess=TCheck SCRF=Check GenChk RB3LYP/6-31G(d) Freq
 --------------------------------------------------------------------

 Structure from the checkpoint file:  "JID_6898.chk"
 -------------------------------
 CID_105907777_JID_6898_neutraal
 -------------------------------
 Charge =  0 Multiplicity = 1

 SCF Done:  E(RB3LYP) =  -1032.42344411     A.U. after    1 cycles

  Exact polarizability: 206.562  14.810 130.998  -0.389  -0.298 145.210
 Approx polarizability: 255.057  22.845 188.315  -2.472  -1.482 260.060

                      1                      2                      3
                      A                      A                      A
 Frequencies --     20.0437                33.3743                41.3713
 Red. masses --      4.1396                 5.0803                 3.9109
 Frc consts  --      0.0010                 0.0033                 0.0039
 IR Inten    --      0.0608                 0.7219                 1.5541

                      4                      5                      6
                      A                      A                      A
 Frequencies --     76.4456               115.6154               133.8512
 Red. masses --      4.2951                 3.6064                 2.6390
 Frc consts  --      0.0148                 0.0284                 0.0279
 IR Inten    --      0.1218                 1.3415                 0.3196

                      7                      8                      9
                      A                      A                      A
 Frequencies --    135.4488               139.8750               176.6865
 Red. masses --      1.1723                 3.4787                 2.4362
 Frc consts  --      0.0127                 0.0401                 0.0448
 IR Inten    --      0.2033                 0.4860                 2.6128

                     10                     11                     12
                      A                      A                      A
 Frequencies --    231.1626               250.6491               277.0923
 Red. masses --      2.5573                 1.2139                 2.8036
 Frc consts  --      0.0805                 0.0449                 0.1268
 IR Inten    --      0.5611                 0.4651                 2.6395

                     13                     14                     15
                      A                      A                      A
 Frequencies --    287.2393               319.6537               326.0246
 Red. masses --      2.1862                 3.3087                 1.9956
 Frc consts  --      0.1063                 0.1992                 0.1250
 IR Inten    --      1.6829                 0.2028                 0.7553

                     16                     17                     18
                      A                      A                      A
 Frequencies --    352.6342               378.2581               407.3169
 Red. masses --      2.3901                 2.1870                 4.0467
 Frc consts  --      0.1751                 0.1844                 0.3956
 IR Inten    --      1.2147                 1.3198                 5.8430

                     19                     20                     21
                      A                      A                      A
 Frequencies --    425.1960               433.3500               510.2942
 Red. masses --      3.7155                 2.0217                 2.7491
 Frc consts  --      0.3958                 0.2237                 0.4218
 IR Inten    --      0.0161                 3.7392                 0.3471

                     22                     23                     24
                      A                      A                      A
 Frequencies --    512.5517               527.6012               597.1988
 Red. masses --      4.2044                 3.4002                 4.3501
 Frc consts  --      0.6508                 0.5577                 0.9141
 IR Inten    --      5.5108                 0.6762                 6.6612

                     25                     26                     27
                      A                      A                      A
 Frequencies --    622.2474               641.5873               657.9324
 Red. masses --      4.7228                 2.2178                 4.8438
 Frc consts  --      1.0774                 0.5379                 1.2354
 IR Inten    --      7.1754                 2.1295                24.2543

                     28                     29                     30
                      A                      A                      A
 Frequencies --    675.1026               758.5831               783.7705
 Red. masses --      6.1821                 1.6153                 5.9271
 Frc consts  --      1.6601                 0.5477                 2.1452
 IR Inten    --      0.0208                82.2655                 8.3724

                     31                     32                     33
                      A                      A                      A
 Frequencies --    798.3501               855.0010               862.0783
 Red. masses --      2.1357                 2.1575                 1.3465
 Frc consts  --      0.8020                 0.9293                 0.5896
 IR Inten    --      9.9479                30.7372                 9.8655

                     34                     35                     36
                      A                      A                      A
 Frequencies --    883.0055               894.4303               895.8648
 Red. masses --      2.5401                 1.6365                 1.7539
 Frc consts  --      1.1669                 0.7714                 0.8293
 IR Inten    --      0.7690                 1.3014                 5.5585

                     37                     38                     39
                      A                      A                      A
 Frequencies --    956.6006               986.1273              1009.4711
 Red. masses --      1.9727                 2.2666                 1.8814
 Frc consts  --      1.0636                 1.2987                 1.1296
 IR Inten    --      2.3491                14.2912                19.7522

                     40                     41                     42
                      A                      A                      A
 Frequencies --   1019.3078              1035.7558              1053.4399
 Red. masses --      1.5712                 2.0226                 1.9381
 Frc consts  --      0.9618                 1.2784                 1.2672
 IR Inten    --      4.9793                 8.5680                10.3044

                     43                     44                     45
                      A                      A                      A
 Frequencies --   1067.6253              1073.7813              1099.8610
 Red. masses --      1.6924                 1.4048                 1.9230
 Frc consts  --      1.1366                 0.9543                 1.3706
 IR Inten    --     16.3778                 0.9477                 1.1333

                     46                     47                     48
                      A                      A                      A
 Frequencies --   1128.3886              1141.4035              1158.3188
 Red. masses --      1.7009                 1.6981                 2.8462
 Frc consts  --      1.2760                 1.3035                 2.2499
 IR Inten    --     10.7264                15.3301                51.2935

                     49                     50                     51
                      A                      A                      A
 Frequencies --   1174.2493              1180.3248              1182.8873
 Red. masses --      2.0263                 1.5903                 2.2387
 Frc consts  --      1.6462                 1.3054                 1.8456
 IR Inten    --     29.0091                12.2727                20.4235

                     52                     53                     54
                      A                      A                      A
 Frequencies --   1194.1652              1198.3927              1224.4353
 Red. masses --      2.2794                 3.2096                 2.2299
 Frc consts  --      1.9151                 2.7158                 1.9697
 IR Inten    --     14.1753                 8.9322                 8.5856

                     55                     56                     57
                      A                      A                      A
 Frequencies --   1229.7871              1236.8867              1300.6235
 Red. masses --      1.4818                 1.4409                 1.2357
 Frc consts  --      1.3204                 1.2988                 1.2316
 IR Inten    --      7.5058                 3.5072                30.0256

                     58                     59                     60
                      A                      A                      A
 Frequencies --   1310.5861              1324.9990              1330.6687
 Red. masses --      2.0809                 1.3821                 1.7682
 Frc consts  --      2.1059                 1.4296                 1.8447
 IR Inten    --     18.1098                 2.8059                 6.3560

                     61                     62                     63
                      A                      A                      A
 Frequencies --   1341.9989              1349.0177              1376.2940
 Red. masses --      1.3512                 1.3738                 1.3620
 Frc consts  --      1.4338                 1.4730                 1.5201
 IR Inten    --     10.3705                 1.5986                 5.5944

                     64                     65                     66
                      A                      A                      A
 Frequencies --   1385.5505              1401.1168              1407.2124
 Red. masses --      1.4610                 1.3937                 1.3986
 Frc consts  --      1.6525                 1.6121                 1.6317
 IR Inten    --     41.8199                 1.2017                 2.7512

                     67                     68                     69
                      A                      A                      A
 Frequencies --   1414.5924              1427.9687              1436.9257
 Red. masses --      1.4651                 1.3601                 1.4382
 Frc consts  --      1.7273                 1.6341                 1.7497
 IR Inten    --      3.3558                 0.5820                20.4691

                     70                     71                     72
                      A                      A                      A
 Frequencies --   1445.6976              1485.3354              1505.1538
 Red. masses --      1.2446                 1.1923                 1.0935
 Frc consts  --      1.5326                 1.5498                 1.4596
 IR Inten    --      0.6110                 0.5856                 9.9316

                     73                     74                     75
                      A                      A                      A
 Frequencies --   1508.2672              1510.0039              1515.5675
 Red. masses --      1.0427                 1.1878                 1.0866
 Frc consts  --      1.3976                 1.5957                 1.4705
 IR Inten    --      7.5897                17.0571                22.5405

                     76                     77                     78
                      A                      A                      A
 Frequencies --   1516.9990              1518.8495              1520.7753
 Red. masses --      1.1399                 1.1481                 1.0858
 Frc consts  --      1.5456                 1.5605                 1.4796
 IR Inten    --      6.0278                 9.3034                 4.0081

                     79                     80                     81
                      A                      A                      A
 Frequencies --   1525.7851              1528.2731              1537.5118
 Red. masses --      1.0998                 1.0926                 1.0534
 Frc consts  --      1.5086                 1.5035                 1.4671
 IR Inten    --      4.7238                 9.4135                 3.2193

                     82                     83                     84
                      A                      A                      A
 Frequencies --   1543.1888              1557.8263              1606.3588
 Red. masses --      1.1061                 4.3127                 5.8892
 Frc consts  --      1.5519                 6.1665                 8.9534
 IR Inten    --      9.7695                11.0651                19.4459

                     85                     86                     87
                      A                      A                      A
 Frequencies --   2895.2058              2907.6828              2939.4852
 Red. masses --      1.0739                 1.0729                 1.0620
 Frc consts  --      5.3035                 5.3446                 5.4067
 IR Inten    --     40.5049                75.3997               134.2679

                     88                     89                     90
                      A                      A                      A
 Frequencies --   2989.3469              3027.8984              3036.5262
 Red. masses --      1.0664                 1.0687                 1.0739
 Frc consts  --      5.6148                 5.7727                 5.8342
 IR Inten    --     35.6920                18.6042                25.8906

                     91                     92                     93
                      A                      A                      A
 Frequencies --   3039.0911              3044.9045              3045.5455
 Red. masses --      1.0923                 1.0732                 1.0363
 Frc consts  --      5.9439                 5.8626                 5.6632
 IR Inten    --     23.2013                60.8720                35.4548

                     94                     95                     96
                      A                      A                      A
 Frequencies --   3054.4022              3069.8712              3070.9538
 Red. masses --      1.0666                 1.0848                 1.0976
 Frc consts  --      5.8627                 6.0233                 6.0986
 IR Inten    --     14.8648                50.6562                44.8549

                     97                     98                     99
                      A                      A                      A
 Frequencies --   3074.1421              3078.4134              3096.4145
 Red. masses --      1.0786                 1.0780                 1.1040
 Frc consts  --      6.0058                 6.0188                 6.2366
 IR Inten    --     44.7848                42.4987                56.7392

                    100                    101                    102
                      A                      A                      A
 Frequencies --   3098.3311              3119.8766              3125.8795
 Red. masses --      1.1018                 1.1040                 1.1013
 Frc consts  --      6.2318                 6.3315                 6.3400
 IR Inten    --     16.7530                36.3602                13.4061

                    103                    104                    105
                      A                      A                      A
 Frequencies --   3126.4322              3217.3075              3511.0553
 Red. masses --      1.0942                 1.0933                 1.0741
 Frc consts  --      6.3012                 6.6678                 7.8010
 IR Inten    --     29.5321                20.6532                 0.2885

 - Thermochemistry -
 -------------------
 Temperature   298.150 Kelvin.  Pressure   1.00000 Atm.
 Atom     1 has atomic number  6 and mass  12.00000

 Molecular mass:   239.14562 amu.
 Principal axes and moments of inertia in atomic units:
                           1         2         3
     Eigenvalues --  1539.43286********************
           X            1.00000   0.00210  -0.00227
           Y           -0.00210   1.00000   0.00141
           Z            0.00227  -0.00140   1.00000
 This molecule is an asymmetric top.
 Rotational symmetry number  1.
 Warning -- assumption of classical behavior for rotation
           may cause significant error
 Rotational temperatures (Kelvin)      0.05626     0.00856     0.00829
 Rotational constants (GHZ):           1.17234     0.17846     0.17267
 Zero-point vibrational energy     858859.0 (Joules/Mol)
                                  205.27223 (Kcal/Mol)
 Warning -- explicit consideration of  24 degrees of freedom as
           vibrations may cause significant error
 Vibrational temperatures:     28.84    48.02    59.52   109.99   166.34
          (Kelvin)            192.58   194.88   201.25   254.21   332.59
                              360.63   398.67   413.27   459.91   469.08
                              507.36   544.23   586.04   611.76   623.49
                              734.20   737.45   759.10   859.24   895.28
                              923.10   946.62   971.32  1091.43  1127.67
                             1148.65  1230.16  1240.34  1270.45  1286.89
                             1288.95  1376.33  1418.82  1452.40  1466.56
                             1490.22  1515.67  1536.07  1544.93  1582.45
                             1623.50  1642.23  1666.56  1689.48  1698.22
                             1701.91  1718.14  1724.22  1761.69  1769.39
                             1779.60  1871.31  1885.64  1906.38  1914.54
                             1930.84  1940.94  1980.18  1993.50  2015.89
                             2024.66  2035.28  2054.53  2067.42  2080.04
                             2137.07  2165.58  2170.06  2172.56  2180.56
                             2182.62  2185.29  2188.06  2195.26  2198.84
                             2212.14  2220.30  2241.36  2311.19  4165.56
                             4183.51  4229.26  4301.00  4356.47  4368.88
                             4372.57  4380.94  4381.86  4394.60  4416.86
                             4418.42  4423.00  4429.15  4455.05  4457.81
                             4488.81  4497.44  4498.24  4628.99  5051.63

 Zero-point correction=                           0.327122 (Hartree/Particle)
 Thermal correction to Energy=                    0.343444
 Thermal correction to Enthalpy=                  0.344389
 Thermal correction to Gibbs Free Energy=         0.281539
 Sum of electronic and zero-point Energies=          -1032.096322
 Sum of electronic and thermal Energies=             -1032.080000
 Sum of electronic and thermal Enthalpies=           -1032.079055
 Sum of electronic and thermal Free Energies=        -1032.141905

                     E (Thermal)             CV                S
                      KCal/Mol        Cal/Mol-Kelvin    Cal/Mol-Kelvin
 Total                  215.515             62.173            132.279
 Electronic               0.000              0.000              0.000
 Translational            0.889              2.981             42.317
 Rotational               0.889              2.981             33.453
 Vibrational            213.737             56.212             56.509
 Vibration     1          0.593              1.986              6.630
 Vibration     2          0.594              1.983              5.618
 Vibration     3          0.594              1.981              5.192
 Vibration     4          0.599              1.965              3.980
 Vibration     5          0.608              1.936              3.172
 Vibration     6          0.613              1.920              2.890
 Vibration     7          0.613              1.918              2.867
 Vibration     8          0.615              1.913              2.806
 Vibration     9          0.628              1.871              2.363
 Vibration    10          0.653              1.793              1.870
 Vibration    11          0.663              1.762              1.726
 Vibration    12          0.678              1.716              1.552
 Vibration    13          0.684              1.697              1.490
 Vibration    14          0.706              1.636              1.312
 Vibration    15          0.710              1.623              1.280
 Vibration    16          0.729              1.570              1.154
 Vibration    17          0.749              1.516              1.046
 Vibration    18          0.772              1.454              0.936
 Vibration    19          0.787              1.415              0.874
 Vibration    20          0.794              1.398              0.848
 Vibration    21          0.865              1.227              0.633
 Vibration    22          0.868              1.222              0.627
 Vibration    23          0.883              1.189              0.593
 Vibration    24          0.955              1.038              0.454

                           ! Non-Optimized Parameters !
 Normal termination of Gaussian 16 at Fri Dec 11 01:25:45 2020.

 ----------------------------------------------------------------------
 # B3LYP/6-311++G(d,p) empiricaldispersion=gd3bj scf=xqc pop=npa geom=c
 heck
 ----------------------------------------------------------------------

 ---------------------------------------
 CID_105907777_JID_6898_Energie_neutraal
 ---------------------------------------
 Structure from the checkpoint file:  "JID_6898.chk"
 Charge =  0 Multiplicity = 1

 SCF Done:  E(RB3LYP) =  -1032.62297397     A.U. after   14 cycles
 Normal termination of Gaussian 16 at Fri Dec 11 01:32:27 2020.

 ----------------------------------------------------------------------
 # B3LYP/6-311++G(d,p) empiricaldispersion=gd3bj scf=xqc pop=npa geom=c
 heck
 ----------------------------------------------------------------------

 -------------------------------------
 CID_105907777_JID_6898_Energie_kation
 -------------------------------------
 Structure from the checkpoint file:  "JID_6898.chk"
 Charge =  1 Multiplicity = 2

 SCF Done:  E(UB3LYP) =  -1032.34265251     A.U. after   25 cycles
 Normal termination of Gaussian 16 at Fri Dec 11 01:49:20 2020.
 Gaussian 16:  ES64L-G16RevA.03 25-Dec-2016

 ----------------------------------------------------------------------
 # B3LYP/6-311++G(d,p) empiricaldispersion=gd3bj scf=xqc pop=npa geom=c
 heck
 ----------------------------------------------------------------------

 ------------------------------------
 CID_105907777_JID_6898_Energie_anion
 ------------------------------------
 Structure from the checkpoint file:  "JID_6898.chk"
 Charge = -1 Multiplicity = 2

                         Standard orientation:
 ---------------------------------------------------------------------
 Center     Atomic      Atomic             Coordinates (Angstroms)
 Number     Number       Type             X           Y           Z
 ---------------------------------------------------------------------
      1          6           0        5.680351    0.710371   -0.916547
      2          6           0        4.445145    0.311158   -0.171738
      3          6           0        4.245727    0.270417    1.179410
      4          7           0        2.994775   -0.117789    1.611117
      5          6           0        2.220781   -0.388525    0.602930
      6         16           0        2.968427   -0.168418   -0.978382
      7          6           0        0.809145   -0.886267    0.705239
      8          7           0        0.047567   -0.499671   -0.473642
      9          6           0       -1.254358   -1.143118   -0.621319
     10          6           0       -2.250186   -0.977377    0.548491
     11          6           0       -3.608314   -1.623113    0.219548
     12          6           0       -4.386134   -0.801539   -0.818250
     13          6           0       -4.462066    0.670795   -0.409971
     14          7           0       -3.129439    1.220284   -0.160676
     15          6           0       -2.467262    0.494255    0.920449
     16          6           0       -3.189149    2.646221    0.114756
     17          1           0        6.056464   -0.102100   -1.549560
     18          1           0        5.504073    1.576994   -1.564960
     19          1           0        6.469882    0.976546   -0.206592
     20          1           0        4.999146    0.530691    1.915653
     21          1           0        0.813741   -1.985092    0.744864
     22          1           0        0.405526   -0.540429    1.671046
     23          1           0       -0.056550    0.511816   -0.509530
     24          1           0       -1.695220   -0.744676   -1.538238
     25          1           0       -1.081485   -2.216009   -0.783195
     26          1           0       -1.831994   -1.481114    1.430496
     27          1           0       -4.201974   -1.685316    1.141925
     28          1           0       -3.467301   -2.652559   -0.133997
     29          1           0       -5.401337   -1.200007   -0.932697
     30          1           0       -3.904274   -0.872251   -1.799969
     31          1           0       -5.103454    0.771401    0.491723
     32          1           0       -4.934211    1.259609   -1.204995
     33          1           0       -1.506349    0.981562    1.123094
     34          1           0       -3.053743    0.550714    1.861323
     35          1           0       -3.778507    2.888683    1.021159
     36          1           0       -2.176205    3.038834    0.255413
     37          1           0       -3.643464    3.167940   -0.734430
 ---------------------------------------------------------------------

 SCF Done:  E(UB3LYP) =  -1032.61071721     A.U. after   33 cycles
 SCF Done:  E(UB3LYP) =  -1032.61071721     a.u. after    1 cycles

 The electronic state is 2-A.
 Alpha  occ. eigenvalues --  -88.77501 -14.21690 -14.21115 -14.21092 -10.13175
 Alpha  occ. eigenvalues --  -10.11328 -10.10700 -10.10105 -10.10033 -10.09927
 Alpha  occ. eigenvalues --  -10.09856 -10.09729 -10.08925 -10.08059 -10.07613
 Alpha  occ. eigenvalues --  -10.07529  -7.86117  -5.82379  -5.82036  -5.81737
 Alpha  occ. eigenvalues --   -0.86418  -0.84346  -0.81890  -0.71587  -0.71275
 Alpha  occ. eigenvalues --   -0.67673  -0.66026  -0.62649  -0.60685  -0.58759
 Alpha  occ. eigenvalues --   -0.55792  -0.52733  -0.51534  -0.46916  -0.45484
 Alpha  occ. eigenvalues --   -0.44811  -0.41056  -0.40523  -0.37820  -0.37542
 Alpha  occ. eigenvalues --   -0.37247  -0.36466  -0.34943  -0.34489  -0.33828
 Alpha  occ. eigenvalues --   -0.33382  -0.32435  -0.31621  -0.30758  -0.30530
 Alpha  occ. eigenvalues --   -0.29487  -0.28352  -0.28116  -0.27746  -0.26415
 Alpha  occ. eigenvalues --   -0.26046  -0.25434  -0.24285  -0.22572  -0.22226
 Alpha  occ. eigenvalues --   -0.18027  -0.17757  -0.14588  -0.13646  -0.13266
 Alpha  occ. eigenvalues --    0.03999
 Alpha virt. eigenvalues --    0.05228   0.06009   0.06536   0.07050   0.07695
 Alpha virt. eigenvalues --    0.08059   0.08849   0.09099   0.09600   0.09777
 Alpha virt. eigenvalues --    0.09879   0.10172   0.10665   0.11432   0.12082

  Beta  occ. eigenvalues --  -88.77489 -14.21678 -14.21097 -14.21084 -10.13090
  Beta  occ. eigenvalues --  -10.11323 -10.10640 -10.10092 -10.10012 -10.09905
  Beta  occ. eigenvalues --  -10.09856 -10.09718 -10.08895 -10.08054 -10.07598
  Beta  occ. eigenvalues --  -10.07514  -7.86105  -5.82372  -5.82030  -5.81707
  Beta  occ. eigenvalues --   -0.86342  -0.84325  -0.81870  -0.71552  -0.71188
  Beta  occ. eigenvalues --   -0.67619  -0.65962  -0.62590  -0.60643  -0.58718
  Beta  occ. eigenvalues --   -0.55752  -0.52686  -0.51486  -0.46821  -0.45408
  Beta  occ. eigenvalues --   -0.44759  -0.41011  -0.40475  -0.37780  -0.37507
  Beta  occ. eigenvalues --   -0.37206  -0.36428  -0.34883  -0.34385  -0.33800
  Beta  occ. eigenvalues --   -0.33307  -0.32380  -0.31571  -0.30702  -0.30472
  Beta  occ. eigenvalues --   -0.29434  -0.28306  -0.28029  -0.27705  -0.26388
  Beta  occ. eigenvalues --   -0.26015  -0.25377  -0.24257  -0.22541  -0.22195
  Beta  occ. eigenvalues --   -0.17857  -0.17713  -0.14445  -0.13500  -0.13171
  Beta virt. eigenvalues --    0.05887   0.06161   0.06600   0.07061   0.07461
  Beta virt. eigenvalues --    0.08045   0.08290   0.09234   0.09406   0.09821
  Beta virt. eigenvalues --    0.09957   0.10132   0.10400   0.10862   0.11708

 Mulliken charges and spin densities:
               1          2
     1  C    1.806965  -2.322509
     2  C   -0.878157   1.134131
     3  C   -0.423580   0.132966
     4  N    0.026832   0.044463
     5  C   -0.430904   0.070197
     6  S   -0.069827  -0.020031
     7  C    0.297687  -0.473554
     8  N   -0.049532   0.029033
     9  C   -0.534902  -0.258455
    10  C    0.106859   0.631187
    11  C    0.050346  -0.650266
    12  C   -0.340455  -0.011448
    13  C    0.583389  -0.913814
    14  N    0.001851   0.154722
    15  C   -0.266104  -0.477443
    16  C    0.260935  -0.529623
    17  H   -0.289622   0.452742
    18  H    0.018069   0.126411
    19  H   -0.243925   0.400328
    20  H   -0.075252   0.228356
    21  H   -0.126474   0.328810
    22  H    0.095999   0.044256
    23  H    0.260493  -0.040517
    24  H    0.090738   0.093083
    25  H    0.036209   0.146092
    26  H    0.134488   0.089065
    27  H   -0.126598   0.274538
    28  H   -0.207911   0.347108
    29  H   -0.524303   0.705564
    30  H    0.237270  -0.110791
    31  H    0.071730   0.048283
    32  H   -0.313231   0.476076
    33  H    0.218401  -0.024850
    34  H   -0.152064   0.261782
    35  H   -0.086622   0.201596
    36  H   -0.096710   0.217335
    37  H   -0.062088   0.195178
 Sum of Mulliken charges =  -1.00000   1.00000

 Dipole moment (field-independent basis, Debye):
    X=              0.4750    Y=              0.9099    Z=              0.0514  Tot=              1.0277
 Quadrupole moment (field-independent basis, Debye-Ang):
   XX=           -238.8566   YY=           -143.8892   ZZ=           -140.4517
   XY=              1.1455   XZ=              1.5150   YZ=              0.0110

 Summary of Natural Population Analysis:

                                       Natural Population
                Natural  -----------------------------------------------
    Atom  No    Charge         Core      Valence    Rydberg      Total
 -----------------------------------------------------------------------
      C    1   -0.29902      0.99962     2.29287    0.00654     3.29902
      C    2   -0.10653      0.99952     2.09457    0.01244     3.10653
      C    3   -0.02734      0.99944     2.01392    0.01397     3.02734
      N    4   -0.24509      0.99964     2.73382    0.01163     3.74509
      C    5    0.05237      0.99962     1.93062    0.01740     2.94763
      S    6    0.19428      4.99939     2.78740    0.01893     7.80572
      C    7   -0.11097      0.99955     2.10063    0.01078     3.11097
      N    8   -0.33637      0.99975     2.82597    0.01065     3.83637
      C    9   -0.08440      0.99960     2.07231    0.01249     3.08440
      C   10   -0.12485      0.99958     2.11468    0.01059     3.12485
      C   11   -0.18831      0.99961     2.17918    0.00952     3.18831
      C   12   -0.19495      0.99962     2.18641    0.00891     3.19495
      C   13   -0.08348      0.99961     2.07167    0.01220     3.08348
      N   14   -0.28421      0.99971     2.77253    0.01197     3.78421
      C   15   -0.08635      0.99959     2.07445    0.01230     3.08635
      C   16   -0.17286      0.99965     2.16631    0.00690     3.17286
      H   17    0.10804      0.00000     0.38981    0.00215     0.39196
      H   18    0.10353      0.00000     0.39542    0.00106     0.39647
      H   19    0.10705      0.00000     0.39163    0.00132     0.39295
      H   20    0.09584      0.00000     0.40287    0.00129     0.40416
      H   21    0.10381      0.00000     0.39481    0.00138     0.39619
      H   22    0.09297      0.00000     0.40381    0.00322     0.40703
      H   23    0.17561      0.00000     0.32185    0.00254     0.32439
      H   24    0.09907      0.00000     0.39930    0.00163     0.40093
      H   25    0.09202      0.00000     0.40693    0.00105     0.40798
      H   26    0.09905      0.00000     0.39937    0.00159     0.40095
      H   27    0.09815      0.00000     0.40059    0.00126     0.40185
      H   28    0.10076      0.00000     0.39814    0.00110     0.39924
      H   29    0.10151      0.00000     0.39733    0.00116     0.39849
      H   30    0.09554      0.00000     0.40307    0.00139     0.40446
      H   31    0.07824      0.00000     0.41990    0.00186     0.42176
      H   32    0.09742      0.00000     0.40121    0.00136     0.40258
      H   33    0.09609      0.00000     0.40240    0.00151     0.40391
      H   34    0.08358      0.00000     0.41502    0.00140     0.41642
      H   35    0.07977      0.00000     0.41859    0.00164     0.42023
      H   36    0.09451      0.00000     0.40442    0.00107     0.40549
      H   37    0.09551      0.00000     0.40328    0.00121     0.40449
 =======================================================================
   * Total *    0.00000     19.99352    44.78710    0.21938    65.00000

 Normal termination of Gaussian 16 at Fri Dec 11 02:11:43 2020.
