 Gaussian 16, Revision A.03,

 -----------------------------------------------------------
 # opt freq B3LYP/6-31G(d) empiricaldispersion=gd3bj scf=xqc
 -----------------------------------------------------------

 ------------------------------
 CID_89611455_JID_5656_neutraal
 ------------------------------
 Symbolic Z-matrix:
 Charge =  0 Multiplicity = 1

 SCF Done:  E(RB3LYP) =  -707.463852244     A.U. after   15 cycles
 SCF Done:  E(RB3LYP) =  -707.467902541     A.U. after   13 cycles
 SCF Done:  E(RB3LYP) =  -707.468265890     A.U. after   13 cycles
 SCF Done:  E(RB3LYP) =  -707.468947238     A.U. after   12 cycles
 SCF Done:  E(RB3LYP) =  -707.469546736     A.U. after   12 cycles
 SCF Done:  E(RB3LYP) =  -707.470671831     A.U. after   13 cycles
 SCF Done:  E(RB3LYP) =  -707.471215317     A.U. after   14 cycles
 SCF Done:  E(RB3LYP) =  -707.471275196     A.U. after   13 cycles
 SCF Done:  E(RB3LYP) =  -707.470773198     A.U. after   13 cycles
 SCF Done:  E(RB3LYP) =  -707.471533319     A.U. after   12 cycles
 SCF Done:  E(RB3LYP) =  -707.471661391     A.U. after   10 cycles
 SCF Done:  E(RB3LYP) =  -707.471664462     A.U. after   10 cycles
 SCF Done:  E(RB3LYP) =  -707.471665572     A.U. after    9 cycles
 SCF Done:  E(RB3LYP) =  -707.471666019     A.U. after    9 cycles
 SCF Done:  E(RB3LYP) =  -707.471666198     A.U. after    8 cycles
 Optimization completed.
    -- Stationary point found.
 Normal termination of Gaussian 16 at Thu Dec 10 16:39:58 2020.

 --------------------------------------------------------------------
 #N Geom=AllCheck Guess=TCheck SCRF=Check GenChk RB3LYP/6-31G(d) Freq
 --------------------------------------------------------------------

 Structure from the checkpoint file:  "JID_5656.chk"
 ------------------------------
 CID_89611455_JID_5656_neutraal
 ------------------------------
 Charge =  0 Multiplicity = 1

 SCF Done:  E(RB3LYP) =  -707.471666198     A.U. after    1 cycles

  Exact polarizability: 166.827  13.331 141.033  12.823  -7.977  80.158
 Approx polarizability: 254.188  29.161 215.346  27.764 -15.506 123.556

                      1                      2                      3
                      A                      A                      A
 Frequencies --     18.6127                38.4701                53.3338
 Red. masses --      4.3740                 4.4230                 7.1940
 Frc consts  --      0.0009                 0.0039                 0.0121
 IR Inten    --      0.4827                 2.3878                 3.1924

                      4                      5                      6
                      A                      A                      A
 Frequencies --     69.3519                95.6544               108.3328
 Red. masses --      5.4307                 6.7721                 2.9512
 Frc consts  --      0.0154                 0.0365                 0.0204
 IR Inten    --      0.4089                 1.6069                 3.2634

                      7                      8                      9
                      A                      A                      A
 Frequencies --    125.8503               206.1606               236.5778
 Red. masses --      4.0508                 4.7743                 4.0607
 Frc consts  --      0.0378                 0.1196                 0.1339
 IR Inten    --      4.9224                 1.2276                 0.2594

                     10                     11                     12
                      A                      A                      A
 Frequencies --    251.0386               286.5919               314.8561
 Red. masses --      1.1683                 3.2967                 2.6337
 Frc consts  --      0.0434                 0.1595                 0.1538
 IR Inten    --      0.3734                 4.6306                 2.5348

                     13                     14                     15
                      A                      A                      A
 Frequencies --    340.0782               379.2070               394.8069
 Red. masses --      1.2724                 6.2906                 3.1966
 Frc consts  --      0.0867                 0.5330                 0.2936
 IR Inten    --    122.0707                12.8856                 4.5399

                     16                     17                     18
                      A                      A                      A
 Frequencies --    449.7366               453.5988               499.0895
 Red. masses --      2.8557                 3.4917                 4.6199
 Frc consts  --      0.3403                 0.4233                 0.6780
 IR Inten    --     35.0425                 1.5018                 3.9974

                     19                     20                     21
                      A                      A                      A
 Frequencies --    529.2956               536.5682               546.6788
 Red. masses --      3.0186                 2.8614                 2.2161
 Frc consts  --      0.4983                 0.4854                 0.3902
 IR Inten    --     22.4849                10.5946                 5.3796

                     22                     23                     24
                      A                      A                      A
 Frequencies --    579.3960               640.5850               659.4944
 Red. masses --      4.2998                 3.6281                 3.4152
 Frc consts  --      0.8505                 0.8772                 0.8751
 IR Inten    --      3.2487                 9.5840                38.0975

                     25                     26                     27
                      A                      A                      A
 Frequencies --    677.3403               720.5544               753.1627
 Red. masses --      1.8658                 2.1982                 3.8208
 Frc consts  --      0.5043                 0.6724                 1.2770
 IR Inten    --     42.0722                30.4108                 0.1457

                     28                     29                     30
                      A                      A                      A
 Frequencies --    776.5415               806.1937               863.8514
 Red. masses --      3.0951                 1.7825                 4.0679
 Frc consts  --      1.0997                 0.6826                 1.7886
 IR Inten    --      4.0092                27.5190                 2.5671

                     31                     32                     33
                      A                      A                      A
 Frequencies --    892.4966               927.8911               952.7123
 Red. masses --      1.3888                 1.3636                 2.0630
 Frc consts  --      0.6518                 0.6917                 1.1032
 IR Inten    --      0.2473                13.9540                 5.1948

                     34                     35                     36
                      A                      A                      A
 Frequencies --    970.5854               987.0724              1017.9754
 Red. masses --      1.2852                 2.0931                 3.8655
 Frc consts  --      0.7133                 1.2015                 2.3601
 IR Inten    --      0.6646                13.0744                 5.3689

                     37                     38                     39
                      A                      A                      A
 Frequencies --   1025.6752              1039.8430              1070.9878
 Red. masses --      3.4483                 1.5985                 1.7035
 Frc consts  --      2.1373                 1.0183                 1.1512
 IR Inten    --      9.9411                30.4211                 8.0523

                     40                     41                     42
                      A                      A                      A
 Frequencies --   1087.9060              1120.9184              1147.1824
 Red. masses --      5.7879                 1.8052                 1.5776
 Frc consts  --      4.0360                 1.3364                 1.2233
 IR Inten    --     54.0451                 2.4175                15.2272

                     43                     44                     45
                      A                      A                      A
 Frequencies --   1191.8867              1200.8741              1209.6377
 Red. masses --      1.4378                 1.3239                 1.1543
 Frc consts  --      1.2034                 1.1249                 0.9951
 IR Inten    --     27.5250                 9.1094                 5.8258

                     46                     47                     48
                      A                      A                      A
 Frequencies --   1265.3399              1276.7613              1313.0248
 Red. masses --      1.9423                 2.5920                 1.5028
 Frc consts  --      1.8322                 2.4895                 1.5265
 IR Inten    --     57.9436                20.5784                18.0863

                     49                     50                     51
                      A                      A                      A
 Frequencies --   1348.8522              1358.0239              1371.1338
 Red. masses --      2.8176                 1.5615                 1.3606
 Frc consts  --      3.0204                 1.6967                 1.5071
 IR Inten    --    269.4791                 4.5470                 6.3599

                     52                     53                     54
                      A                      A                      A
 Frequencies --   1378.7138              1412.8668              1429.3727
 Red. masses --      2.8611                 1.2088                 1.4181
 Frc consts  --      3.2043                 1.4217                 1.7071
 IR Inten    --     75.2799                24.6531               100.1963

                     55                     56                     57
                      A                      A                      A
 Frequencies --   1467.6865              1494.2158              1499.4310
 Red. masses --      2.3527                 1.0836                 1.0974
 Frc consts  --      2.9860                 1.4254                 1.4537
 IR Inten    --     24.3994                 0.7963                19.8627

                     58                     59                     60
                      A                      A                      A
 Frequencies --   1506.0361              1517.1485              1519.0077
 Red. masses --      1.0539                 1.6746                 1.2582
 Frc consts  --      1.4084                 2.2710                 1.7105
 IR Inten    --     25.2780                13.0102                 2.9781

                     61                     62                     63
                      A                      A                      A
 Frequencies --   1557.0717              1649.5991              1666.0689
 Red. masses --      2.4351                 5.5596                 5.7301
 Frc consts  --      3.4785                 8.9135                 9.3712
 IR Inten    --     97.0143                40.3926               111.0515

                     64                     65                     66
                      A                      A                      A
 Frequencies --   1792.7428              1817.8731              3055.7317
 Red. masses --      7.5511                11.3804                 1.0596
 Frc consts  --     14.2988                22.1582                 5.8294
 IR Inten    --    475.1982               152.8570                22.9057

                     67                     68                     69
                      A                      A                      A
 Frequencies --   3066.8828              3081.3055              3108.8096
 Red. masses --      1.0388                 1.0594                 1.1048
 Frc consts  --      5.7569                 5.9264                 6.2909
 IR Inten    --      2.0339                12.3858                19.6962

                     70                     71                     72
                      A                      A                      A
 Frequencies --   3135.3632              3142.4392              3174.0910
 Red. masses --      1.0986                 1.1045                 1.1032
 Frc consts  --      6.3629                 6.4263                 6.5483
 IR Inten    --      6.6156                 6.8124                10.7012

                     73                     74                     75
                      A                      A                      A
 Frequencies --   3184.5499              3197.2650              3211.6338
 Red. masses --      1.0871                 1.0903                 1.0964
 Frc consts  --      6.4958                 6.5666                 6.6630
 IR Inten    --      5.8918                13.1692                17.0275

                     76                     77                     78
                      A                      A                      A
 Frequencies --   3264.7929              3580.4008              3749.7495
 Red. masses --      1.0897                 1.0753                 1.0666
 Frc consts  --      6.8434                 8.1219                 8.8363
 IR Inten    --      1.4009                23.3259                26.1253

 - Thermochemistry -
 -------------------
 Temperature   298.150 Kelvin.  Pressure   1.00000 Atm.
 Atom     1 has atomic number  6 and mass  12.00000

 Molecular mass:   207.08954 amu.
 Principal axes and moments of inertia in atomic units:
                           1         2         3
     Eigenvalues --  2105.140054637.913666184.86149
           X            0.99999  -0.00447  -0.00160
           Y            0.00445   0.99990  -0.01333
           Z            0.00166   0.01333   0.99991
 This molecule is an asymmetric top.
 Rotational symmetry number  1.
 Warning -- assumption of classical behavior for rotation
           may cause significant error
 Rotational temperatures (Kelvin)      0.04114     0.01868     0.01400
 Rotational constants (GHZ):           0.85730     0.38913     0.29180
 Zero-point vibrational energy     597227.5 (Joules/Mol)
                                  142.74080 (Kcal/Mol)
 Warning -- explicit consideration of  22 degrees of freedom as
           vibrations may cause significant error
 Vibrational temperatures:     26.78    55.35    76.74    99.78   137.63
          (Kelvin)            155.87   181.07   296.62   340.38   361.19
                              412.34   453.01   489.30   545.59   568.04
                              647.07   652.63   718.08   761.54   772.00
                              786.55   833.62   921.66   948.87   974.54
                             1036.72  1083.63  1117.27  1159.93  1242.89
                             1284.10  1335.03  1370.74  1396.46  1420.18
                             1464.64  1475.72  1496.10  1540.91  1565.25
                             1612.75  1650.54  1714.86  1727.79  1740.40
                             1820.54  1836.97  1889.15  1940.70  1953.89
                             1972.76  1983.66  2032.80  2056.55  2111.67
                             2149.84  2157.35  2166.85  2182.84  2185.51
                             2240.28  2373.41  2397.10  2579.36  2615.51
                             4396.52  4412.56  4433.31  4472.88  4511.09
                             4521.27  4566.81  4581.86  4600.15  4620.82
                             4697.31  5151.40  5395.05

 Zero-point correction=                           0.227472 (Hartree/Particle)
 Thermal correction to Energy=                    0.242163
 Thermal correction to Enthalpy=                  0.243107
 Thermal correction to Gibbs Free Energy=         0.183705
 Sum of electronic and zero-point Energies=           -707.244194
 Sum of electronic and thermal Energies=              -707.229503
 Sum of electronic and thermal Enthalpies=            -707.228559
 Sum of electronic and thermal Free Energies=         -707.287961

                     E (Thermal)             CV                S
                      KCal/Mol        Cal/Mol-Kelvin    Cal/Mol-Kelvin
 Total                  151.960             54.439            125.022
 Electronic               0.000              0.000              0.000
 Translational            0.889              2.981             41.888
 Rotational               0.889              2.981             32.468
 Vibrational            150.182             48.477             50.666
 Vibration     1          0.593              1.986              6.777
 Vibration     2          0.594              1.982              5.336
 Vibration     3          0.596              1.976              4.690
 Vibration     4          0.598              1.969              4.172
 Vibration     5          0.603              1.952              3.541
 Vibration     6          0.606              1.943              3.299
 Vibration     7          0.611              1.927              3.009
 Vibration     8          0.641              1.831              2.077
 Vibration     9          0.655              1.785              1.828
 Vibration    10          0.663              1.761              1.723
 Vibration    11          0.684              1.699              1.494
 Vibration    12          0.702              1.645              1.337
 Vibration    13          0.720              1.595              1.212
 Vibration    14          0.749              1.514              1.042
 Vibration    15          0.762              1.481              0.982
 Vibration    16          0.809              1.361              0.797
 Vibration    17          0.812              1.353              0.785
 Vibration    18          0.855              1.252              0.660
 Vibration    19          0.884              1.185              0.589
 Vibration    20          0.892              1.169              0.573
 Vibration    21          0.902              1.147              0.551
 Vibration    22          0.936              1.076              0.486

                           ! Non-Optimized Parameters !
 Normal termination of Gaussian 16 at Thu Dec 10 16:49:30 2020.

 ----------------------------------------------------------------------
 # B3LYP/6-311++G(d,p) empiricaldispersion=gd3bj scf=xqc pop=npa geom=c
 heck
 ----------------------------------------------------------------------

 --------------------------------------
 CID_89611455_JID_5656_Energie_neutraal
 --------------------------------------
 Structure from the checkpoint file:  "JID_5656.chk"
 Charge =  0 Multiplicity = 1

 SCF Done:  E(RB3LYP) =  -707.686235603     A.U. after   16 cycles
 Normal termination of Gaussian 16 at Thu Dec 10 16:54:08 2020.

 ----------------------------------------------------------------------
 # B3LYP/6-311++G(d,p) empiricaldispersion=gd3bj scf=xqc pop=npa geom=c
 heck
 ----------------------------------------------------------------------

 ------------------------------------
 CID_89611455_JID_5656_Energie_kation
 ------------------------------------
 Structure from the checkpoint file:  "JID_5656.chk"
 Charge =  1 Multiplicity = 2

 SCF Done:  E(UB3LYP) =  -707.385718776     A.U. after   25 cycles
 Normal termination of Gaussian 16 at Thu Dec 10 17:05:04 2020.
 Gaussian 16:  ES64L-G16RevA.03 25-Dec-2016

 ----------------------------------------------------------------------
 # B3LYP/6-311++G(d,p) empiricaldispersion=gd3bj scf=xqc pop=npa geom=c
 heck
 ----------------------------------------------------------------------

 -----------------------------------
 CID_89611455_JID_5656_Energie_anion
 -----------------------------------
 Structure from the checkpoint file:  "JID_5656.chk"
 Charge = -1 Multiplicity = 2

                         Standard orientation:
 ---------------------------------------------------------------------
 Center     Atomic      Atomic             Coordinates (Angstroms)
 Number     Number       Type             X           Y           Z
 ---------------------------------------------------------------------
      1          6           0       -2.560069   -1.590722    1.066465
      2          6           0       -3.183248   -0.780166   -0.051155
      3          8           0       -4.266630   -1.071543   -0.536807
      4          7           0       -2.515115    0.338059   -0.525794
      5          6           0       -1.288387    0.938944   -0.186416
      6          6           0       -1.163559    2.325354   -0.371905
      7          6           0        0.041125    2.962133   -0.094693
      8          6           0        1.133540    2.237952    0.383890
      9          6           0        1.017923    0.858901    0.577837
     10          6           0       -0.184410    0.211892    0.273338
     11          6           0        2.216070    0.051132    1.044254
     12          6           0        2.941931   -0.550680   -0.156984
     13          8           0        3.988350   -0.101267   -0.578501
     14          6           0        2.260710   -1.716684   -0.885246
     15          8           0        1.421570   -2.524204   -0.068649
     16          1           0       -3.361064   -2.166766    1.532013
     17          1           0       -2.064430   -0.963668    1.812487
     18          1           0       -1.818941   -2.292069    0.666852
     19          1           0       -3.088186    0.845319   -1.190566
     20          1           0       -2.017477    2.896399   -0.726836
     21          1           0        0.125863    4.034484   -0.245042
     22          1           0        2.072633    2.737995    0.600968
     23          1           0       -0.230286   -0.863776    0.367039
     24          1           0        2.930270    0.687620    1.571315
     25          1           0        1.886454   -0.751601    1.711109
     26          1           0        1.608306   -1.285478   -1.652824
     27          1           0        3.038231   -2.297020   -1.397488
     28          1           0        1.988351   -3.060092    0.506876
 ---------------------------------------------------------------------

 SCF Done:  E(UB3LYP) =  -707.687075959     A.U. after   33 cycles
 SCF Done:  E(UB3LYP) =  -707.687075959     a.u. after    1 cycles

 The electronic state is 2-A.
 Alpha  occ. eigenvalues --  -19.00496 -18.99355 -18.96061 -14.24766 -10.18111
 Alpha  occ. eigenvalues --  -10.11125 -10.10143 -10.09177 -10.07672 -10.06592
 Alpha  occ. eigenvalues --  -10.06195 -10.05864 -10.05456 -10.05312 -10.05024
 Alpha  occ. eigenvalues --   -0.94685  -0.90941  -0.89530  -0.83656  -0.74106
 Alpha  occ. eigenvalues --   -0.66802  -0.64603  -0.63384  -0.59921  -0.56932
 Alpha  occ. eigenvalues --   -0.52460  -0.49386  -0.46814  -0.43007  -0.41082
 Alpha  occ. eigenvalues --   -0.38666  -0.38649  -0.37826  -0.35984  -0.34949
 Alpha  occ. eigenvalues --   -0.33269  -0.32564  -0.32144  -0.31217  -0.30538
 Alpha  occ. eigenvalues --   -0.29954  -0.29402  -0.28478  -0.26019  -0.25808
 Alpha  occ. eigenvalues --   -0.25176  -0.24288  -0.22761  -0.21295  -0.19928
 Alpha  occ. eigenvalues --   -0.17882  -0.16670  -0.14781  -0.11938  -0.10231
 Alpha  occ. eigenvalues --    0.04786
 Alpha virt. eigenvalues --    0.07130   0.07753   0.08424   0.08777   0.09477
 Alpha virt. eigenvalues --    0.10399   0.10545   0.10814   0.11505   0.12106
 Alpha virt. eigenvalues --    0.12903   0.13162   0.13478   0.14156   0.14765

  Beta  occ. eigenvalues --  -19.00412 -18.99335 -18.95703 -14.24775 -10.18086
  Beta  occ. eigenvalues --  -10.11127 -10.09864 -10.09179 -10.07670 -10.06576
  Beta  occ. eigenvalues --  -10.06008 -10.05716 -10.05439 -10.05291 -10.05053
  Beta  occ. eigenvalues --   -0.94648  -0.90630  -0.88974  -0.83637  -0.73929
  Beta  occ. eigenvalues --   -0.66538  -0.64540  -0.63288  -0.59574  -0.56767
  Beta  occ. eigenvalues --   -0.52407  -0.49150  -0.46762  -0.42634  -0.40864
  Beta  occ. eigenvalues --   -0.38585  -0.38442  -0.37725  -0.35884  -0.34824
  Beta  occ. eigenvalues --   -0.32865  -0.32438  -0.31978  -0.31151  -0.30479
  Beta  occ. eigenvalues --   -0.29702  -0.29210  -0.28334  -0.25884  -0.25503
  Beta  occ. eigenvalues --   -0.24777  -0.23964  -0.22602  -0.20216  -0.19561
  Beta  occ. eigenvalues --   -0.17715  -0.16650  -0.14101  -0.11625  -0.09870
  Beta virt. eigenvalues --    0.07345   0.08168   0.08513   0.08984   0.09114
  Beta virt. eigenvalues --    0.09630   0.10755   0.10817   0.11433   0.12071
  Beta virt. eigenvalues --    0.12208   0.12943   0.13558   0.13606   0.14103

 Mulliken charges and spin densities:
               1          2
     1  C   -0.352680  -0.112861
     2  C    0.075785   0.033625
     3  O   -0.348782   0.005712
     4  N   -0.129950  -0.012907
     5  C   -0.631436   0.112713
     6  C   -0.299931   0.201071
     7  C   -0.472097  -0.001107
     8  C   -0.352479   0.072367
     9  C    1.052109   0.116895
    10  C   -0.342684   0.094971
    11  C    0.019313  -0.203060
    12  C   -0.727568   0.749362
    13  O   -0.337006   0.108218
    14  C    0.394590  -0.817189
    15  O   -0.208333  -0.046542
    16  H    0.149492   0.030288
    17  H    0.130639   0.016345
    18  H   -0.046177   0.244794
    19  H    0.287025  -0.002359
    20  H    0.097203  -0.003290
    21  H    0.130843   0.004019
    22  H    0.138173  -0.003953
    23  H    1.020997  -0.761409
    24  H    0.181371  -0.017476
    25  H   -0.057238   0.199283
    26  H   -0.020526   0.210371
    27  H   -0.028868   0.192375
    28  H   -0.321783   0.589745
 Sum of Mulliken charges =  -1.00000   1.00000

 Dipole moment (field-independent basis, Debye):
    X=             -3.9194    Y=              4.9542    Z=              1.4496  Tot=              6.4813
 Quadrupole moment (field-independent basis, Debye-Ang):
   XX=           -158.2108   YY=           -121.8876   ZZ=           -100.7333
   XY=             -0.2193   XZ=              0.2925   YZ=             -1.5355

 Summary of Natural Population Analysis:

                                       Natural Population
                Natural  -----------------------------------------------
    Atom  No    Charge         Core      Valence    Rydberg      Total
 -----------------------------------------------------------------------
      C    1   -0.33633      0.99962     2.33238    0.00433     3.33633
      C    2    0.34808      0.99971     1.63118    0.02104     2.65192
      O    3   -0.32505      0.99988     3.31909    0.00608     4.32505
      N    4   -0.30942      0.99964     2.79992    0.00986     3.80942
      C    5    0.07434      0.99947     1.91460    0.01159     2.92566
      C    6   -0.09971      0.99953     2.09241    0.00777     3.09971
      C    7   -0.09343      0.99958     2.08538    0.00847     3.09343
      C    8   -0.10758      0.99951     2.09978    0.00829     3.10758
      C    9    0.02546      0.99950     1.96518    0.00985     2.97454
      C   10   -0.12179      0.99947     2.11379    0.00854     3.12179
      C   11   -0.24394      0.99957     2.23430    0.01007     3.24394
      C   12    0.31473      0.99967     1.66194    0.02366     2.68527
      O   13   -0.26541      0.99987     3.25865    0.00689     4.26541
      C   14   -0.05743      0.99955     2.04365    0.01424     3.05743
      O   15   -0.37247      0.99990     3.36472    0.00785     4.37247
      H   16    0.10906      0.00000     0.39004    0.00090     0.39094
      H   17    0.11059      0.00000     0.38856    0.00085     0.38941
      H   18    0.12047      0.00000     0.37826    0.00127     0.37953
      H   19    0.19430      0.00000     0.30412    0.00158     0.30570
      H   20    0.09166      0.00000     0.40708    0.00126     0.40834
      H   21    0.09392      0.00000     0.40511    0.00097     0.40608
      H   22    0.09855      0.00000     0.40040    0.00105     0.40145
      H   23    0.11500      0.00000     0.38258    0.00242     0.38500
      H   24    0.10521      0.00000     0.39357    0.00122     0.39479
      H   25    0.11182      0.00000     0.38684    0.00134     0.38818
      H   26    0.09846      0.00000     0.40022    0.00133     0.40154
      H   27    0.08706      0.00000     0.41154    0.00140     0.41294
      H   28    0.23388      0.00000     0.24918    0.01694     0.26612
 =======================================================================
   * Total *    0.00000     14.99447    39.81448    0.19105    55.00000

 Normal termination of Gaussian 16 at Thu Dec 10 17:21:01 2020.
