 Gaussian 16, Revision A.03,

 -----------------------------------------------------------
 # opt freq B3LYP/6-31G(d) empiricaldispersion=gd3bj scf=xqc
 -----------------------------------------------------------

 -------------------------------
 CID_130595813_JID_5693_neutraal
 -------------------------------
 Symbolic Z-matrix:
 Charge =  0 Multiplicity = 1

 SCF Done:  E(RB3LYP) =  -634.447660940     A.U. after   15 cycles
 SCF Done:  E(RB3LYP) =  -634.450635122     A.U. after   12 cycles
 SCF Done:  E(RB3LYP) =  -634.450455778     A.U. after   13 cycles
 SCF Done:  E(RB3LYP) =  -634.451174048     A.U. after   12 cycles
 SCF Done:  E(RB3LYP) =  -634.451458095     A.U. after   12 cycles
 SCF Done:  E(RB3LYP) =  -634.451463722     A.U. after   15 cycles
 SCF Done:  E(RB3LYP) =  -634.451612370     A.U. after   15 cycles
 SCF Done:  E(RB3LYP) =  -634.451807221     A.U. after   12 cycles
 SCF Done:  E(RB3LYP) =  -634.451745582     A.U. after   11 cycles
 SCF Done:  E(RB3LYP) =  -634.452005615     A.U. after   12 cycles
 SCF Done:  E(RB3LYP) =  -634.452094167     A.U. after   12 cycles
 SCF Done:  E(RB3LYP) =  -634.452122316     A.U. after   11 cycles
 SCF Done:  E(RB3LYP) =  -634.452113538     A.U. after   10 cycles
 SCF Done:  E(RB3LYP) =  -634.452123536     A.U. after   11 cycles
 SCF Done:  E(RB3LYP) =  -634.452123580     A.U. after    7 cycles
 Optimization completed.
    -- Stationary point found.
 Normal termination of Gaussian 16 at Thu Dec 10 16:42:12 2020.

 --------------------------------------------------------------------
 #N Geom=AllCheck Guess=TCheck SCRF=Check GenChk RB3LYP/6-31G(d) Freq
 --------------------------------------------------------------------

 Structure from the checkpoint file:  "JID_5693.chk"
 -------------------------------
 CID_130595813_JID_5693_neutraal
 -------------------------------
 Charge =  0 Multiplicity = 1

 SCF Done:  E(RB3LYP) =  -634.452123580     A.U. after    1 cycles

  Exact polarizability: 197.712 -13.581 143.916   6.208   9.525  89.965
 Approx polarizability: 277.894 -44.409 248.585  13.558  21.758 144.519

                      1                      2                      3
                      A                      A                      A
 Frequencies --     39.6130                69.6343                97.2802
 Red. masses --      4.3714                 3.6014                 4.7471
 Frc consts  --      0.0040                 0.0103                 0.0265
 IR Inten    --      2.7335                 0.1143                 2.5700

                      4                      5                      6
                      A                      A                      A
 Frequencies --    104.3860               156.0447               183.8144
 Red. masses --      3.0150                 2.7608                 3.3726
 Frc consts  --      0.0194                 0.0396                 0.0671
 IR Inten    --      1.8358                 1.5982                 0.4531

                      7                      8                      9
                      A                      A                      A
 Frequencies --    202.6132               239.1217               247.5829
 Red. masses --      1.0661                 1.3125                 3.8269
 Frc consts  --      0.0258                 0.0442                 0.1382
 IR Inten    --      0.1759                 0.1334                 0.1951

                     10                     11                     12
                      A                      A                      A
 Frequencies --    247.8693               294.3009               311.4450
 Red. masses --      2.2795                 3.8683                 3.4713
 Frc consts  --      0.0825                 0.1974                 0.1984
 IR Inten    --      0.2517                 0.5967                 3.5997

                     13                     14                     15
                      A                      A                      A
 Frequencies --    395.4999               409.2739               436.8069
 Red. masses --      2.8689                 2.0763                 3.6424
 Frc consts  --      0.2644                 0.2049                 0.4095
 IR Inten    --      1.6150                 1.0719                 0.6369

                     16                     17                     18
                      A                      A                      A
 Frequencies --    456.3139               491.7288               509.9845
 Red. masses --      3.3672                 3.6419                 3.8041
 Frc consts  --      0.4131                 0.5188                 0.5829
 IR Inten    --      4.6029                 5.8732                10.3394

                     19                     20                     21
                      A                      A                      A
 Frequencies --    533.9929               567.6923               602.8637
 Red. masses --      4.7870                 4.2577                 3.1616
 Frc consts  --      0.8042                 0.8084                 0.6770
 IR Inten    --      4.6025                 4.3743                 3.8546

                     22                     23                     24
                      A                      A                      A
 Frequencies --    628.2361               695.4922               754.6691
 Red. masses --      3.4906                 7.1084                 2.9662
 Frc consts  --      0.8117                 2.0259                 0.9953
 IR Inten    --      1.7742                 1.5807                 3.8632

                     25                     26                     27
                      A                      A                      A
 Frequencies --    798.2072               844.8539               852.5719
 Red. masses --      4.6703                 1.5917                 2.2229
 Frc consts  --      1.7532                 0.6694                 0.9520
 IR Inten    --      2.5780                14.0331                 0.7017

                     28                     29                     30
                      A                      A                      A
 Frequencies --    862.2687               887.0202               897.6152
 Red. masses --      3.3087                 1.8417                 2.1237
 Frc consts  --      1.4494                 0.8538                 1.0082
 IR Inten    --     12.4767                 2.8030                 1.3974

                     31                     32                     33
                      A                      A                      A
 Frequencies --    935.0685               950.4041               962.4273
 Red. masses --      1.4008                 1.5041                 1.7261
 Frc consts  --      0.7216                 0.8005                 0.9420
 IR Inten    --     13.1045                 0.2553                 2.0660

                     34                     35                     36
                      A                      A                      A
 Frequencies --    978.5884               987.1637              1019.5682
 Red. masses --      1.9079                 1.4371                 2.4800
 Frc consts  --      1.0765                 0.8251                 1.5189
 IR Inten    --      3.7363                 0.5640                 2.8264

                     37                     38                     39
                      A                      A                      A
 Frequencies --   1023.9539              1072.7477              1092.8120
 Red. masses --      1.5194                 1.5475                 2.3727
 Frc consts  --      0.9386                 1.0492                 1.6695
 IR Inten    --      0.7300                 3.6056                10.5095

                     40                     41                     42
                      A                      A                      A
 Frequencies --   1113.8148              1121.1102              1171.1616
 Red. masses --      1.8648                 2.0620                 1.2105
 Frc consts  --      1.3631                 1.5270                 0.9783
 IR Inten    --      2.1474                 0.5639                12.8909

                     43                     44                     45
                      A                      A                      A
 Frequencies --   1183.4572              1201.3535              1248.7135
 Red. masses --      2.1892                 3.3539                 2.0415
 Frc consts  --      1.8065                 2.8520                 1.8755
 IR Inten    --     15.1598                 4.0048                12.2903

                     46                     47                     48
                      A                      A                      A
 Frequencies --   1271.2201              1281.7544              1292.3365
 Red. masses --      2.3683                 1.7084                 1.3923
 Frc consts  --      2.2549                 1.6536                 1.3701
 IR Inten    --      3.2725                83.7296                 0.6838

                     49                     50                     51
                      A                      A                      A
 Frequencies --   1304.6255              1315.9305              1325.9387
 Red. masses --      3.3439                 1.6638                 1.8403
 Frc consts  --      3.3533                 1.6976                 1.9063
 IR Inten    --     24.2788                31.4460                23.1144

                     52                     53                     54
                      A                      A                      A
 Frequencies --   1347.0901              1372.1620              1392.7038
 Red. masses --      1.6483                 1.9249                 1.4404
 Frc consts  --      1.7623                 2.1354                 1.6461
 IR Inten    --      6.8027                10.2368                12.9894

                     55                     56                     57
                      A                      A                      A
 Frequencies --   1415.2306              1440.8918              1444.3627
 Red. masses --      1.8171                 1.2437                 1.2319
 Frc consts  --      2.1443                 1.5213                 1.5142
 IR Inten    --     18.8600                 2.4338                 2.3946

                     58                     59                     60
                      A                      A                      A
 Frequencies --   1453.5431              1487.0346              1507.5436
 Red. masses --      1.8795                 1.0894                 1.0959
 Frc consts  --      2.3397                 1.4194                 1.4675
 IR Inten    --     22.9545                 3.3801                 2.6704

                     61                     62                     63
                      A                      A                      A
 Frequencies --   1514.6545              1518.5951              1527.6134
 Red. masses --      1.0749                 1.1086                 1.0453
 Frc consts  --      1.4529                 1.5063                 1.4372
 IR Inten    --      7.8509                22.8419                 7.8251

                     64                     65                     66
                      A                      A                      A
 Frequencies --   1528.3270              1540.7702              1607.5998
 Red. masses --      1.0553                 2.2672                 5.1680
 Frc consts  --      1.4523                 3.1711                 7.8691
 IR Inten    --      3.4997                 5.3625                17.4897

                     67                     68                     69
                      A                      A                      A
 Frequencies --   1644.8959              1677.2103              1772.6339
 Red. masses --      5.5060                 7.4087                11.2448
 Frc consts  --      8.7773                12.2792                20.8180
 IR Inten    --     32.5468                70.2810               276.1061

                     70                     71                     72
                      A                      A                      A
 Frequencies --   3004.0248              3012.2192              3027.8079
 Red. masses --      1.0716                 1.0712                 1.0781
 Frc consts  --      5.6974                 5.7263                 5.8235
 IR Inten    --      4.0329                 5.5742                28.1146

                     73                     74                     75
                      A                      A                      A
 Frequencies --   3042.7715              3055.8241              3081.2464
 Red. masses --      1.0369                 1.0405                 1.0916
 Frc consts  --      5.6562                 5.7247                 6.1063
 IR Inten    --     32.7868                11.0164                17.6659

                     76                     77                     78
                      A                      A                      A
 Frequencies --   3106.6755              3109.9435              3113.6883
 Red. masses --      1.0982                 1.0962                 1.0965
 Frc consts  --      6.2451                 6.2469                 6.2632
 IR Inten    --     22.0125                27.3159                18.4637

                     79                     80                     81
                      A                      A                      A
 Frequencies --   3117.2361              3146.7800              3174.8740
 Red. masses --      1.1020                 1.1021                 1.0870
 Frc consts  --      6.3093                 6.4300                 6.4555
 IR Inten    --     32.0431                 9.6812                24.0540

                     82                     83                     84
                      A                      A                      A
 Frequencies --   3177.5369              3198.7585              3219.9303
 Red. masses --      1.0903                 1.0948                 1.0905
 Frc consts  --      6.4861                 6.6003                 6.6616
 IR Inten    --     18.3196                27.5156                 6.3272

 - Thermochemistry -
 -------------------
 Temperature   298.150 Kelvin.  Pressure   1.00000 Atm.
 Atom     1 has atomic number  6 and mass  12.00000

 Molecular mass:   201.11536 amu.
 Principal axes and moments of inertia in atomic units:
                           1         2         3
     Eigenvalues --  1698.165744862.210105945.17276
           X            0.99906   0.04344  -0.00020
           Y           -0.04343   0.99895   0.01470
           Z            0.00084  -0.01467   0.99989
 This molecule is an asymmetric top.
 Rotational symmetry number  1.
 Warning -- assumption of classical behavior for rotation
           may cause significant error
 Rotational temperatures (Kelvin)      0.05100     0.01781     0.01457
 Rotational constants (GHZ):           1.06276     0.37118     0.30356
 Zero-point vibrational energy     666649.7 (Joules/Mol)
                                  159.33310 (Kcal/Mol)
 Warning -- explicit consideration of  21 degrees of freedom as
           vibrations may cause significant error
 Vibrational temperatures:     56.99   100.19   139.96   150.19   224.51
          (Kelvin)            264.47   291.52   344.04   356.22   356.63
                              423.43   448.10   569.04   588.85   628.47
                              656.53   707.49   733.75   768.30   816.78
                              867.39   903.89  1000.66  1085.80  1148.44
                             1215.56  1226.66  1240.61  1276.22  1291.47
                             1345.36  1367.42  1384.72  1407.97  1420.31
                             1466.93  1473.24  1543.44  1572.31  1602.53
                             1613.03  1685.04  1702.73  1728.48  1796.62
                             1829.00  1844.16  1859.38  1877.07  1893.33
                             1907.73  1938.16  1974.24  2003.79  2036.20
                             2073.12  2078.12  2091.32  2139.51  2169.02
                             2179.25  2184.92  2197.90  2198.92  2216.82
                             2312.98  2366.64  2413.13  2550.42  4322.12
                             4333.91  4356.34  4377.87  4396.65  4433.23
                             4469.81  4474.52  4479.90  4485.01  4527.51
                             4567.94  4571.77  4602.30  4632.76

 Zero-point correction=                           0.253913 (Hartree/Particle)
 Thermal correction to Energy=                    0.267430
 Thermal correction to Enthalpy=                  0.268374
 Thermal correction to Gibbs Free Energy=         0.213574
 Sum of electronic and zero-point Energies=           -634.198210
 Sum of electronic and thermal Energies=              -634.184694
 Sum of electronic and thermal Enthalpies=            -634.183750
 Sum of electronic and thermal Free Energies=         -634.238549

                     E (Thermal)             CV                S
                      KCal/Mol        Cal/Mol-Kelvin    Cal/Mol-Kelvin
 Total                  167.815             52.458            115.336
 Electronic               0.000              0.000              0.000
 Translational            0.889              2.981             41.801
 Rotational               0.889              2.981             32.262
 Vibrational            166.037             46.496             41.273
 Vibration     1          0.594              1.981              5.278
 Vibration     2          0.598              1.969              4.164
 Vibration     3          0.603              1.951              3.508
 Vibration     4          0.605              1.946              3.371
 Vibration     5          0.620              1.896              2.597
 Vibration     6          0.631              1.862              2.289
 Vibration     7          0.639              1.836              2.109
 Vibration     8          0.657              1.781              1.809
 Vibration     9          0.661              1.767              1.748
 Vibration    10          0.661              1.766              1.746
 Vibration    11          0.689              1.684              1.449
 Vibration    12          0.700              1.652              1.355
 Vibration    13          0.762              1.480              0.979
 Vibration    14          0.774              1.450              0.929
 Vibration    15          0.797              1.390              0.837
 Vibration    16          0.815              1.347              0.777
 Vibration    17          0.847              1.268              0.679
 Vibration    18          0.865              1.228              0.634
 Vibration    19          0.889              1.175              0.578
 Vibration    20          0.924              1.101              0.509
 Vibration    21          0.961              1.026              0.445

 Optimization completed.
    -- Stationary point found.
 Normal termination of Gaussian 16 at Thu Dec 10 16:52:38 2020.

 ----------------------------------------------------------------------
 # B3LYP/6-311++G(d,p) empiricaldispersion=gd3bj scf=xqc pop=npa geom=c
 heck
 ----------------------------------------------------------------------

 ---------------------------------------
 CID_130595813_JID_5693_Energie_neutraal
 ---------------------------------------
 Structure from the checkpoint file:  "JID_5693.chk"
 Charge =  0 Multiplicity = 1

 SCF Done:  E(RB3LYP) =  -634.619881279     A.U. after   16 cycles
 Normal termination of Gaussian 16 at Thu Dec 10 16:58:15 2020.

 ----------------------------------------------------------------------
 # B3LYP/6-311++G(d,p) empiricaldispersion=gd3bj scf=xqc pop=npa geom=c
 heck
 ----------------------------------------------------------------------

 -------------------------------------
 CID_130595813_JID_5693_Energie_kation
 -------------------------------------
 Structure from the checkpoint file:  "JID_5693.chk"
 Charge =  1 Multiplicity = 2

 SCF Done:  E(UB3LYP) =  -634.303211172     A.U. after   33 cycles
 SCF Done:  E(UB3LYP) =  -634.303211172     a.u. after    1 cycles
 Normal termination of Gaussian 16 at Thu Dec 10 17:12:09 2020.
 Gaussian 16:  ES64L-G16RevA.03 25-Dec-2016

 ----------------------------------------------------------------------
 # B3LYP/6-311++G(d,p) empiricaldispersion=gd3bj scf=xqc pop=npa geom=c
 heck
 ----------------------------------------------------------------------

 ------------------------------------
 CID_130595813_JID_5693_Energie_anion
 ------------------------------------
 Structure from the checkpoint file:  "JID_5693.chk"
 Charge = -1 Multiplicity = 2

                         Standard orientation:
 ---------------------------------------------------------------------
 Center     Atomic      Atomic             Coordinates (Angstroms)
 Number     Number       Type             X           Y           Z
 ---------------------------------------------------------------------
      1          6           0       -3.277995   -2.196424    0.818254
      2          6           0       -2.441401   -0.930057    0.632434
      3          6           0       -1.034387   -1.254350    0.112392
      4          6           0       -0.210038   -0.011849   -0.165317
      5          6           0       -0.817511    1.160700   -0.454031
      6          6           0       -2.281026    1.320964   -0.530203
      7          8           0       -2.787110    2.405760   -0.783471
      8          6           0       -3.118295    0.070184   -0.312148
      9          6           0        1.263198   -0.153488   -0.140676
     10          6           0        2.140566    0.779993    0.456273
     11          6           0        3.508482    0.495253    0.391700
     12          6           0        3.958834   -0.659472   -0.239532
     13          7           0        3.139309   -1.559124   -0.798044
     14          6           0        1.834012   -1.297724   -0.728911
     15          6           0        1.682346    2.022152    1.178404
     16          1           0       -4.267434   -1.957199    1.223362
     17          1           0       -2.791058   -2.896621    1.506799
     18          1           0       -3.424046   -2.712670   -0.138859
     19          1           0       -2.324272   -0.442206    1.611277
     20          1           0       -0.503217   -1.893245    0.827241
     21          1           0       -1.123182   -1.846238   -0.812712
     22          1           0       -0.247408    2.054906   -0.682068
     23          1           0       -3.265721   -0.403784   -1.295880
     24          1           0       -4.106984    0.374632    0.045182
     25          1           0        4.222764    1.174958    0.848194
     26          1           0        5.023233   -0.880682   -0.290452
     27          1           0        1.183957   -2.039064   -1.189132
     28          1           0        2.419506    2.314910    1.932071
     29          1           0        1.568781    2.867673    0.489273
     30          1           0        0.716094    1.877127    1.667944
 ---------------------------------------------------------------------

 SCF Done:  E(UB3LYP) =  -634.642043094     A.U. after   26 cycles

 The electronic state is 2-A.
 Alpha  occ. eigenvalues --  -18.92482 -14.17413 -10.07335 -10.06534 -10.06157
 Alpha  occ. eigenvalues --  -10.05954 -10.05889 -10.05847 -10.04986 -10.04717
 Alpha  occ. eigenvalues --  -10.04476 -10.04235 -10.03687 -10.02440 -10.00105
 Alpha  occ. eigenvalues --   -0.86408  -0.80750  -0.71442  -0.69048  -0.65216
 Alpha  occ. eigenvalues --   -0.61269  -0.59221  -0.57907  -0.56033  -0.50302
 Alpha  occ. eigenvalues --   -0.47973  -0.45427  -0.43082  -0.38190  -0.37101
 Alpha  occ. eigenvalues --   -0.36161  -0.34871  -0.33126  -0.32256  -0.30642
 Alpha  occ. eigenvalues --   -0.29746  -0.29166  -0.28818  -0.28228  -0.26887
 Alpha  occ. eigenvalues --   -0.26155  -0.25871  -0.25752  -0.25210  -0.23361
 Alpha  occ. eigenvalues --   -0.22963  -0.20721  -0.19996  -0.19256  -0.15418
 Alpha  occ. eigenvalues --   -0.14390  -0.12908  -0.10118  -0.08443   0.03597
 Alpha virt. eigenvalues --    0.07800   0.08417   0.09593   0.09814   0.10331
 Alpha virt. eigenvalues --    0.10558   0.11101   0.11946   0.12356   0.12718
 Alpha virt. eigenvalues --    0.12899   0.13290   0.13963   0.14269   0.15105

  Beta  occ. eigenvalues --  -18.92013 -14.17454 -10.07138 -10.06440 -10.05945
  Beta  occ. eigenvalues --  -10.05906 -10.05847 -10.05715 -10.05000 -10.04775
  Beta  occ. eigenvalues --  -10.04499 -10.04170 -10.03705 -10.02052  -9.99967
  Beta  occ. eigenvalues --   -0.85583  -0.80596  -0.71161  -0.68836  -0.64832
  Beta  occ. eigenvalues --   -0.60937  -0.59033  -0.57810  -0.55826  -0.49889
  Beta  occ. eigenvalues --   -0.47756  -0.45295  -0.42460  -0.37949  -0.36936
  Beta  occ. eigenvalues --   -0.35994  -0.34746  -0.32978  -0.32067  -0.30385
  Beta  occ. eigenvalues --   -0.29525  -0.28870  -0.28535  -0.28125  -0.26690
  Beta  occ. eigenvalues --   -0.25993  -0.25704  -0.25349  -0.24910  -0.23078
  Beta  occ. eigenvalues --   -0.22379  -0.20584  -0.19127  -0.18585  -0.14426
  Beta  occ. eigenvalues --   -0.13606  -0.12779  -0.08383  -0.08009
  Beta virt. eigenvalues --    0.07750   0.08389   0.09486   0.09659   0.09983
  Beta virt. eigenvalues --    0.10344   0.10532   0.11101   0.12347   0.12653
  Beta virt. eigenvalues --    0.12739   0.13278   0.13863   0.14123   0.14328

 Mulliken charges and spin densities:
               1          2
     1  C   -0.684509  -0.037445
     2  C    0.721257  -0.000053
     3  C   -1.405119  -0.000936
     4  C    1.588614   0.250370
     5  C   -1.250566   0.052891
     6  C   -0.251969   0.150602
     7  O   -0.406230   0.159365
     8  C   -0.347623   0.009004
     9  C    0.616501   0.097199
    10  C    0.121402   0.103476
    11  C    0.006324  -0.032187
    12  C   -0.455361   0.185568
    13  N   -0.029414  -0.030263
    14  C   -0.577576   0.046805
    15  C   -0.714625  -0.000258
    16  H    0.129740   0.002689
    17  H    0.117883   0.001836
    18  H    0.129310   0.001134
    19  H    0.158901   0.002828
    20  H    0.166191  -0.005881
    21  H    0.094232   0.042528
    22  H    0.160564  -0.009933
    23  H    0.134328   0.004521
    24  H    0.136799   0.006019
    25  H    0.129599   0.004116
    26  H    0.123849  -0.015230
    27  H    0.179675   0.002365
    28  H    0.104781  -0.000278
    29  H    0.147949   0.009498
    30  H    0.155093  -0.000348
 Sum of Mulliken charges =  -1.00000   1.00000

 Dipole moment (field-independent basis, Debye):
    X=              0.7400    Y=             -2.6978    Z=              3.1280  Tot=              4.1964
 Quadrupole moment (field-independent basis, Debye-Ang):
   XX=           -136.9631   YY=           -118.8081   ZZ=           -100.4392
   XY=             24.4955   XZ=             -0.0848   YZ=              3.4678

 Summary of Natural Population Analysis:

                                       Natural Population
                Natural  -----------------------------------------------
    Atom  No    Charge         Core      Valence    Rydberg      Total
 -----------------------------------------------------------------------
      C    1   -0.28096      0.99966     2.27651    0.00479     3.28096
      C    2   -0.10547      0.99961     2.09865    0.00720     3.10547
      C    3   -0.19994      0.99959     2.19278    0.00756     3.19994
      C    4    0.07422      0.99949     1.91716    0.00913     2.92578
      C    5   -0.12187      0.99944     2.11353    0.00890     3.12187
      C    6    0.28229      0.99963     1.69668    0.02140     2.71771
      O    7   -0.26632      0.99988     3.25829    0.00816     4.26632
      C    8   -0.22720      0.99959     2.21912    0.00849     3.22720
      C    9   -0.03757      0.99945     2.02712    0.01099     3.03757
      C   10    0.03879      0.99948     1.95405    0.00768     2.96121
      C   11   -0.14303      0.99952     2.13518    0.00833     3.14303
      C   12    0.05995      0.99960     1.92525    0.01520     2.94005
      N   13   -0.25385      0.99972     2.74170    0.01243     3.75385
      C   14    0.05097      0.99955     1.93588    0.01360     2.94903
      C   15   -0.29856      0.99964     2.29411    0.00481     3.29856
      H   16    0.09413      0.00000     0.40493    0.00095     0.40587
      H   17    0.09383      0.00000     0.40520    0.00096     0.40617
      H   18    0.09348      0.00000     0.40552    0.00100     0.40652
      H   19    0.09005      0.00000     0.40788    0.00207     0.40995
      H   20    0.09910      0.00000     0.39972    0.00119     0.40090
      H   21    0.09945      0.00000     0.39894    0.00161     0.40055
      H   22    0.09581      0.00000     0.40243    0.00176     0.40419
      H   23    0.09962      0.00000     0.39921    0.00117     0.40038
      H   24    0.10062      0.00000     0.39785    0.00153     0.39938
      H   25    0.09231      0.00000     0.40648    0.00120     0.40769
      H   26    0.07662      0.00000     0.42172    0.00166     0.42338
      H   27    0.08312      0.00000     0.41538    0.00150     0.41688
      H   28    0.09302      0.00000     0.40597    0.00101     0.40698
      H   29    0.10505      0.00000     0.39401    0.00093     0.39495
      H   30    0.11235      0.00000     0.38662    0.00103     0.38765
 =======================================================================
   * Total *    0.00000     14.99386    38.83790    0.16824    54.00000

 Normal termination of Gaussian 16 at Thu Dec 10 17:24:02 2020.
