 Gaussian 16, Revision A.03,

 -----------------------------------------------------------
 # opt freq B3LYP/6-31G(d) empiricaldispersion=gd3bj scf=xqc
 -----------------------------------------------------------

 -----------------------------
 CID_21868760_JID_274_neutraal
 -----------------------------
 Symbolic Z-matrix:
 Charge =  0 Multiplicity = 1

 SCF Done:  E(RB3LYP) =  -466.170648293     A.U. after   13 cycles
 SCF Done:  E(RB3LYP) =  -466.172954733     A.U. after   11 cycles
 SCF Done:  E(RB3LYP) =  -466.173289575     A.U. after   10 cycles
 SCF Done:  E(RB3LYP) =  -466.173353122     A.U. after   10 cycles
 SCF Done:  E(RB3LYP) =  -466.173384743     A.U. after   10 cycles
 SCF Done:  E(RB3LYP) =  -466.173400896     A.U. after    9 cycles
 SCF Done:  E(RB3LYP) =  -466.173409501     A.U. after    9 cycles
 SCF Done:  E(RB3LYP) =  -466.173411309     A.U. after    9 cycles
 SCF Done:  E(RB3LYP) =  -466.173414400     A.U. after    9 cycles
 SCF Done:  E(RB3LYP) =  -466.173414934     A.U. after    8 cycles
 SCF Done:  E(RB3LYP) =  -466.173414986     A.U. after    6 cycles
 Optimization completed.
    -- Stationary point found.

 1\1\GINC-NODE111\FOpt\RB3LYP\6-31G(d)\C8H18O2\VSC10255\08-Dec-2020\0\\
 # opt freq B3LYP/6-31G(d) empiricaldispersion=gd3bj scf=xqc\\CID_21868
 760_JID_274_neutraal\\0,1\C,0.9973070699,0.1007794216,0.1806324861\C,0
 .4427838386,-1.3218742529,0.0318031618\C,0.4122407004,-2.0445378046,1.
 3830388681\C,-0.9627941267,-1.3395450221,-0.6056536417\C,-1.0393152029
 ,-0.6233401915,-1.9516186825\O,-0.1803446429,-1.333546193,-2.833578125
 7\C,-0.3002415434,-0.9952805875,-4.2169286578\C,0.3124195413,0.3747543
 574,-4.5095418225\C,0.3888317966,-2.1122401524,-4.9896292516\O,-1.4347

 Normal termination of Gaussian 16 at Tue Dec  8 10:22:43 2020.

 --------------------------------------------------------------------
 #N Geom=AllCheck Guess=TCheck SCRF=Check GenChk RB3LYP/6-31G(d) Freq
 --------------------------------------------------------------------

 Structure from the checkpoint file:  "JID_274.chk"
 -----------------------------
 CID_21868760_JID_274_neutraal
 -----------------------------
 Charge =  0 Multiplicity = 1

 SCF Done:  E(RB3LYP) =  -466.173414986     A.U. after    1 cycles

  Exact polarizability: 107.063   0.946  88.318   0.717   1.116  83.593
 Approx polarizability: 127.012   1.014 121.515   2.576   1.124 121.958

                      1                      2                      3
                      A                      A                      A
 Frequencies --     28.0764                39.0811                72.0064
 Red. masses --      2.8108                 2.8154                 3.0462
 Frc consts  --      0.0013                 0.0025                 0.0093
 IR Inten    --      0.1341                 0.1477                 0.4508

                      4                      5                      6
                      A                      A                      A
 Frequencies --    115.2712               161.4931               211.8909
 Red. masses --      3.7546                 3.0746                 1.4028
 Frc consts  --      0.0294                 0.0472                 0.0371
 IR Inten    --      0.5950                 4.8876                 0.1142

                      7                      8                      9
                      A                      A                      A
 Frequencies --    219.4556               238.5417               244.3974
 Red. masses --      1.1085                 1.0824                 1.5833
 Frc consts  --      0.0315                 0.0363                 0.0557
 IR Inten    --      0.1634                 0.0765                 0.9094

                     10                     11                     12
                      A                      A                      A
 Frequencies --    267.3278               285.6267               351.6298
 Red. masses --      1.4503                 2.3441                 2.2400
 Frc consts  --      0.0611                 0.1127                 0.1632
 IR Inten    --      0.2723                 1.9798                 1.4793

                     13                     14                     15
                      A                      A                      A
 Frequencies --    369.3784               399.2620               416.5754
 Red. masses --      2.0645                 2.2063                 2.3176
 Frc consts  --      0.1660                 0.2072                 0.2370
 IR Inten    --      1.1471                 1.9778                 1.1890

                     16                     17                     18
                      A                      A                      A
 Frequencies --    445.6105               465.0071               487.6429
 Red. masses --      2.1882                 1.5490                 2.6853
 Frc consts  --      0.2560                 0.1973                 0.3762
 IR Inten    --     20.1092                82.2574                 1.1212

                     19                     20                     21
                      A                      A                      A
 Frequencies --    505.4038               668.3336               804.1771
 Red. masses --      2.3283                 3.3269                 2.3066
 Frc consts  --      0.3504                 0.8755                 0.8789
 IR Inten    --     35.9006                 5.0368                11.4480

                     22                     23                     24
                      A                      A                      A
 Frequencies --    861.1715               908.0860               940.2482
 Red. masses --      2.5057                 2.5212                 1.3276
 Frc consts  --      1.0949                 1.2249                 0.6915
 IR Inten    --      4.0308                 6.3887                 1.9964

                     25                     26                     27
                      A                      A                      A
 Frequencies --    942.5087               948.2507               960.8018
 Red. masses --      1.2536                 1.6215                 1.6213
 Frc consts  --      0.6561                 0.8590                 0.8818
 IR Inten    --      3.2589                 1.1930                 1.4867

                     28                     29                     30
                      A                      A                      A
 Frequencies --    965.3846               979.8478              1032.4832
 Red. masses --      1.9052                 1.4588                 1.8092
 Frc consts  --      1.0462                 0.8252                 1.1363
 IR Inten    --     18.4421                 4.6177                46.8755

                     31                     32                     33
                      A                      A                      A
 Frequencies --   1095.8531              1117.3040              1156.0764
 Red. masses --      2.2641                 3.3029                 1.8904
 Frc consts  --      1.6019                 2.4293                 1.4886
 IR Inten    --     71.0975                49.9928                 7.7112

                     34                     35                     36
                      A                      A                      A
 Frequencies --   1168.6263              1171.1836              1194.7476
 Red. masses --      2.1223                 2.2364                 2.2194
 Frc consts  --      1.7077                 1.8074                 1.8666
 IR Inten    --     18.7828                83.7322                56.1450

                     37                     38                     39
                      A                      A                      A
 Frequencies --   1205.8237              1215.7240              1272.4168
 Red. masses --      1.6883                 1.9607                 1.2679
 Frc consts  --      1.4464                 1.7074                 1.2095
 IR Inten    --     10.0907                16.1430                19.0539

                     40                     41                     42
                      A                      A                      A
 Frequencies --   1299.5642              1325.6619              1371.6912
 Red. masses --      1.3118                 1.4416                 1.3871
 Frc consts  --      1.3053                 1.4927                 1.5378
 IR Inten    --     13.3682                 2.3383                 3.5029

                     43                     44                     45
                      A                      A                      A
 Frequencies --   1380.7645              1389.7708              1412.1452
 Red. masses --      1.2282                 1.3232                 1.4234
 Frc consts  --      1.3796                 1.5058                 1.6724
 IR Inten    --     49.6957                12.1572                 3.6169

                     46                     47                     48
                      A                      A                      A
 Frequencies --   1424.6679              1427.6230              1438.3942
 Red. masses --      1.2677                 1.3284                 1.2984
 Frc consts  --      1.5160                 1.5952                 1.5827
 IR Inten    --      3.1393                19.1257                16.8841

                     49                     50                     51
                      A                      A                      A
 Frequencies --   1444.3308              1445.7670              1454.4437
 Red. masses --      1.2692                 1.2667                 1.3395
 Frc consts  --      1.5599                 1.5600                 1.6695
 IR Inten    --     17.9791                12.3256                44.5266

                     52                     53                     54
                      A                      A                      A
 Frequencies --   1512.1576              1516.0231              1520.2557
 Red. masses --      1.0495                 1.0492                 1.0518
 Frc consts  --      1.4140                 1.4208                 1.4323
 IR Inten    --      1.3329                 0.9227                 1.8625

                     55                     56                     57
                      A                      A                      A
 Frequencies --   1523.4751              1526.5442              1533.3984
 Red. masses --      1.0491                 1.0520                 1.0523
 Frc consts  --      1.4346                 1.4444                 1.4578
 IR Inten    --      1.5238                 5.2142                 2.1096

                     58                     59                     60
                      A                      A                      A
 Frequencies --   1538.7971              1543.7761              1554.3977
 Red. masses --      1.0538                 1.0600                 1.0703
 Frc consts  --      1.4702                 1.4885                 1.5237
 IR Inten    --      0.5978                15.4734                11.8069

                     61                     62                     63
                      A                      A                      A
 Frequencies --   2983.5842              3010.2062              3037.0684
 Red. masses --      1.0834                 1.0623                 1.0482
 Frc consts  --      5.6824                 5.6714                 5.6964
 IR Inten    --     38.5533                40.8706                16.4491

                     64                     65                     66
                      A                      A                      A
 Frequencies --   3037.4472              3041.6266              3052.3279
 Red. masses --      1.0672                 1.0507                 1.0432
 Frc consts  --      5.8011                 5.7272                 5.7263
 IR Inten    --      4.4811                18.9848                 7.9277

                     67                     68                     69
                      A                      A                      A
 Frequencies --   3055.5825              3058.4497              3064.2591
 Red. masses --      1.0804                 1.0389                 1.0874
 Frc consts  --      5.9433                 5.7258                 6.0159
 IR Inten    --     40.2618                29.9768                70.1045

                     70                     71                     72
                      A                      A                      A
 Frequencies --   3098.6579              3106.0012              3120.4074
 Red. masses --      1.0992                 1.0985                 1.1013
 Frc consts  --      6.2185                 6.2438                 6.3182
 IR Inten    --      4.2906                74.2741                46.7390

                     73                     74                     75
                      A                      A                      A
 Frequencies --   3122.9629              3127.4562              3131.2784
 Red. masses --      1.1027                 1.1023                 1.1024
 Frc consts  --      6.3366                 6.3523                 6.3686
 IR Inten    --      3.4327                27.1433                45.4533

                     76                     77                     78
                      A                      A                      A
 Frequencies --   3134.5986              3144.8515              3700.4421
 Red. masses --      1.1030                 1.0991                 1.0649
 Frc consts  --      6.3855                 6.4048                 8.5918
 IR Inten    --     33.6326                17.5863                31.5410

 - Thermochemistry -
 -------------------
 Temperature   298.150 Kelvin.  Pressure   1.00000 Atm.
 Atom     1 has atomic number  6 and mass  12.00000

 Molecular mass:   146.13068 amu.
 Principal axes and moments of inertia in atomic units:
                           1         2         3
     Eigenvalues --   846.647672653.632852990.83389
           X            0.99996   0.00919  -0.00229
           Y           -0.00910   0.99928   0.03690
           Z            0.00263  -0.03687   0.99932
 This molecule is an asymmetric top.
 Rotational symmetry number  1.
 Warning -- assumption of classical behavior for rotation
           may cause significant error
 Rotational temperatures (Kelvin)      0.10230     0.03264     0.02896
 Rotational constants (GHZ):           2.13163     0.68010     0.60342
 Zero-point vibrational energy     673160.1 (Joules/Mol)
                                  160.88913 (Kcal/Mol)
 Warning -- explicit consideration of  19 degrees of freedom as
           vibrations may cause significant error
 Vibrational temperatures:     40.40    56.23   103.60   165.85   232.35
          (Kelvin)            304.86   315.75   343.21   351.63   384.63
                              410.95   505.92   531.45   574.45   599.36
                              641.13   669.04   701.61   727.16   961.58
                             1157.03  1239.03  1306.53  1352.81  1356.06
                             1364.32  1382.38  1388.97  1409.78  1485.51
                             1576.69  1607.55  1663.34  1681.39  1685.07
                             1718.98  1734.91  1749.16  1830.72  1869.78
                             1907.33  1973.56  1986.61  1999.57  2031.76
                             2049.78  2054.03  2069.53  2078.07  2080.14
                             2092.62  2175.66  2181.22  2187.31  2191.94
                             2196.36  2206.22  2213.99  2221.15  2236.43
                             4292.71  4331.02  4369.66  4370.21  4376.22
                             4391.62  4396.30  4400.43  4408.79  4458.28
                             4468.84  4489.57  4493.25  4499.71  4505.21
                             4509.99  4524.74  5324.11

 Zero-point correction=                           0.256393 (Hartree/Particle)
 Thermal correction to Energy=                    0.269242
 Thermal correction to Enthalpy=                  0.270186
 Thermal correction to Gibbs Free Energy=         0.216861
 Sum of electronic and zero-point Energies=           -465.917022
 Sum of electronic and thermal Energies=              -465.904173
 Sum of electronic and thermal Enthalpies=            -465.903229
 Sum of electronic and thermal Free Energies=         -465.956554

                     E (Thermal)             CV                S
                      KCal/Mol        Cal/Mol-Kelvin    Cal/Mol-Kelvin
 Total                  168.952             46.951            112.233
 Electronic               0.000              0.000              0.000
 Translational            0.889              2.981             40.849
 Rotational               0.889              2.981             30.286
 Vibrational            167.174             40.989             41.098
 Vibration     1          0.593              1.984              5.961
 Vibration     2          0.594              1.981              5.305
 Vibration     3          0.598              1.967              4.098
 Vibration     4          0.608              1.937              3.178
 Vibration     5          0.622              1.890              2.532
 Vibration     6          0.643              1.823              2.027
 Vibration     7          0.647              1.811              1.964
 Vibration     8          0.657              1.782              1.814
 Vibration     9          0.660              1.772              1.771
 Vibration    10          0.672              1.733              1.613
 Vibration    11          0.683              1.700              1.500
 Vibration    12          0.728              1.572              1.159
 Vibration    13          0.742              1.535              1.082
 Vibration    14          0.765              1.472              0.965
 Vibration    15          0.780              1.434              0.904
 Vibration    16          0.805              1.371              0.809
 Vibration    17          0.822              1.328              0.752
 Vibration    18          0.844              1.277              0.690
 Vibration    19          0.861              1.238              0.645

                           ! Non-Optimized Parameters !

 1\1\GINC-NODE111\Freq\RB3LYP\6-31G(d)\C8H18O2\VSC10255\08-Dec-2020\0\\
 #N Geom=AllCheck Guess=TCheck SCRF=Check GenChk RB3LYP/6-31G(d) Freq\\
 CID_21868760_JID_274_neutraal\\0,1\C,0.9973070699,0.1007794216,0.18063
 24861\C,0.4427838386,-1.3218742529,0.0318031618\C,0.4122407004,-2.0445
 378046,1.3830388681\C,-0.9627941267,-1.3395450221,-0.6056536417\C,-1.0
 393152029,-0.6233401915,-1.9516186825\O,-0.1803446429,-1.333546193,-2.
 8335781257\C,-0.3002415434,-0.9952805875,-4.2169286578\C,0.3124195413,
 0.3747543574,-4.5095418225\C,0.3888317966,-2.1122401524,-4.9896292516\

 Normal termination of Gaussian 16 at Tue Dec  8 10:28:18 2020.

 ----------------------------------------------------------------------
 # B3LYP/6-311++G(d,p) empiricaldispersion=gd3bj scf=xqc pop=npa geom=c
 heck
 ----------------------------------------------------------------------

 -------------------------------------
 CID_21868760_JID_274_Energie_neutraal
 -------------------------------------
 Structure from the checkpoint file:  "JID_274.chk"
 Charge =  0 Multiplicity = 1

 SCF Done:  E(RB3LYP) =  -466.320166861     A.U. after   13 cycles
 Normal termination of Gaussian 16 at Tue Dec  8 10:30:46 2020.

 ----------------------------------------------------------------------
 # B3LYP/6-311++G(d,p) empiricaldispersion=gd3bj scf=xqc pop=npa geom=c
 heck
 ----------------------------------------------------------------------

 -----------------------------------
 CID_21868760_JID_274_Energie_kation
 -----------------------------------
 Structure from the checkpoint file:  "JID_274.chk"
 Charge =  1 Multiplicity = 2

 SCF Done:  E(UB3LYP) =  -465.978727900     A.U. after   23 cycles
 Normal termination of Gaussian 16 at Tue Dec  8 10:38:09 2020.
 Gaussian 16:  ES64L-G16RevA.03 25-Dec-2016

 ----------------------------------
 CID_21868760_JID_274_Energie_anion
 ----------------------------------
 Structure from the checkpoint file:  "JID_274.chk"
 Charge = -1 Multiplicity = 2

                         Standard orientation:
 ---------------------------------------------------------------------
 Center     Atomic      Atomic             Coordinates (Angstroms)
 Number     Number       Type             X           Y           Z
 ---------------------------------------------------------------------
      1          6           0        1.889943    1.835712   -0.203314
      2          6           0        1.883157    0.320594   -0.444060
      3          6           0        3.300726   -0.201729   -0.702307
      4          6           0        1.241732   -0.456007    0.725460
      5          6           0       -0.170629    0.007325    1.073291
      6          8           0       -0.970115   -0.245880   -0.074221
      7          6           0       -2.381465   -0.132559    0.119963
      8          6           0       -2.808085    1.329157    0.259081
      9          6           0       -3.031946   -0.811802   -1.077948
     10          8           0        1.205996   -1.856281    0.455823
     11          1           0        2.377236    2.083543    0.749207
     12          1           0        0.878183    2.253564   -0.187016
     13          1           0        2.445332    2.347063   -0.997473
     14          1           0        1.267567    0.118669   -1.331016
     15          1           0        3.960107    0.030719    0.144732
     16          1           0        3.294762   -1.286298   -0.836350
     17          1           0        3.732533    0.261845   -1.596650
     18          1           0        1.870911   -0.336183    1.617670
     19          1           0       -0.542834   -0.579503    1.927103
     20          1           0       -0.188781    1.068701    1.352347
     21          1           0       -2.651061   -0.677822    1.040074
     22          1           0       -2.347007    1.805171    1.130381
     23          1           0       -2.515609    1.890427   -0.635393
     24          1           0       -3.894935    1.402451    0.375575
     25          1           0       -4.123029   -0.794225   -0.987987
     26          1           0       -2.751281   -0.295376   -2.002470
     27          1           0       -2.703902   -1.853288   -1.152323
     28          1           0        0.464156   -1.966315   -0.164218
 ---------------------------------------------------------------------

 SCF Done:  E(UB3LYP) =  -466.303284270     A.U. after   27 cycles

 The electronic state is 2-A.
 Alpha  occ. eigenvalues --  -19.02490 -19.01670 -10.12016 -10.11817 -10.11168
 Alpha  occ. eigenvalues --  -10.07106 -10.05645 -10.05610 -10.05605 -10.05152
 Alpha  occ. eigenvalues --   -0.94382  -0.91512  -0.70547  -0.68035  -0.61674
 Alpha  occ. eigenvalues --   -0.58675  -0.58269  -0.52852  -0.48958  -0.46323
 Alpha  occ. eigenvalues --   -0.40496  -0.39188  -0.37707  -0.36755  -0.34677
 Alpha  occ. eigenvalues --   -0.32871  -0.31686  -0.30561  -0.29779  -0.28528
 Alpha  occ. eigenvalues --   -0.28410  -0.28178  -0.26912  -0.25456  -0.24860
 Alpha  occ. eigenvalues --   -0.23954  -0.23371  -0.21759  -0.21649  -0.17180
 Alpha  occ. eigenvalues --   -0.16367   0.04771
 Alpha virt. eigenvalues --    0.06802   0.07545   0.08200   0.09132   0.09366
 Alpha virt. eigenvalues --    0.09665   0.10548   0.11174   0.11807   0.12081
 Alpha virt. eigenvalues --    0.12159   0.13136   0.13349   0.14366   0.15048

  Beta  occ. eigenvalues --  -19.02480 -19.01663 -10.12000 -10.11810 -10.11147
  Beta  occ. eigenvalues --  -10.07101 -10.05613 -10.05594 -10.05568 -10.05102
  Beta  occ. eigenvalues --   -0.94365  -0.91497  -0.70522  -0.67994  -0.61630
  Beta  occ. eigenvalues --   -0.58595  -0.58217  -0.52806  -0.48893  -0.46266
  Beta  occ. eigenvalues --   -0.40444  -0.39153  -0.37682  -0.36707  -0.34631
  Beta  occ. eigenvalues --   -0.32836  -0.31642  -0.30522  -0.29743  -0.28482
  Beta  occ. eigenvalues --   -0.28381  -0.28132  -0.26874  -0.25408  -0.24827
  Beta  occ. eigenvalues --   -0.23921  -0.23328  -0.21733  -0.21597  -0.17163
  Beta  occ. eigenvalues --   -0.16344
  Beta virt. eigenvalues --    0.06970   0.07733   0.08215   0.08724   0.09801
  Beta virt. eigenvalues --    0.09946   0.10145   0.10901   0.11703   0.12198
  Beta virt. eigenvalues --    0.12506   0.12545   0.13390   0.13739   0.14714

 Mulliken charges and spin densities:
               1          2
     1  C    0.924409  -1.569469
     2  C   -1.096392   1.522566
     3  C    0.180264  -0.744235
     4  C    0.902780  -1.341387
     5  C   -0.347645  -0.093731
     6  O   -0.056341   0.032205
     7  C   -1.369677   1.394514
     8  C    1.771219  -2.164641
     9  C    0.569334  -1.083159
    10  O   -0.194698   0.011366
    11  H   -0.347722   0.491453
    12  H   -0.021044   0.167686
    13  H   -0.206532   0.343894
    14  H    0.103380   0.077944
    15  H    0.009773   0.113106
    16  H    0.022680   0.124050
    17  H   -0.062522   0.191125
    18  H   -0.119039   0.324576
    19  H   -0.203896   0.385486
    20  H    0.307664  -0.181651
    21  H    0.093318   0.023420
    22  H   -0.895155   1.041802
    23  H   -0.047053   0.191545
    24  H   -0.421773   0.572860
    25  H   -0.339367   0.484852
    26  H   -0.085938   0.228825
    27  H   -0.314676   0.448185
    28  H    0.244645   0.006814
 Sum of Mulliken charges =  -1.00000   1.00000

 Dipole moment (field-independent basis, Debye):
    X=              3.9837    Y=             -2.5720    Z=             -1.1321  Tot=              4.8751
 Quadrupole moment (field-independent basis, Debye-Ang):
   XX=           -139.9698   YY=           -108.9804   ZZ=            -96.9712
   XY=              1.7142   XZ=              0.7203   YZ=             -2.8389

 Summary of Natural Population Analysis:

                                       Natural Population
                Natural  -----------------------------------------------
    Atom  No    Charge         Core      Valence    Rydberg      Total
 -----------------------------------------------------------------------
      C    1   -0.28736      0.99965     2.28146    0.00625     3.28736
      C    2   -0.12697      0.99959     2.11552    0.01186     3.12697
      C    3   -0.28425      0.99965     2.27973    0.00488     3.28425
      C    4    0.05987      0.99953     1.92633    0.01427     2.94013
      C    5   -0.01938      0.99955     2.00786    0.01198     3.01938
      O    6   -0.31716      0.99987     3.30676    0.01053     4.31716
      C    7    0.06701      0.99958     1.92035    0.01307     2.93299
      C    8   -0.29807      0.99964     2.29251    0.00592     3.29807
      C    9   -0.28950      0.99964     2.28355    0.00631     3.28950
      O   10   -0.37601      0.99990     3.36933    0.00678     4.37601
      H   11    0.09632      0.00000     0.40239    0.00129     0.40368
      H   12    0.10352      0.00000     0.39514    0.00134     0.39648
      H   13    0.09938      0.00000     0.39959    0.00103     0.40062
      H   14    0.09918      0.00000     0.39909    0.00173     0.40082
      H   15    0.09381      0.00000     0.40518    0.00101     0.40619
      H   16    0.10615      0.00000     0.39273    0.00112     0.39385
      H   17    0.09588      0.00000     0.40322    0.00089     0.40412
      H   18    0.08689      0.00000     0.41184    0.00127     0.41311
      H   19    0.08420      0.00000     0.41430    0.00150     0.41580
      H   20    0.08851      0.00000     0.40967    0.00182     0.41149
      H   21    0.07652      0.00000     0.42087    0.00262     0.42348
      H   22    0.10238      0.00000     0.39564    0.00199     0.39762
      H   23    0.09986      0.00000     0.39881    0.00133     0.40014
      H   24    0.10439      0.00000     0.39347    0.00214     0.39561
      H   25    0.10295      0.00000     0.39569    0.00136     0.39705
      H   26    0.09963      0.00000     0.39918    0.00119     0.40037
      H   27    0.10045      0.00000     0.39827    0.00127     0.39955
      H   28    0.23180      0.00000     0.26499    0.00321     0.26820
 =======================================================================
   * Total *    0.00000      9.99660    30.88346    0.11994    41.00000

 Normal termination of Gaussian 16 at Tue Dec  8 10:47:49 2020.
