 Gaussian 16, Revision A.03,

 -----------------------------------------------------------
 # opt freq B3LYP/6-31G(d) empiricaldispersion=gd3bj scf=xqc
 -----------------------------------------------------------

 ------------------------------
 CID_61900867_JID_1624_neutraal
 ------------------------------
 Symbolic Z-matrix:
 Charge =  0 Multiplicity = 1

 SCF Done:  E(RB3LYP) =  -567.211077059     A.U. after   15 cycles
 SCF Done:  E(RB3LYP) =  -567.215568148     A.U. after   12 cycles
 SCF Done:  E(RB3LYP) =  -567.215788471     A.U. after   12 cycles
 SCF Done:  E(RB3LYP) =  -567.216384178     A.U. after   12 cycles
 SCF Done:  E(RB3LYP) =  -567.216570867     A.U. after   11 cycles
 SCF Done:  E(RB3LYP) =  -567.216649368     A.U. after   11 cycles
 SCF Done:  E(RB3LYP) =  -567.216685068     A.U. after   11 cycles
 SCF Done:  E(RB3LYP) =  -567.216707519     A.U. after   11 cycles
 SCF Done:  E(RB3LYP) =  -567.216729662     A.U. after   11 cycles
 SCF Done:  E(RB3LYP) =  -567.216736613     A.U. after    8 cycles
 SCF Done:  E(RB3LYP) =  -567.216738704     A.U. after    8 cycles
 SCF Done:  E(RB3LYP) =  -567.216739372     A.U. after    8 cycles
 SCF Done:  E(RB3LYP) =  -567.216739436     A.U. after    7 cycles
 Optimization completed.
    -- Stationary point found.
 Normal termination of Gaussian 16 at Tue Dec  8 20:32:46 2020.

 --------------------------------------------------------------------
 #N Geom=AllCheck Guess=TCheck SCRF=Check GenChk RB3LYP/6-31G(d) Freq
 --------------------------------------------------------------------

 Structure from the checkpoint file:  "JID_1624.chk"
 ------------------------------
 CID_61900867_JID_1624_neutraal
 ------------------------------
 Charge =  0 Multiplicity = 1

 SCF Done:  E(RB3LYP) =  -567.216739436     A.U. after    1 cycles

  Exact polarizability: 107.949  -8.605  81.459   7.076  -5.175  68.150
 Approx polarizability: 144.577 -10.708 119.130  19.236 -12.034 106.819

                      1                      2                      3
                      A                      A                      A
 Frequencies --     36.5849                63.8840                77.4675
 Red. masses --      4.3428                 4.2032                 3.0203
 Frc consts  --      0.0034                 0.0101                 0.0107
 IR Inten    --      1.9994                 0.9786                 0.3560

                      4                      5                      6
                      A                      A                      A
 Frequencies --     90.9172               125.1603               200.2220
 Red. masses --      4.9895                 5.5738                 4.5120
 Frc consts  --      0.0243                 0.0514                 0.1066
 IR Inten    --      3.3952                 2.2293                 7.8579

                      7                      8                      9
                      A                      A                      A
 Frequencies --    238.8601               266.9183               296.1615
 Red. masses --      1.1485                 5.3131                 2.5219
 Frc consts  --      0.0386                 0.2230                 0.1303
 IR Inten    --      1.3125                 5.6462                34.8038

                     10                     11                     12
                      A                      A                      A
 Frequencies --    309.0562               354.0065               360.7108
 Red. masses --      1.6156                 2.7659                 2.4256
 Frc consts  --      0.0909                 0.2042                 0.1859
 IR Inten    --     80.1520                46.5430                 2.0048

                     13                     14                     15
                      A                      A                      A
 Frequencies --    427.0739               438.5234               467.2577
 Red. masses --      2.0033                 3.2918                 1.0968
 Frc consts  --      0.2153                 0.3730                 0.1411
 IR Inten    --      7.6406                20.0214                38.3669

                     16                     17                     18
                      A                      A                      A
 Frequencies --    503.0510               534.9326               555.8483
 Red. masses --      1.2819                 1.9757                 1.2803
 Frc consts  --      0.1911                 0.3331                 0.2331
 IR Inten    --    220.8706                28.4261                11.3057

                     19                     20                     21
                      A                      A                      A
 Frequencies --    570.6143               626.4711               653.8473
 Red. masses --      2.0985                 3.7320                 2.1455
 Frc consts  --      0.4026                 0.8630                 0.5404
 IR Inten    --     68.0063                45.1022               119.3945

                     22                     23                     24
                      A                      A                      A
 Frequencies --    712.5967               769.7805               790.2708
 Red. masses --      3.2054                 7.7032                 2.1985
 Frc consts  --      0.9590                 2.6894                 0.8090
 IR Inten    --     45.7776                28.1006                18.0031

                     25                     26                     27
                      A                      A                      A
 Frequencies --    804.7216               915.5255               940.7715
 Red. masses --      1.5400                 3.4114                 2.4996
 Frc consts  --      0.5876                 1.6847                 1.3034
 IR Inten    --      6.9079                 2.6764                17.0929

                     28                     29                     30
                      A                      A                      A
 Frequencies --    960.9630              1010.4378              1074.0674
 Red. masses --      4.4636                 2.4458                 2.1968
 Frc consts  --      2.4286                 1.4713                 1.4931
 IR Inten    --     47.4094                58.8514                11.9933

                     31                     32                     33
                      A                      A                      A
 Frequencies --   1108.7302              1131.3478              1143.1636
 Red. masses --      1.9474                 1.7763                 1.5390
 Frc consts  --      1.4105                 1.3395                 1.1850
 IR Inten    --     26.7208                18.4807                49.9593

                     34                     35                     36
                      A                      A                      A
 Frequencies --   1194.2589              1260.4155              1307.5296
 Red. masses --      1.7438                 2.6119                 1.4723
 Frc consts  --      1.4653                 2.4447                 1.4830
 IR Inten    --     10.3843                19.0508                14.3649

                     37                     38                     39
                      A                      A                      A
 Frequencies --   1353.0381              1369.8309              1380.2221
 Red. masses --      1.5274                 1.6044                 1.3868
 Frc consts  --      1.6475                 1.7738                 1.5566
 IR Inten    --     92.1887                57.6766                23.7457

                     40                     41                     42
                      A                      A                      A
 Frequencies --   1409.4574              1437.2174              1443.9289
 Red. masses --      1.2860                 1.2968                 2.0245
 Frc consts  --      1.5053                 1.5782                 2.4869
 IR Inten    --     17.0535                21.6441                39.1011

                     43                     44                     45
                      A                      A                      A
 Frequencies --   1464.3748              1500.6770              1522.1024
 Red. masses --      2.1672                 1.0804                 1.0482
 Frc consts  --      2.7381                 1.4335                 1.4308
 IR Inten    --    117.0057                 9.5046                 3.9380

                     46                     47                     48
                      A                      A                      A
 Frequencies --   1527.7930              1535.8989              1652.4246
 Red. masses --      1.1678                 1.0739                 1.2101
 Frc consts  --      1.6061                 1.4926                 1.9467
 IR Inten    --     61.6410                12.9563                66.7806

                     49                     50                     51
                      A                      A                      A
 Frequencies --   1672.3194              1750.0245              1789.3015
 Red. masses --      1.2350                 5.4817                 7.1831
 Frc consts  --      2.0350                 9.8913                13.5497
 IR Inten    --    148.2779               100.6244               363.5553

                     52                     53                     54
                      A                      A                      A
 Frequencies --   3051.2853              3059.1696              3073.7212
 Red. masses --      1.0373                 1.0692                 1.0599
 Frc consts  --      5.6901                 5.8952                 5.9001
 IR Inten    --     20.4620                30.4745                16.7455

                     55                     56                     57
                      A                      A                      A
 Frequencies --   3111.9545              3119.6380              3141.4776
 Red. masses --      1.1014                 1.1063                 1.0981
 Frc consts  --      6.2846                 6.3434                 6.3847
 IR Inten    --     28.2194                 8.4699                17.0320

                     58                     59                     60
                      A                      A                      A
 Frequencies --   3154.8911              3545.4940              3559.0775
 Red. masses --      1.0988                 1.0519                 1.0461
 Frc consts  --      6.4438                 7.7909                 7.8069
 IR Inten    --     15.7995                71.1569                22.9809

                     61                     62                     63
                      A                      A                      A
 Frequencies --   3664.9377              3684.9939              3781.3763
 Red. masses --      1.0999                 1.0980                 1.0679
 Frc consts  --      8.7044                 8.7846                 8.9971
 IR Inten    --     41.0761                76.1279                76.2812

 - Thermochemistry -
 -------------------
 Temperature   298.150 Kelvin.  Pressure   1.00000 Atm.
 Atom     1 has atomic number  6 and mass  12.00000

 Molecular mass:   160.09603 amu.
 Principal axes and moments of inertia in atomic units:
                           1         2         3
     Eigenvalues --   972.816482710.974793200.55991
           X            0.99932  -0.03539  -0.01080
           Y            0.03528   0.99932  -0.01058
           Z            0.01117   0.01019   0.99989
 This molecule is an asymmetric top.
 Rotational symmetry number  1.
 Warning -- assumption of classical behavior for rotation
           may cause significant error
 Rotational temperatures (Kelvin)      0.08903     0.03195     0.02706
 Rotational constants (GHZ):           1.85517     0.66572     0.56388
 Zero-point vibrational energy     508884.1 (Joules/Mol)
                                  121.62622 (Kcal/Mol)
 Warning -- explicit consideration of  19 degrees of freedom as
           vibrations may cause significant error
 Vibrational temperatures:     52.64    91.91   111.46   130.81   180.08
          (Kelvin)            288.07   343.67   384.04   426.11   444.66
                              509.34   518.98   614.46   630.94   672.28
                              723.78   769.65   799.74   820.99   901.35
                              940.74  1025.27  1107.54  1137.02  1157.81
                             1317.24  1353.56  1382.61  1453.79  1545.34
                             1595.22  1627.76  1644.76  1718.27  1813.46
                             1881.24  1946.72  1970.88  1985.83  2027.89
                             2067.84  2077.49  2106.91  2159.14  2189.97
                             2198.15  2209.82  2377.47  2406.09  2517.89
                             2574.41  4390.12  4401.46  4422.40  4477.41
                             4488.46  4519.89  4539.18  5101.18  5120.72
                             5273.03  5301.88  5440.56

 Zero-point correction=                           0.193824 (Hartree/Particle)
 Thermal correction to Energy=                    0.206222
 Thermal correction to Enthalpy=                  0.207166
 Thermal correction to Gibbs Free Energy=         0.154882
 Sum of electronic and zero-point Energies=           -567.022916
 Sum of electronic and thermal Energies=              -567.010517
 Sum of electronic and thermal Enthalpies=            -567.009573
 Sum of electronic and thermal Free Energies=         -567.061858

                     E (Thermal)             CV                S
                      KCal/Mol        Cal/Mol-Kelvin    Cal/Mol-Kelvin
 Total                  129.406             45.502            110.043
 Electronic               0.000              0.000              0.000
 Translational            0.889              2.981             41.121
 Rotational               0.889              2.981             30.513
 Vibrational            127.629             39.541             38.409
 Vibration     1          0.594              1.982              5.436
 Vibration     2          0.597              1.972              4.333
 Vibration     3          0.599              1.964              3.954
 Vibration     4          0.602              1.956              3.640
 Vibration     5          0.610              1.928              3.019
 Vibration     6          0.638              1.840              2.131
 Vibration     7          0.657              1.781              1.811
 Vibration     8          0.672              1.734              1.616
 Vibration     9          0.690              1.681              1.439
 Vibration    10          0.698              1.656              1.367
 Vibration    11          0.730              1.567              1.148
 Vibration    12          0.735              1.553              1.119
 Vibration    13          0.789              1.411              0.868
 Vibration    14          0.799              1.386              0.831
 Vibration    15          0.825              1.323              0.745
 Vibration    16          0.858              1.243              0.651
 Vibration    17          0.890              1.173              0.576
 Vibration    18          0.911              1.127              0.532
 Vibration    19          0.927              1.095              0.503

 Optimization completed.
    -- Stationary point found.
 Normal termination of Gaussian 16 at Tue Dec  8 20:38:11 2020.

 ----------------------------------------------------------------------
 # B3LYP/6-311++G(d,p) empiricaldispersion=gd3bj scf=xqc pop=npa geom=c
 heck
 ----------------------------------------------------------------------

 --------------------------------------
 CID_61900867_JID_1624_Energie_neutraal
 --------------------------------------
 Structure from the checkpoint file:  "JID_1624.chk"
 Charge =  0 Multiplicity = 1

 SCF Done:  E(RB3LYP) =  -567.408980208     A.U. after   14 cycles
 Normal termination of Gaussian 16 at Tue Dec  8 20:40:05 2020.

 ----------------------------------------------------------------------
 # B3LYP/6-311++G(d,p) empiricaldispersion=gd3bj scf=xqc pop=npa geom=c
 heck
 ----------------------------------------------------------------------

 ------------------------------------
 CID_61900867_JID_1624_Energie_kation
 ------------------------------------
 Structure from the checkpoint file:  "JID_1624.chk"
 Charge =  1 Multiplicity = 2

 SCF Done:  E(UB3LYP) =  -567.091785797     A.U. after   26 cycles
 Normal termination of Gaussian 16 at Tue Dec  8 20:48:54 2020.
 Gaussian 16:  ES64L-G16RevA.03 25-Dec-2016

 ----------------------------------------------------------------------
 # B3LYP/6-311++G(d,p) empiricaldispersion=gd3bj scf=xqc pop=npa geom=c
 heck
 ----------------------------------------------------------------------

 -----------------------------------
 CID_61900867_JID_1624_Energie_anion
 -----------------------------------
 Structure from the checkpoint file:  "JID_1624.chk"
 Charge = -1 Multiplicity = 2

                         Standard orientation:
 ---------------------------------------------------------------------
 Center     Atomic      Atomic             Coordinates (Angstroms)
 Number     Number       Type             X           Y           Z
 ---------------------------------------------------------------------
      1          6           0        3.022543   -1.238003   -0.698392
      2          6           0        2.015247   -1.072917    0.440011
      3          7           0        0.902582   -0.179082    0.103881
      4          6           0       -0.166964   -0.687538   -0.749915
      5          6           0       -1.520495   -0.555115   -0.090184
      6          7           0       -2.430327    0.083624   -0.746891
      7          8           0       -3.631273    0.119956    0.022599
      8          7           0       -1.682385   -1.146469    1.136660
      9          6           0        1.152466    1.188472    0.196422
     10          8           0        2.169683    1.629677    0.721990
     11          7           0        0.199373    2.011798   -0.367953
     12          1           0        2.547219   -1.644024   -1.599166
     13          1           0        3.827534   -1.921033   -0.404148
     14          1           0        3.464263   -0.267956   -0.943080
     15          1           0        1.587185   -2.041565    0.723443
     16          1           0        2.509630   -0.651682    1.316313
     17          1           0       -0.202116   -0.179881   -1.719303
     18          1           0        0.031104   -1.747752   -0.935193
     19          1           0       -4.231534    0.602253   -0.564378
     20          1           0       -0.840334   -1.180457    1.697979
     21          1           0       -2.510361   -0.850088    1.638490
     22          1           0       -0.755405    1.702370   -0.509033
     23          1           0        0.324055    2.984256   -0.126169
 ---------------------------------------------------------------------

 SCF Done:  E(UB3LYP) =  -567.397116978     A.U. after   31 cycles

 The electronic state is 2-A.
 Alpha  occ. eigenvalues --  -19.04850 -18.97929 -14.24076 -14.23910 -14.22422
 Alpha  occ. eigenvalues --  -14.22080 -10.19384 -10.13783 -10.12086 -10.10323
 Alpha  occ. eigenvalues --  -10.06537  -0.96648  -0.94682  -0.85111  -0.82117
 Alpha  occ. eigenvalues --   -0.79430  -0.73040  -0.66321  -0.61961  -0.54859
 Alpha  occ. eigenvalues --   -0.48716  -0.46436  -0.45281  -0.42918  -0.41884
 Alpha  occ. eigenvalues --   -0.40343  -0.37521  -0.35756  -0.34615  -0.33898
 Alpha  occ. eigenvalues --   -0.32257  -0.30942  -0.30189  -0.29436  -0.29288
 Alpha  occ. eigenvalues --   -0.27463  -0.25368  -0.22169  -0.18592  -0.17746
 Alpha  occ. eigenvalues --   -0.16647  -0.14742  -0.12675   0.04553
 Alpha virt. eigenvalues --    0.06503   0.07762   0.08426   0.08980   0.09808
 Alpha virt. eigenvalues --    0.10868   0.11539   0.12362   0.12630   0.13019
 Alpha virt. eigenvalues --    0.13739   0.14191   0.14524   0.16030   0.17268

  Beta  occ. eigenvalues --  -19.04791 -18.97925 -14.24050 -14.23910 -14.22405
  Beta  occ. eigenvalues --  -14.22007 -10.19382 -10.13781 -10.12071 -10.10295
  Beta  occ. eigenvalues --  -10.06515  -0.96549  -0.94673  -0.85072  -0.82041
  Beta  occ. eigenvalues --   -0.79404  -0.72921  -0.66277  -0.61919  -0.54807
  Beta  occ. eigenvalues --   -0.48651  -0.46397  -0.45208  -0.42848  -0.41827
  Beta  occ. eigenvalues --   -0.40279  -0.37482  -0.35720  -0.34558  -0.33869
  Beta  occ. eigenvalues --   -0.32226  -0.30919  -0.30148  -0.29393  -0.29248
  Beta  occ. eigenvalues --   -0.27420  -0.25339  -0.22100  -0.18506  -0.17729
  Beta  occ. eigenvalues --   -0.16634  -0.14730  -0.12616
  Beta virt. eigenvalues --    0.06980   0.07672   0.08650   0.09122   0.09557
  Beta virt. eigenvalues --    0.10538   0.11103   0.11632   0.12718   0.12922
  Beta virt. eigenvalues --    0.13170   0.14105   0.14383   0.14864   0.16136

 Mulliken charges and spin densities:
               1          2
     1  C    0.476732  -0.918267
     2  C   -0.072254  -0.130391
     3  N   -0.198775   0.239836
     4  C    2.443489  -3.097402
     5  C   -1.353769   1.325291
     6  N   -0.210647  -0.038604
     7  O   -0.149654   0.021217
     8  N   -0.238720  -0.108528
     9  C    0.106454   0.069510
    10  O   -0.391468   0.001328
    11  N   -0.416719   0.006359
    12  H   -0.020586   0.151925
    13  H   -0.214473   0.354983
    14  H    0.104971   0.057628
    15  H   -0.479936   0.625929
    16  H    0.019361   0.181993
    17  H    0.145142   0.101147
    18  H   -0.122585   0.312633
    19  H   -0.292157   0.575957
    20  H   -0.141665   0.410265
    21  H   -0.267324   0.566277
    22  H    0.184693   0.092706
    23  H    0.089892   0.198207
 Sum of Mulliken charges =  -1.00000   1.00000

 Dipole moment (field-independent basis, Debye):
    X=              3.4556    Y=              1.3438    Z=             -2.1789  Tot=              4.3005
 Quadrupole moment (field-independent basis, Debye-Ang):
   XX=           -135.3819   YY=           -102.7295   ZZ=            -95.4001
   XY=              1.7934   XZ=             -1.9310   YZ=              2.4244

 Summary of Natural Population Analysis:

                                       Natural Population
                Natural  -----------------------------------------------
    Atom  No    Charge         Core      Valence    Rydberg      Total
 -----------------------------------------------------------------------
      C    1   -0.29417      0.99966     2.28901    0.00550     3.29417
      C    2   -0.08375      0.99962     2.07249    0.01164     3.08375
      N    3   -0.27608      0.99965     2.76414    0.01229     3.77608
      C    4   -0.10889      0.99955     2.09727    0.01206     3.10889
      C    5    0.18989      0.99963     1.79128    0.01920     2.81011
      N    6   -0.13324      0.99960     2.61936    0.01428     3.63324
      O    7   -0.29982      0.99990     3.29244    0.00749     4.29982
      N    8   -0.39838      0.99969     2.88870    0.00999     3.89838
      C    9    0.40894      0.99968     1.56879    0.02258     2.59106
      O   10   -0.34512      0.99988     3.33974    0.00551     4.34512
      N   11   -0.42005      0.99971     2.91304    0.00730     3.92005
      H   12    0.09519      0.00000     0.40386    0.00095     0.40481
      H   13    0.10000      0.00000     0.39898    0.00102     0.40000
      H   14    0.10413      0.00000     0.39501    0.00086     0.39587
      H   15    0.09483      0.00000     0.40283    0.00234     0.40517
      H   16    0.10970      0.00000     0.38911    0.00119     0.39030
      H   17    0.10938      0.00000     0.38887    0.00175     0.39062
      H   18    0.11095      0.00000     0.38762    0.00143     0.38905
      H   19    0.24106      0.00000     0.24140    0.01754     0.25894
      H   20    0.19556      0.00000     0.29997    0.00447     0.30444
      H   21    0.20317      0.00000     0.29255    0.00428     0.29683
      H   22    0.20252      0.00000     0.29467    0.00280     0.29748
      H   23    0.19419      0.00000     0.30432    0.00149     0.30581
 =======================================================================
   * Total *   -0.00000     10.99659    31.83544    0.16797    43.00000

 Normal termination of Gaussian 16 at Tue Dec  8 20:56:37 2020.
