 Gaussian 16, Revision A.03,

 -----------------------------------------------------------
 # opt freq B3LYP/6-31G(d) empiricaldispersion=gd3bj scf=xqc
 -----------------------------------------------------------

 ------------------------------
 CID_65599391_JID_6649_neutraal
 ------------------------------
 Symbolic Z-matrix:
 Charge =  0 Multiplicity = 1

 SCF Done:  E(RB3LYP) =  -692.384285287     A.U. after   15 cycles
 SCF Done:  E(RB3LYP) =  -692.388347774     A.U. after   13 cycles
 SCF Done:  E(RB3LYP) =  -692.389124597     A.U. after   13 cycles
 SCF Done:  E(RB3LYP) =  -692.388930876     A.U. after   13 cycles
 SCF Done:  E(RB3LYP) =  -692.389379678     A.U. after   12 cycles
 SCF Done:  E(RB3LYP) =  -692.389418002     A.U. after   10 cycles
 SCF Done:  E(RB3LYP) =  -692.389420072     A.U. after    9 cycles
 SCF Done:  E(RB3LYP) =  -692.389420637     A.U. after    8 cycles
 SCF Done:  E(RB3LYP) =  -692.389420836     A.U. after    8 cycles
 SCF Done:  E(RB3LYP) =  -692.389420874     A.U. after    7 cycles
 Optimization completed.
    -- Stationary point found.
 Normal termination of Gaussian 16 at Fri Dec 11 00:09:09 2020.

 --------------------------------------------------------------------
 #N Geom=AllCheck Guess=TCheck SCRF=Check GenChk RB3LYP/6-31G(d) Freq
 --------------------------------------------------------------------

 Structure from the checkpoint file:  "JID_6649.chk"
 ------------------------------
 CID_65599391_JID_6649_neutraal
 ------------------------------
 Charge =  0 Multiplicity = 1

 SCF Done:  E(RB3LYP) =  -692.389420874     A.U. after    1 cycles

  Exact polarizability: 206.392 -28.266 141.121 -16.072 -20.260 100.498
 Approx polarizability: 306.385 -56.607 233.312 -32.658 -51.118 168.606

                      1                      2                      3
                      A                      A                      A
 Frequencies --     26.5926                34.2320                57.9069
 Red. masses --      4.8783                 3.7454                 3.0119
 Frc consts  --      0.0020                 0.0026                 0.0060
 IR Inten    --      0.4541                 0.0022                 0.5882

                      4                      5                      6
                      A                      A                      A
 Frequencies --     95.9292               103.3472               126.0363
 Red. masses --      5.9970                 4.0387                 3.9460
 Frc consts  --      0.0325                 0.0254                 0.0369
 IR Inten    --      1.5727                 0.4502                 1.4491

                      7                      8                      9
                      A                      A                      A
 Frequencies --    187.5141               231.8306               262.9550
 Red. masses --      3.5218                 3.2753                 4.3486
 Frc consts  --      0.0730                 0.1037                 0.1772
 IR Inten    --      3.4055                 0.8790                 2.6875

                     10                     11                     12
                      A                      A                      A
 Frequencies --    286.6130               339.3489               365.9662
 Red. masses --      5.6685                 3.4287                 2.1795
 Frc consts  --      0.2744                 0.2326                 0.1720
 IR Inten    --      0.6233                 0.9441                 1.3079

                     13                     14                     15
                      A                      A                      A
 Frequencies --    378.8143               437.9245               457.2898
 Red. masses --      4.8123                 3.1030                 2.8632
 Frc consts  --      0.4069                 0.3506                 0.3528
 IR Inten    --     12.1431                 4.8483                 0.2688

                     16                     17                     18
                      A                      A                      A
 Frequencies --    515.1509               574.9673               578.3954
 Red. masses --      3.6636                 5.0894                 3.9877
 Frc consts  --      0.5728                 0.9913                 0.7860
 IR Inten    --      4.9128                 8.8139                 0.9418

                     19                     20                     21
                      A                      A                      A
 Frequencies --    607.7419               625.5738               644.3205
 Red. masses --      5.5521                 6.4955                 4.5511
 Frc consts  --      1.2082                 1.4977                 1.1132
 IR Inten    --      0.8591                 4.2226                10.3069

                     22                     23                     24
                      A                      A                      A
 Frequencies --    750.6743               759.3415               763.6994
 Red. masses --      2.3435                 1.9540                 1.7498
 Frc consts  --      0.7781                 0.6638                 0.6013
 IR Inten    --      1.5737                11.2986                44.0058

                     25                     26                     27
                      A                      A                      A
 Frequencies --    768.8154               797.9958               824.4139
 Red. masses --      1.7334                 1.5863                 3.9095
 Frc consts  --      0.6036                 0.5952                 1.5655
 IR Inten    --      0.7457                 8.9258                 3.3217

                     28                     29                     30
                      A                      A                      A
 Frequencies --    839.8831               858.0213               876.4010
 Red. masses --      1.2317                 1.3311                 1.6008
 Frc consts  --      0.5119                 0.5774                 0.7244
 IR Inten    --     15.4199                11.2536                10.1898

                     31                     32                     33
                      A                      A                      A
 Frequencies --    883.7228               905.0708               917.0929
 Red. masses --      2.8622                 3.4753                 2.4128
 Frc consts  --      1.3170                 1.6773                 1.1956
 IR Inten    --     25.1442                 2.1245                13.1758

                     34                     35                     36
                      A                      A                      A
 Frequencies --    940.3332               946.3020               950.3981
 Red. masses --      1.3492                 2.9442                 3.7339
 Frc consts  --      0.7029                 1.5534                 1.9871
 IR Inten    --      2.6698                 7.1857                 6.9474

                     37                     38                     39
                      A                      A                      A
 Frequencies --    979.9207              1008.4848              1038.6047
 Red. masses --      1.2482                 2.1858                 2.1003
 Frc consts  --      0.7062                 1.3098                 1.3349
 IR Inten    --      0.0138                19.2888                 3.4387

                     40                     41                     42
                      A                      A                      A
 Frequencies --   1039.4271              1064.7784              1078.8494
 Red. masses --      2.1774                 1.4171                 1.7088
 Frc consts  --      1.3860                 0.9466                 1.1718
 IR Inten    --     17.7342                10.8577                 6.5113

                     43                     44                     45
                      A                      A                      A
 Frequencies --   1083.5170              1141.6647              1143.1254
 Red. masses --      1.6909                 1.3109                 1.4585
 Frc consts  --      1.1696                 1.0067                 1.1229
 IR Inten    --      0.3515                 1.3051                 5.3004

                     46                     47                     48
                      A                      A                      A
 Frequencies --   1159.1212              1172.5188              1188.0871
 Red. masses --      1.4065                 1.4885                 1.2412
 Frc consts  --      1.1134                 1.2057                 1.0322
 IR Inten    --      2.3270               105.1577                30.2426

                     49                     50                     51
                      A                      A                      A
 Frequencies --   1209.7751              1215.2645              1242.2321
 Red. masses --      1.4608                 2.0120                 1.8409
 Frc consts  --      1.2597                 1.7507                 1.6737
 IR Inten    --      2.2248                11.4360                 8.2018

                     52                     53                     54
                      A                      A                      A
 Frequencies --   1261.4959              1278.0446              1298.0857
 Red. masses --      1.8192                 1.4636                 2.8571
 Frc consts  --      1.7057                 1.4085                 2.8365
 IR Inten    --     18.6723                 9.6241                 4.2834

                     55                     56                     57
                      A                      A                      A
 Frequencies --   1315.8720              1353.2209              1367.1494
 Red. masses --      3.2322                 2.2654                 1.2726
 Frc consts  --      3.2974                 2.4442                 1.4014
 IR Inten    --     98.9045                 0.6881                14.4680

                     58                     59                     60
                      A                      A                      A
 Frequencies --   1373.0858              1408.1721              1443.3459
 Red. masses --      1.5577                 5.0119                 1.5732
 Frc consts  --      1.7303                 5.8555                 1.9309
 IR Inten    --     35.6522                13.4806                 0.9886

                     61                     62                     63
                      A                      A                      A
 Frequencies --   1486.3235              1496.3179              1506.6048
 Red. masses --      2.3551                 1.0895                 1.1452
 Frc consts  --      3.0654                 1.4372                 1.5316
 IR Inten    --      7.8715                 1.4599                 3.9431

                     64                     65                     66
                      A                      A                      A
 Frequencies --   1516.4245              1528.1192              1539.2497
 Red. masses --      1.1379                 2.7703                 1.3735
 Frc consts  --      1.5417                 3.8115                 1.9174
 IR Inten    --      6.8221                 8.6000                 0.4730

                     67                     68                     69
                      A                      A                      A
 Frequencies --   1612.8297              1640.3164              1672.6228
 Red. masses --      6.7560                 6.4345                 7.0142
 Frc consts  --     10.3542                10.2004                11.5617
 IR Inten    --    208.9052                 4.1792                15.1096

                     70                     71                     72
                      A                      A                      A
 Frequencies --   1764.6966              3043.6161              3077.4720
 Red. masses --     11.3169                 1.0602                 1.0694
 Frc consts  --     20.7644                 5.7865                 5.9674
 IR Inten    --    186.6406                35.2145                11.3612

                     73                     74                     75
                      A                      A                      A
 Frequencies --   3086.3390              3135.1451              3141.4394
 Red. masses --      1.0926                 1.1048                 1.0513
 Frc consts  --      6.1319                 6.3980                 6.1126
 IR Inten    --     19.5536                14.7115                27.3468

                     76                     77                     78
                      A                      A                      A
 Frequencies --   3145.6524              3150.2394              3193.5444
 Red. masses --      1.0605                 1.0877                 1.0860
 Frc consts  --      6.1825                 6.3598                 6.5259
 IR Inten    --     18.8889                11.1879                 1.0923

                     79                     80                     81
                      A                      A                      A
 Frequencies --   3204.9237              3215.5378              3215.8666
 Red. masses --      1.0900                 1.0964                 1.1176
 Frc consts  --      6.5962                 6.6794                 6.8099
 IR Inten    --     10.4952                24.3012                 1.5932

                     82                     83                     84
                      A                      A                      A
 Frequencies --   3227.7093              3230.2471              3287.1864
 Red. masses --      1.0953                 1.1155                 1.0967
 Frc consts  --      6.7232                 6.8579                 6.9819
 IR Inten    --      7.0623                26.4157                 0.2890

 - Thermochemistry -
 -------------------
 Temperature   298.150 Kelvin.  Pressure   1.00000 Atm.
 Atom     1 has atomic number  6 and mass  12.00000

 Molecular mass:   214.09938 amu.
 Principal axes and moments of inertia in atomic units:
                           1         2         3
     Eigenvalues --  1989.909285111.433536370.63288
           X            0.99988   0.01468  -0.00394
           Y           -0.01470   0.99989  -0.00319
           Z            0.00389   0.00325   0.99999
 This molecule is an asymmetric top.
 Rotational symmetry number  1.
 Warning -- assumption of classical behavior for rotation
           may cause significant error
 Rotational temperatures (Kelvin)      0.04353     0.01695     0.01360
 Rotational constants (GHZ):           0.90695     0.35308     0.28329
 Zero-point vibrational energy     650187.6 (Joules/Mol)
                                  155.39857 (Kcal/Mol)
 Warning -- explicit consideration of  19 degrees of freedom as
           vibrations may cause significant error
 Vibrational temperatures:     38.26    49.25    83.32   138.02   148.69
          (Kelvin)            181.34   269.79   333.55   378.33   412.37
                              488.25   526.54   545.03   630.08   657.94
                              741.19   827.25   832.18   874.41   900.06
                              927.03  1080.05  1092.52  1098.79  1106.15
                             1148.14  1186.15  1208.40  1234.50  1260.95
                             1271.48  1302.19  1319.49  1352.93  1361.52
                             1367.41  1409.89  1450.98  1494.32  1495.50
                             1531.98  1552.22  1558.94  1642.60  1644.70
                             1667.72  1686.99  1709.39  1740.60  1748.49
                             1787.29  1815.01  1838.82  1867.66  1893.25
                             1946.98  1967.02  1975.56  2026.05  2076.65
                             2138.49  2152.87  2167.67  2181.80  2198.62
                             2214.64  2320.50  2360.05  2406.53  2539.00
                             4379.08  4427.80  4440.55  4510.77  4519.83
                             4525.89  4532.49  4594.80  4611.17  4626.44
                             4626.91  4643.95  4647.61  4729.53

 Zero-point correction=                           0.247643 (Hartree/Particle)
 Thermal correction to Energy=                    0.261271
 Thermal correction to Enthalpy=                  0.262215
 Thermal correction to Gibbs Free Energy=         0.205435
 Sum of electronic and zero-point Energies=           -692.141777
 Sum of electronic and thermal Energies=              -692.128150
 Sum of electronic and thermal Enthalpies=            -692.127205
 Sum of electronic and thermal Free Energies=         -692.183986

                     E (Thermal)             CV                S
                      KCal/Mol        Cal/Mol-Kelvin    Cal/Mol-Kelvin
 Total                  163.950             52.994            119.505
 Electronic               0.000              0.000              0.000
 Translational            0.889              2.981             41.987
 Rotational               0.889              2.981             32.538
 Vibrational            162.173             47.032             44.980
 Vibration     1          0.593              1.984              6.069
 Vibration     2          0.594              1.983              5.568
 Vibration     3          0.596              1.974              4.527
 Vibration     4          0.603              1.952              3.535
 Vibration     5          0.605              1.947              3.390
 Vibration     6          0.611              1.927              3.006
 Vibration     7          0.632              1.857              2.252
 Vibration     8          0.653              1.792              1.865
 Vibration     9          0.670              1.741              1.642
 Vibration    10          0.684              1.699              1.494
 Vibration    11          0.719              1.597              1.215
 Vibration    12          0.739              1.542              1.097
 Vibration    13          0.749              1.515              1.044
 Vibration    14          0.798              1.388              0.833
 Vibration    15          0.815              1.345              0.774
 Vibration    16          0.870              1.216              0.621
 Vibration    17          0.931              1.085              0.495
 Vibration    18          0.935              1.078              0.488
 Vibration    19          0.967              1.015              0.437

                           ! Non-Optimized Parameters !
 Normal termination of Gaussian 16 at Fri Dec 11 00:19:43 2020.

 ----------------------------------------------------------------------
 # B3LYP/6-311++G(d,p) empiricaldispersion=gd3bj scf=xqc pop=npa geom=c
 heck
 ----------------------------------------------------------------------

 --------------------------------------
 CID_65599391_JID_6649_Energie_neutraal
 --------------------------------------
 Structure from the checkpoint file:  "JID_6649.chk"
 Charge =  0 Multiplicity = 1

 SCF Done:  E(RB3LYP) =  -692.572811708     A.U. after   15 cycles
 Normal termination of Gaussian 16 at Fri Dec 11 00:24:19 2020.

 ----------------------------------------------------------------------
 # B3LYP/6-311++G(d,p) empiricaldispersion=gd3bj scf=xqc pop=npa geom=c
 heck
 ----------------------------------------------------------------------

 ------------------------------------
 CID_65599391_JID_6649_Energie_kation
 ------------------------------------
 Structure from the checkpoint file:  "JID_6649.chk"
 Charge =  1 Multiplicity = 2

 SCF Done:  E(UB3LYP) =  -692.264758644     A.U. after   32 cycles
 Normal termination of Gaussian 16 at Fri Dec 11 00:38:08 2020.
 Gaussian 16:  ES64L-G16RevA.03 25-Dec-2016

 ----------------------------------------------------------------------
 # B3LYP/6-311++G(d,p) empiricaldispersion=gd3bj scf=xqc pop=npa geom=c
 heck
 ----------------------------------------------------------------------

 -----------------------------------
 CID_65599391_JID_6649_Energie_anion
 -----------------------------------
 Structure from the checkpoint file:  "JID_6649.chk"
 Charge = -1 Multiplicity = 2

                         Standard orientation:
 ---------------------------------------------------------------------
 Center     Atomic      Atomic             Coordinates (Angstroms)
 Number     Number       Type             X           Y           Z
 ---------------------------------------------------------------------
      1          6           0       -2.015805   -2.236812   -0.032061
      2          6           0       -3.123595   -2.292895   -1.057113
      3          6           0       -2.513910   -0.967797   -0.674623
      4          6           0       -3.301923    0.035027    0.142506
      5          6           0       -2.421301    0.886405    1.086908
      6          6           0       -1.419794    1.701498    0.290600
      7          8           0       -1.732539    2.739896   -0.278052
      8          6           0       -0.049298    1.185769    0.150203
      9          6           0        0.993476    1.652441   -0.599792
     10          6           0        2.082053    0.739141   -0.404666
     11          6           0        3.402295    0.631930   -0.874212
     12          6           0        4.170013   -0.442018   -0.443110
     13          6           0        3.649585   -1.407301    0.443704
     14          6           0        2.345794   -1.325190    0.925411
     15          6           0        1.592266   -0.243931    0.483249
     16          8           0        0.300040    0.026577    0.824451
     17          1           0       -1.030584   -2.602194   -0.306203
     18          1           0       -2.277929   -2.410270    1.008990
     19          1           0       -2.900560   -2.701175   -2.038816
     20          1           0       -4.130414   -2.507115   -0.706840
     21          1           0       -1.849558   -0.524123   -1.414380
     22          1           0       -3.855190    0.709619   -0.522565
     23          1           0       -4.045315   -0.494406    0.752003
     24          1           0       -3.053646    1.593191    1.633599
     25          1           0       -1.911918    0.234912    1.802140
     26          1           0        0.962089    2.539407   -1.215497
     27          1           0        3.809375    1.371013   -1.557460
     28          1           0        5.192520   -0.544865   -0.793696
     29          1           0        4.279935   -2.233748    0.757820
     30          1           0        1.932043   -2.059638    1.607683
 ---------------------------------------------------------------------

 SCF Done:  E(UB3LYP) =  -692.596275490     A.U. after   25 cycles

 The electronic state is 2-A.
 Alpha  occ. eigenvalues --  -19.03378 -18.92107 -10.09035 -10.06824 -10.06656
 Alpha  occ. eigenvalues --  -10.06361 -10.06316 -10.06146 -10.05261 -10.04325
 Alpha  occ. eigenvalues --  -10.04171 -10.04019 -10.03915 -10.03660 -10.03226
 Alpha  occ. eigenvalues --  -10.01296  -0.96258  -0.86205  -0.75201  -0.72129
 Alpha  occ. eigenvalues --   -0.65617  -0.64724  -0.61490  -0.59492  -0.54002
 Alpha  occ. eigenvalues --   -0.49980  -0.49568  -0.46390  -0.46056  -0.44587
 Alpha  occ. eigenvalues --   -0.39915  -0.38694  -0.37633  -0.35986  -0.34753
 Alpha  occ. eigenvalues --   -0.33758  -0.31912  -0.31352  -0.30050  -0.28955
 Alpha  occ. eigenvalues --   -0.28130  -0.26502  -0.26315  -0.26015  -0.24734
 Alpha  occ. eigenvalues --   -0.23774  -0.23060  -0.22434  -0.21789  -0.20791
 Alpha  occ. eigenvalues --   -0.20496  -0.18382  -0.16956  -0.15811  -0.11161
 Alpha  occ. eigenvalues --   -0.08864  -0.08781   0.03501
 Alpha virt. eigenvalues --    0.07927   0.08433   0.09347   0.09695   0.10508
 Alpha virt. eigenvalues --    0.10702   0.11616   0.11864   0.12752   0.12936
 Alpha virt. eigenvalues --    0.13159   0.13459   0.13726   0.14149   0.15198

  Beta  occ. eigenvalues --  -19.03232 -18.91516 -10.09045 -10.06655 -10.06511
  Beta  occ. eigenvalues --  -10.06313 -10.06209 -10.06145 -10.05221 -10.04386
  Beta  occ. eigenvalues --  -10.04091 -10.04059 -10.03751 -10.03449 -10.03257
  Beta  occ. eigenvalues --  -10.01073  -0.96013  -0.85143  -0.75190  -0.71926
  Beta  occ. eigenvalues --   -0.65229  -0.64534  -0.61297  -0.59038  -0.53690
  Beta  occ. eigenvalues --   -0.49632  -0.49560  -0.46222  -0.45861  -0.44392
  Beta  occ. eigenvalues --   -0.39482  -0.38660  -0.37386  -0.35832  -0.34668
  Beta  occ. eigenvalues --   -0.33574  -0.31230  -0.31213  -0.29905  -0.28608
  Beta  occ. eigenvalues --   -0.27948  -0.26288  -0.26086  -0.25830  -0.24559
  Beta  occ. eigenvalues --   -0.23629  -0.22757  -0.21727  -0.21491  -0.20474
  Beta  occ. eigenvalues --   -0.18962  -0.18212  -0.16675  -0.14646  -0.10528
  Beta  occ. eigenvalues --   -0.08235  -0.07105
  Beta virt. eigenvalues --    0.07852   0.08400   0.09221   0.09608   0.09732
  Beta virt. eigenvalues --    0.10480   0.10675   0.11596   0.12361   0.12715
  Beta virt. eigenvalues --    0.13089   0.13288   0.13457   0.14082   0.14527

 Mulliken charges and spin densities:
               1          2
     1  C   -0.506868  -0.001900
     2  C   -0.364201  -0.015646
     3  C    0.277641   0.089788
     4  C   -0.465184  -0.138579
     5  C   -0.117997   0.014355
     6  C   -0.148824   0.259143
     7  O   -0.410657   0.212030
     8  C   -0.446776   0.051511
     9  C    0.211284   0.216943
    10  C    0.748643  -0.033776
    11  C   -0.185707   0.184491
    12  C   -0.201207  -0.040406
    13  C   -0.246035   0.132028
    14  C   -0.344785   0.039770
    15  C   -0.643149  -0.038863
    16  O    0.017667   0.030580
    17  H    0.137536   0.004102
    18  H    0.133865  -0.001990
    19  H    0.119869  -0.000169
    20  H    0.101555   0.007549
    21  H    0.221572   0.002337
    22  H    0.164657  -0.009867
    23  H    0.063501   0.035378
    24  H    0.135528   0.039356
    25  H    0.128851  -0.000350
    26  H    0.162972  -0.013931
    27  H    0.109084  -0.011701
    28  H    0.105580   0.003229
    29  H    0.116710  -0.010246
    30  H    0.124875  -0.005168
 Sum of Mulliken charges =  -1.00000   1.00000

 Dipole moment (field-independent basis, Debye):
    X=             -0.5032    Y=             -5.0167    Z=              0.3162  Tot=              5.0518
 Quadrupole moment (field-independent basis, Debye-Ang):
   XX=           -131.1533   YY=           -124.0082   ZZ=           -102.9512
   XY=             10.2443   XZ=             -3.1500   YZ=             -0.3291

 Summary of Natural Population Analysis:

                                       Natural Population
                Natural  -----------------------------------------------
    Atom  No    Charge         Core      Valence    Rydberg      Total
 -----------------------------------------------------------------------
      C    1   -0.19675      0.99963     2.18985    0.00727     3.19675
      C    2   -0.20348      0.99963     2.19764    0.00621     3.20348
      C    3   -0.11330      0.99959     2.10450    0.00921     3.11330
      C    4   -0.17702      0.99961     2.16961    0.00780     3.17702
      C    5   -0.22619      0.99960     2.21893    0.00765     3.22619
      C    6    0.28319      0.99960     1.69613    0.02109     2.71681
      O    7   -0.24295      0.99988     3.23651    0.00655     4.24295
      C    8    0.14681      0.99940     1.83874    0.01505     2.85319
      C    9   -0.09102      0.99948     2.08331    0.00823     3.09102
      C   10   -0.06410      0.99950     2.05638    0.00822     3.06410
      C   11   -0.06116      0.99954     2.05285    0.00877     3.06116
      C   12   -0.13396      0.99959     2.12495    0.00943     3.13396
      C   13   -0.08395      0.99959     2.07453    0.00982     3.08395
      C   14   -0.11952      0.99952     2.11113    0.00887     3.11952
      C   15    0.15629      0.99937     1.83180    0.01255     2.84371
      O   16   -0.23521      0.99985     3.22703    0.00833     4.23521
      H   17    0.10400      0.00000     0.39495    0.00105     0.39600
      H   18    0.09658      0.00000     0.40241    0.00101     0.40342
      H   19    0.09650      0.00000     0.40255    0.00095     0.40350
      H   20    0.09424      0.00000     0.40467    0.00109     0.40576
      H   21    0.11021      0.00000     0.38874    0.00105     0.38979
      H   22    0.09948      0.00000     0.39925    0.00127     0.40052
      H   23    0.08657      0.00000     0.41168    0.00175     0.41343
      H   24    0.09920      0.00000     0.39786    0.00294     0.40080
      H   25    0.10097      0.00000     0.39792    0.00111     0.39903
      H   26    0.10688      0.00000     0.39216    0.00096     0.39312
      H   27    0.09061      0.00000     0.40780    0.00159     0.40939
      H   28    0.09074      0.00000     0.40822    0.00104     0.40926
      H   29    0.08865      0.00000     0.41031    0.00104     0.41135
      H   30    0.09769      0.00000     0.40084    0.00147     0.40231
 =======================================================================
   * Total *   -0.00000     15.99337    40.83326    0.17338    57.00000

 Normal termination of Gaussian 16 at Fri Dec 11 00:49:49 2020.
