 Gaussian 16, Revision A.03,

 -----------------------------------------------------------
 # opt freq B3LYP/6-31G(d) empiricaldispersion=gd3bj scf=xqc
 -----------------------------------------------------------

 -------------------------------
 CID_133454712_JID_9880_neutraal
 -------------------------------
 Symbolic Z-matrix:
 Charge =  0 Multiplicity = 1

 SCF Done:  E(RB3LYP) =  -875.761298812     A.U. after   15 cycles
 SCF Done:  E(RB3LYP) =  -875.767498168     A.U. after   14 cycles
 SCF Done:  E(RB3LYP) =  -875.766852499     A.U. after   13 cycles
 SCF Done:  E(RB3LYP) =  -875.769072766     A.U. after   13 cycles
 SCF Done:  E(RB3LYP) =  -875.769565062     A.U. after   12 cycles
 SCF Done:  E(RB3LYP) =  -875.770198595     A.U. after   13 cycles
 SCF Done:  E(RB3LYP) =  -875.770976827     A.U. after   13 cycles
 SCF Done:  E(RB3LYP) =  -875.771272165     A.U. after   12 cycles
 SCF Done:  E(RB3LYP) =  -875.771414688     A.U. after   12 cycles
 SCF Done:  E(RB3LYP) =  -875.771552335     A.U. after   12 cycles
 SCF Done:  E(RB3LYP) =  -875.771622039     A.U. after   10 cycles
 SCF Done:  E(RB3LYP) =  -875.771622871     A.U. after    8 cycles
 SCF Done:  E(RB3LYP) =  -875.771623236     A.U. after    8 cycles
 SCF Done:  E(RB3LYP) =  -875.771623375     A.U. after    8 cycles
 SCF Done:  E(RB3LYP) =  -875.771623391     A.U. after    7 cycles
 Optimization completed.
    -- Stationary point found.
 Normal termination of Gaussian 16 at Sat Dec 12 10:15:40 2020.

 --------------------------------------------------------------------
 #N Geom=AllCheck Guess=TCheck SCRF=Check GenChk RB3LYP/6-31G(d) Freq
 --------------------------------------------------------------------

 Structure from the checkpoint file:  "JID_9880.chk"
 -------------------------------
 CID_133454712_JID_9880_neutraal
 -------------------------------
 Charge =  0 Multiplicity = 1

 SCF Done:  E(RB3LYP) =  -875.771623391     A.U. after    1 cycles

  Exact polarizability: 186.976   3.835 176.979  15.125  -9.406 118.474
 Approx polarizability: 268.039   5.412 275.165  36.291 -26.038 200.682

                      1                      2                      3
                      A                      A                      A
 Frequencies --     36.7863                52.3143                65.0805
 Red. masses --      6.5053                 5.1104                 5.1216
 Frc consts  --      0.0052                 0.0082                 0.0128
 IR Inten    --      0.4897                 1.2454                 0.2691

                      4                      5                      6
                      A                      A                      A
 Frequencies --     73.3807               105.0102               113.2469
 Red. masses --      5.8073                 5.5147                 1.3121
 Frc consts  --      0.0184                 0.0358                 0.0099
 IR Inten    --      3.3816                 1.9383                 0.8993

                      7                      8                      9
                      A                      A                      A
 Frequencies --    132.9420               156.5687               163.1293
 Red. masses --      3.9324                 5.0539                 3.2402
 Frc consts  --      0.0409                 0.0730                 0.0508
 IR Inten    --      0.5875                 0.0185                 2.8399

                     10                     11                     12
                      A                      A                      A
 Frequencies --    169.4083               209.6361               230.7820
 Red. masses --      2.5358                 5.0096                 3.3327
 Frc consts  --      0.0429                 0.1297                 0.1046
 IR Inten    --      5.1431                 2.6273                 0.2899

                     13                     14                     15
                      A                      A                      A
 Frequencies --    246.3439               296.3112               312.8888
 Red. masses --      3.2797                 2.8200                 3.8544
 Frc consts  --      0.1173                 0.1459                 0.2223
 IR Inten    --      4.0709                 5.3150                 3.3605

                     16                     17                     18
                      A                      A                      A
 Frequencies --    342.2029               360.7767               380.9233
 Red. masses --      3.6734                 2.0927                 2.0912
 Frc consts  --      0.2534                 0.1605                 0.1788
 IR Inten    --      1.6033                52.2124                84.3739

                     19                     20                     21
                      A                      A                      A
 Frequencies --    393.3689               412.9055               447.4813
 Red. masses --      1.9534                 2.2815                 4.0567
 Frc consts  --      0.1781                 0.2292                 0.4786
 IR Inten    --     91.6652                51.9234                 3.1461

                     22                     23                     24
                      A                      A                      A
 Frequencies --    469.2012               504.9721               540.4877
 Red. masses --      2.5799                 3.8574                 2.2964
 Frc consts  --      0.3346                 0.5795                 0.3952
 IR Inten    --      0.8800                 9.0587                26.9580

                     25                     26                     27
                      A                      A                      A
 Frequencies --    557.1450               570.7420               583.2276
 Red. masses --      3.4642                 4.7469                 3.1434
 Frc consts  --      0.6336                 0.9111                 0.6300
 IR Inten    --      6.2527                 8.8813                14.2240

                     28                     29                     30
                      A                      A                      A
 Frequencies --    593.4114               621.4416               638.9836
 Red. masses --      1.7606                 1.3046                 4.4139
 Frc consts  --      0.3653                 0.2968                 1.0618
 IR Inten    --     41.5775                 2.7011                14.2363

                     31                     32                     33
                      A                      A                      A
 Frequencies --    673.1238               716.9802               731.0406
 Red. masses --      2.5304                 4.7541                 4.2007
 Frc consts  --      0.6755                 1.4399                 1.3227
 IR Inten    --     21.8265                 2.8145                23.4873

                     34                     35                     36
                      A                      A                      A
 Frequencies --    755.2815               790.2428               806.9665
 Red. masses --      4.8545                 5.6308                 4.5576
 Frc consts  --      1.6316                 2.0718                 1.7486
 IR Inten    --      2.9965                16.7306                 3.2676

                     37                     38                     39
                      A                      A                      A
 Frequencies --    813.4930               854.7689               864.9374
 Red. masses --      2.5187                 1.3922                 2.7553
 Frc consts  --      0.9821                 0.5993                 1.2145
 IR Inten    --      4.6772                 8.6142                 5.4474

                     40                     41                     42
                      A                      A                      A
 Frequencies --    875.8135               926.9105               955.8381
 Red. masses --      1.6789                 2.6031                 2.8700
 Frc consts  --      0.7588                 1.3177                 1.5449
 IR Inten    --     15.5104                 1.0190                49.3255

                     43                     44                     45
                      A                      A                      A
 Frequencies --    963.1496               968.9912               995.7624
 Red. masses --      1.5022                 1.8940                 1.4454
 Frc consts  --      0.8210                 1.0478                 0.8444
 IR Inten    --      3.5862                 2.7411                 0.7723

                     46                     47                     48
                      A                      A                      A
 Frequencies --   1030.5880              1059.4868              1069.5694
 Red. masses --      2.1495                 1.9078                 2.1210
 Frc consts  --      1.3451                 1.2617                 1.4296
 IR Inten    --     41.8423                30.2170                11.1481

                     49                     50                     51
                      A                      A                      A
 Frequencies --   1089.2864              1119.7991              1128.8734
 Red. masses --      4.1257                 1.8375                 1.6513
 Frc consts  --      2.8842                 1.3576                 1.2398
 IR Inten    --     11.1761                 2.7148                 0.5928

                     52                     53                     54
                      A                      A                      A
 Frequencies --   1139.7155              1147.0838              1156.8862
 Red. masses --      2.3309                 3.0704                 1.2805
 Frc consts  --      1.7839                 2.3803                 1.0098
 IR Inten    --      2.5532                34.8644                 5.6239

                     55                     56                     57
                      A                      A                      A
 Frequencies --   1167.3491              1203.4937              1218.7179
 Red. masses --      2.0530                 2.1619                 1.6531
 Frc consts  --      1.6483                 1.8449                 1.4466
 IR Inten    --      4.2872                11.1483                17.4079

                     58                     59                     60
                      A                      A                      A
 Frequencies --   1231.5542              1259.4292              1276.0857
 Red. masses --      1.5120                 1.7235                 1.6058
 Frc consts  --      1.3512                 1.6107                 1.5406
 IR Inten    --     12.7594                11.0316                71.4533

                     61                     62                     63
                      A                      A                      A
 Frequencies --   1294.1315              1303.9702              1318.8187
 Red. masses --      1.5128                 4.3075                 1.6179
 Frc consts  --      1.4928                 4.3153                 1.6579
 IR Inten    --     51.2329                29.5872                68.2174

                     64                     65                     66
                      A                      A                      A
 Frequencies --   1333.5215              1341.2234              1376.7930
 Red. masses --      1.7521                 1.4845                 2.2659
 Frc consts  --      1.8357                 1.5733                 2.5307
 IR Inten    --      3.7286                42.4166               119.1565

                     67                     68                     69
                      A                      A                      A
 Frequencies --   1382.5754              1398.7163              1405.7149
 Red. masses --      1.2992                 1.5753                 1.3978
 Frc consts  --      1.4632                 1.8158                 1.6274
 IR Inten    --      5.6160                22.6987                 3.1765

                     70                     71                     72
                      A                      A                      A
 Frequencies --   1420.4362              1440.8171              1449.7449
 Red. masses --      1.3650                 1.6983                 1.6157
 Frc consts  --      1.6226                 2.0772                 2.0008
 IR Inten    --      3.3972                35.9855                18.0598

                     73                     74                     75
                      A                      A                      A
 Frequencies --   1462.8120              1478.6715              1500.7088
 Red. masses --      2.2537                 1.6089                 1.2500
 Frc consts  --      2.8414                 2.0726                 1.6586
 IR Inten    --     45.3450                25.2494                14.1608

                     76                     77                     78
                      A                      A                      A
 Frequencies --   1507.9117              1509.0249              1517.7548
 Red. masses --      1.1318                 1.0865                 1.0965
 Frc consts  --      1.5163                 1.4577                 1.4881
 IR Inten    --     18.9626                 1.1518                14.1961

                     79                     80                     81
                      A                      A                      A
 Frequencies --   1522.9467              1524.5244              1541.1722
 Red. masses --      1.0974                 1.0734                 2.2557
 Frc consts  --      1.4997                 1.4698                 3.1567
 IR Inten    --      4.8738                 6.5418                99.8809

                     82                     83                     84
                      A                      A                      A
 Frequencies --   1547.4734              1603.0101              1631.3239
 Red. masses --      1.0842                 6.5583                 1.5421
 Frc consts  --      1.5296                 9.9292                 2.4178
 IR Inten    --     31.0530                42.6044               224.2329

                     85                     86                     87
                      A                      A                      A
 Frequencies --   1642.7930              1782.7380              1785.0452
 Red. masses --      3.0344                 9.3083                 8.0670
 Frc consts  --      4.8249                17.4299                15.1446
 IR Inten    --     83.8905               229.9558               347.1194

                     88                     89                     90
                      A                      A                      A
 Frequencies --   3014.3827              3018.8232              3029.8857
 Red. masses --      1.0733                 1.0737                 1.0716
 Frc consts  --      5.7460                 5.7652                 5.7961
 IR Inten    --     18.1695                53.9626                32.5643

                     91                     92                     93
                      A                      A                      A
 Frequencies --   3034.6914              3048.5793              3062.1364
 Red. masses --      1.0487                 1.0812                 1.0679
 Frc consts  --      5.6903                 5.9207                 5.8996
 IR Inten    --     39.1437                73.6383                40.9888

                     94                     95                     96
                      A                      A                      A
 Frequencies --   3109.7552              3113.0793              3132.1332
 Red. masses --      1.0938                 1.0890                 1.0911
 Frc consts  --      6.2324                 6.2183                 6.3065
 IR Inten    --     20.0916                22.7840                22.3110

                     97                     98                     99
                      A                      A                      A
 Frequencies --   3135.8110              3151.6863              3165.1457
 Red. masses --      1.0967                 1.1029                 1.0917
 Frc consts  --      6.3538                 6.4548                 6.4437
 IR Inten    --     10.4386                15.2624                 8.8645

                    100                    101                    102
                      A                      A                      A
 Frequencies --   3168.9508              3203.7713              3250.6143
 Red. masses --      1.0899                 1.0907                 1.0913
 Frc consts  --      6.4487                 6.5962                 6.7937
 IR Inten    --     32.8540                 5.3768                 1.6985

                    103                    104                    105
                      A                      A                      A
 Frequencies --   3566.1329              3591.5757              3699.3128
 Red. masses --      1.0452                 1.0761                 1.1044
 Frc consts  --      7.8313                 8.1786                 8.9050
 IR Inten    --     21.4143                27.4690                65.3049

 - Thermochemistry -
 -------------------
 Temperature   298.150 Kelvin.  Pressure   1.00000 Atm.
 Atom     1 has atomic number  6 and mass  12.00000

 Molecular mass:   262.14298 amu.
 Principal axes and moments of inertia in atomic units:
                           1         2         3
     Eigenvalues --  2946.580136333.155547861.76971
           X            0.99990   0.00890   0.01132
           Y           -0.00905   0.99987   0.01348
           Z           -0.01120  -0.01358   0.99985
 This molecule is an asymmetric top.
 Rotational symmetry number  1.
 Warning -- assumption of classical behavior for rotation
           may cause significant error
 Rotational temperatures (Kelvin)      0.02939     0.01368     0.01102
 Rotational constants (GHZ):           0.61249     0.28497     0.22956
 Zero-point vibrational energy     821195.5 (Joules/Mol)
                                  196.27042 (Kcal/Mol)
 Warning -- explicit consideration of  28 degrees of freedom as
           vibrations may cause significant error
 Vibrational temperatures:     52.93    75.27    93.64   105.58   151.09
          (Kelvin)            162.94   191.27   225.27   234.71   243.74
                              301.62   332.04   354.43   426.33   450.18
                              492.35   519.08   548.06   565.97   594.08
                              643.83   675.08   726.54   777.64   801.61
                              821.17   839.13   853.79   894.12   919.35
                              968.47  1031.57  1051.80  1086.68  1136.98
                             1161.04  1170.43  1229.82  1244.45  1260.10
                             1333.62  1375.24  1385.76  1394.16  1432.68
                             1482.79  1524.37  1538.87  1567.24  1611.14
                             1624.20  1639.80  1650.40  1664.50  1679.55
                             1731.56  1753.46  1771.93  1812.04  1836.00
                             1861.97  1876.12  1897.49  1918.64  1929.72
                             1980.90  1989.22  2012.44  2022.51  2043.69
                             2073.01  2085.86  2104.66  2127.48  2159.19
                             2169.55  2171.15  2183.71  2191.18  2193.45
                             2217.40  2226.47  2306.37  2347.11  2363.61
                             2564.96  2568.28  4337.02  4343.41  4359.33
                             4366.24  4386.23  4405.73  4474.24  4479.03
                             4506.44  4511.73  4534.57  4553.94  4559.41
                             4609.51  4676.91  5130.87  5167.48  5322.49

 Zero-point correction=                           0.312777 (Hartree/Particle)
 Thermal correction to Energy=                    0.330348
 Thermal correction to Enthalpy=                  0.331293
 Thermal correction to Gibbs Free Energy=         0.267302
 Sum of electronic and zero-point Energies=           -875.458847
 Sum of electronic and thermal Energies=              -875.441275
 Sum of electronic and thermal Enthalpies=            -875.440331
 Sum of electronic and thermal Free Energies=         -875.504321

                     E (Thermal)             CV                S
                      KCal/Mol        Cal/Mol-Kelvin    Cal/Mol-Kelvin
 Total                  207.297             67.821            134.679
 Electronic               0.000              0.000              0.000
 Translational            0.889              2.981             42.591
 Rotational               0.889              2.981             33.350
 Vibrational            205.519             61.859             58.738
 Vibration     1          0.594              1.982              5.425
 Vibration     2          0.596              1.977              4.728
 Vibration     3          0.597              1.971              4.297
 Vibration     4          0.599              1.967              4.061
 Vibration     5          0.605              1.945              3.359
 Vibration     6          0.607              1.938              3.212
 Vibration     7          0.613              1.920              2.903
 Vibration     8          0.620              1.895              2.591
 Vibration     9          0.623              1.888              2.513
 Vibration    10          0.625              1.880              2.442
 Vibration    11          0.642              1.826              2.047
 Vibration    12          0.652              1.794              1.873
 Vibration    13          0.661              1.769              1.757
 Vibration    14          0.690              1.681              1.438
 Vibration    15          0.701              1.649              1.347
 Vibration    16          0.721              1.591              1.202
 Vibration    17          0.735              1.553              1.119
 Vibration    18          0.751              1.511              1.035
 Vibration    19          0.761              1.484              0.987
 Vibration    20          0.777              1.442              0.916
 Vibration    21          0.807              1.366              0.803
 Vibration    22          0.826              1.318              0.740
 Vibration    23          0.860              1.239              0.646
 Vibration    24          0.896              1.161              0.564
 Vibration    25          0.913              1.124              0.530
 Vibration    26          0.927              1.095              0.503
 Vibration    27          0.940              1.068              0.479
 Vibration    28          0.951              1.046              0.461

                           ! Non-Optimized Parameters !
 Normal termination of Gaussian 16 at Sat Dec 12 10:34:48 2020.

 ----------------------------------------------------------------------
 # B3LYP/6-311++G(d,p) empiricaldispersion=gd3bj scf=xqc pop=npa geom=c
 heck
 ----------------------------------------------------------------------

 ---------------------------------------
 CID_133454712_JID_9880_Energie_neutraal
 ---------------------------------------
 Structure from the checkpoint file:  "JID_9880.chk"
 Charge =  0 Multiplicity = 1

 SCF Done:  E(RB3LYP) =  -876.021688589     A.U. after   16 cycles
 Normal termination of Gaussian 16 at Sat Dec 12 10:42:07 2020.

 ----------------------------------------------------------------------
 # B3LYP/6-311++G(d,p) empiricaldispersion=gd3bj scf=xqc pop=npa geom=c
 heck
 ----------------------------------------------------------------------

 -------------------------------------
 CID_133454712_JID_9880_Energie_kation
 -------------------------------------
 Structure from the checkpoint file:  "JID_9880.chk"
 Charge =  1 Multiplicity = 2

 SCF Done:  E(UB3LYP) =  -875.731891204     A.U. after   26 cycles
 Normal termination of Gaussian 16 at Sat Dec 12 10:58:01 2020.
 Gaussian 16:  ES64L-G16RevA.03 25-Dec-2016

 ----------------------------------------------------------------------
 # B3LYP/6-311++G(d,p) empiricaldispersion=gd3bj scf=xqc pop=npa geom=c
 heck
 ----------------------------------------------------------------------

 ------------------------------------
 CID_133454712_JID_9880_Energie_anion
 ------------------------------------
 Structure from the checkpoint file:  "JID_9880.chk"
 Charge = -1 Multiplicity = 2

                         Standard orientation:
 ---------------------------------------------------------------------
 Center     Atomic      Atomic             Coordinates (Angstroms)
 Number     Number       Type             X           Y           Z
 ---------------------------------------------------------------------
      1          6           0        3.944060    1.189100    1.446458
      2          7           0        3.313658    1.260403    0.136932
      3          6           0        2.696294    0.239430   -0.548860
      4          8           0        2.450837    0.357505   -1.742879
      5          6           0        2.313314   -0.995165    0.265138
      6          6           0        2.060954   -2.209545   -0.645751
      7          6           0        0.697341   -2.132299   -1.338800
      8          6           0       -0.430893   -1.957431   -0.321407
      9          7           0       -0.219084   -0.773553    0.532914
     10          6           0        1.083260   -0.768690    1.189939
     11          6           0       -0.869444    0.427692    0.207483
     12          6           0       -2.271626    0.462166    0.005828
     13          6           0       -2.853576    1.667366   -0.403353
     14          7           0       -2.202684    2.824261   -0.553100
     15          6           0       -0.892810    2.792957   -0.277713
     16          6           0       -0.190608    1.650990    0.091516
     17          6           0       -3.240756   -0.650992    0.298141
     18          8           0       -4.290314   -0.779460   -0.320869
     19          7           0       -2.930421   -1.433141    1.378188
     20          1           0        3.237451    0.853547    2.210192
     21          1           0        4.273698    2.192811    1.723885
     22          1           0        4.817981    0.523492    1.463832
     23          1           0        3.603438    2.011546   -0.477926
     24          1           0        3.153737   -1.226153    0.932544
     25          1           0        2.860511   -2.286486   -1.388195
     26          1           0        2.102934   -3.115345   -0.024398
     27          1           0        0.694767   -1.290371   -2.035735
     28          1           0        0.516261   -3.048172   -1.914650
     29          1           0       -1.387613   -1.859316   -0.832394
     30          1           0       -0.496462   -2.843071    0.327848
     31          1           0        1.080003   -1.601548    1.908155
     32          1           0        1.175232    0.151187    1.770586
     33          1           0       -3.924452    1.675758   -0.588322
     34          1           0       -0.358029    3.735376   -0.385914
     35          1           0        0.878205    1.719816    0.241594
     36          1           0       -1.989732   -1.426399    1.748445
     37          1           0       -3.525462   -2.230295    1.554185
 ---------------------------------------------------------------------

 SCF Done:  E(UB3LYP) =  -876.024375977     A.U. after   33 cycles
 SCF Done:  E(UB3LYP) =  -876.024375977     a.u. after    1 cycles

 The electronic state is 2-A.
 Alpha  occ. eigenvalues --  -19.00067 -18.98539 -14.24977 -14.24053 -14.23176
 Alpha  occ. eigenvalues --  -14.19542 -10.18362 -10.17227 -10.12617 -10.12056
 Alpha  occ. eigenvalues --  -10.11721 -10.11372 -10.09812 -10.09791 -10.09378
 Alpha  occ. eigenvalues --  -10.08124 -10.07609 -10.07443 -10.07042  -0.95233
 Alpha  occ. eigenvalues --   -0.93707  -0.86519  -0.83395  -0.83092  -0.80580
 Alpha  occ. eigenvalues --   -0.72854  -0.68732  -0.68111  -0.66027  -0.62172
 Alpha  occ. eigenvalues --   -0.58203  -0.57386  -0.55003  -0.52205  -0.50136
 Alpha  occ. eigenvalues --   -0.48507  -0.46024  -0.45162  -0.43122  -0.40987
 Alpha  occ. eigenvalues --   -0.40771  -0.39691  -0.39053  -0.37568  -0.36619
 Alpha  occ. eigenvalues --   -0.35785  -0.34599  -0.34140  -0.33446  -0.33070
 Alpha  occ. eigenvalues --   -0.32505  -0.31794  -0.31538  -0.31183  -0.30484
 Alpha  occ. eigenvalues --   -0.28846  -0.28583  -0.27884  -0.26797  -0.25877
 Alpha  occ. eigenvalues --   -0.24298  -0.23961  -0.20711  -0.17931  -0.17626
 Alpha  occ. eigenvalues --   -0.17108  -0.16495  -0.15794  -0.14833  -0.12240
 Alpha  occ. eigenvalues --    0.03253
 Alpha virt. eigenvalues --    0.04953   0.05828   0.07203   0.07417   0.08228
 Alpha virt. eigenvalues --    0.08519   0.08766   0.09260   0.09362   0.10290
 Alpha virt. eigenvalues --    0.10471   0.11198   0.11525   0.11869   0.12283

  Beta  occ. eigenvalues --  -19.00067 -18.98452 -14.24968 -14.24058 -14.23162
  Beta  occ. eigenvalues --  -14.19528 -10.18362 -10.17157 -10.12517 -10.12022
  Beta  occ. eigenvalues --  -10.11655 -10.11363 -10.09793 -10.09774 -10.09219
  Beta  occ. eigenvalues --  -10.08108 -10.07534 -10.07443 -10.07081  -0.95230
  Beta  occ. eigenvalues --   -0.93549  -0.86457  -0.83372  -0.82981  -0.80507
  Beta  occ. eigenvalues --   -0.72780  -0.68656  -0.68037  -0.65869  -0.62081
  Beta  occ. eigenvalues --   -0.58105  -0.57335  -0.54814  -0.52166  -0.50059
  Beta  occ. eigenvalues --   -0.48399  -0.45973  -0.45123  -0.43066  -0.40923
  Beta  occ. eigenvalues --   -0.40690  -0.39631  -0.38990  -0.37480  -0.36552
  Beta  occ. eigenvalues --   -0.35727  -0.34540  -0.34091  -0.33385  -0.33027
  Beta  occ. eigenvalues --   -0.32338  -0.31669  -0.31453  -0.31120  -0.30316
  Beta  occ. eigenvalues --   -0.28573  -0.28533  -0.27822  -0.26709  -0.25820
  Beta  occ. eigenvalues --   -0.24271  -0.23921  -0.20383  -0.17704  -0.17536
  Beta  occ. eigenvalues --   -0.16951  -0.16449  -0.15520  -0.14653  -0.12107
  Beta virt. eigenvalues --    0.05846   0.06261   0.06484   0.07584   0.07859
  Beta virt. eigenvalues --    0.08391   0.08798   0.09162   0.09353   0.09561
  Beta virt. eigenvalues --    0.10421   0.10740   0.11278   0.11890   0.12157

 Mulliken charges and spin densities:
               1          2
     1  C    1.262837  -1.612322
     2  N   -0.350939   0.197826
     3  C   -0.557661  -0.092012
     4  O   -0.264442   0.002302
     5  C    0.914639  -0.077168
     6  C    0.186354  -0.776998
     7  C   -0.592705   0.184828
     8  C   -0.153117  -0.117116
     9  N    0.213740  -0.005866
    10  C   -0.042162  -0.459298
    11  C   -0.043028   0.137745
    12  C    0.560935  -0.020171
    13  C   -0.406925  -0.041688
    14  N   -0.067985   0.001641
    15  C   -0.699002   0.124402
    16  C    0.157931  -0.022570
    17  C   -0.676151   0.100816
    18  O   -0.350304   0.030421
    19  N   -0.325120  -0.000543
    20  H   -0.287147   0.462364
    21  H   -0.492024   0.645606
    22  H   -0.474492   0.649520
    23  H    0.227775   0.076911
    24  H   -0.151345   0.439846
    25  H    0.077763   0.100176
    26  H   -0.141755   0.292050
    27  H    0.202877   0.012225
    28  H    0.097867   0.062673
    29  H    0.212148   0.008000
    30  H    0.128631   0.029608
    31  H   -0.390702   0.584471
    32  H   -0.000403   0.181454
    33  H    0.206265  -0.000427
    34  H    0.112064   0.033984
    35  H    0.403487  -0.192943
    36  H    0.228156   0.052646
    37  H    0.273942   0.007604
 Sum of Mulliken charges =  -1.00000   1.00000

 Dipole moment (field-independent basis, Debye):
    X=             -1.3994    Y=             -2.4933    Z=             -1.0108  Tot=              3.0326
 Quadrupole moment (field-independent basis, Debye-Ang):
   XX=           -203.5952   YY=           -147.7217   ZZ=           -151.0780
   XY=              9.6304   XZ=            -19.8614   YZ=              2.2769

 Summary of Natural Population Analysis:

                                       Natural Population
                Natural  -----------------------------------------------
    Atom  No    Charge         Core      Valence    Rydberg      Total
 -----------------------------------------------------------------------
      C    1   -0.18107      0.99964     2.17344    0.00799     3.18107
      N    2   -0.32330      0.99968     2.81327    0.01035     3.82330
      C    3    0.34800      0.99964     1.62817    0.02419     2.65200
      O    4   -0.32192      0.99988     3.31681    0.00523     4.32192
      C    5   -0.16294      0.99953     2.15063    0.01277     3.16294
      C    6   -0.18725      0.99962     2.17694    0.01068     3.18725
      C    7   -0.20156      0.99962     2.19409    0.00785     3.20156
      C    8   -0.08011      0.99960     2.07041    0.01010     3.08011
      N    9   -0.27485      0.99967     2.76261    0.01258     3.77485
      C   10   -0.07957      0.99959     2.06651    0.01347     3.07957
      C   11    0.13369      0.99944     1.85576    0.01110     2.86631
      C   12   -0.09562      0.99938     2.08500    0.01123     3.09562
      C   13    0.05284      0.99957     1.93461    0.01299     2.94716
      N   14   -0.24714      0.99972     2.73666    0.01077     3.74714
      C   15    0.06254      0.99960     1.92331    0.01455     2.93746
      C   16   -0.15620      0.99951     2.14760    0.00909     3.15620
      C   17    0.33849      0.99966     1.63902    0.02282     2.66151
      O   18   -0.31736      0.99988     3.31189    0.00559     4.31736
      N   19   -0.40666      0.99970     2.89939    0.00757     3.90666
      H   20    0.09902      0.00000     0.39891    0.00207     0.40098
      H   21    0.10272      0.00000     0.39582    0.00146     0.39728
      H   22    0.09577      0.00000     0.40179    0.00244     0.40423
      H   23    0.19311      0.00000     0.30491    0.00198     0.30689
      H   24    0.11498      0.00000     0.38269    0.00233     0.38502
      H   25    0.10635      0.00000     0.39269    0.00096     0.39365
      H   26    0.09702      0.00000     0.40183    0.00115     0.40298
      H   27    0.11356      0.00000     0.38539    0.00105     0.38644
      H   28    0.09713      0.00000     0.40208    0.00079     0.40287
      H   29    0.10692      0.00000     0.39201    0.00107     0.39308
      H   30    0.08817      0.00000     0.41056    0.00128     0.41183
      H   31    0.09948      0.00000     0.39858    0.00193     0.40052
      H   32    0.10669      0.00000     0.39167    0.00164     0.39331
      H   33    0.09718      0.00000     0.40167    0.00114     0.40282
      H   34    0.08411      0.00000     0.41420    0.00169     0.41589
      H   35    0.10885      0.00000     0.38896    0.00220     0.39115
      H   36    0.19880      0.00000     0.29895    0.00225     0.30120
      H   37    0.19011      0.00000     0.30811    0.00178     0.30989
 =======================================================================
   * Total *    0.00000     18.99291    50.75695    0.25014    70.00000

 Normal termination of Gaussian 16 at Sat Dec 12 11:18:24 2020.
