 Gaussian 16, Revision A.03,

 -----------------------------------------------------------
 # opt freq B3LYP/6-31G(d) empiricaldispersion=gd3bj scf=xqc
 -----------------------------------------------------------

 -------------------------------
 CID_151558421_JID_1539_neutraal
 -------------------------------
 Symbolic Z-matrix:
 Charge =  0 Multiplicity = 1

 SCF Done:  E(RB3LYP) =  -907.597648807     A.U. after   18 cycles
 SCF Done:  E(RB3LYP) =  -907.602930809     A.U. after   16 cycles
 SCF Done:  E(RB3LYP) =  -907.604397100     A.U. after   14 cycles
 SCF Done:  E(RB3LYP) =  -907.604965706     A.U. after   14 cycles
 SCF Done:  E(RB3LYP) =  -907.606461064     A.U. after   14 cycles
 SCF Done:  E(RB3LYP) =  -907.607432752     A.U. after   15 cycles
 SCF Done:  E(RB3LYP) =  -907.608882293     A.U. after   14 cycles
 SCF Done:  E(RB3LYP) =  -907.609590169     A.U. after   14 cycles
 SCF Done:  E(RB3LYP) =  -907.610055395     A.U. after   14 cycles
 SCF Done:  E(RB3LYP) =  -907.610221879     A.U. after   14 cycles
 SCF Done:  E(RB3LYP) =  -907.611421068     A.U. after   13 cycles
 SCF Done:  E(RB3LYP) =  -907.611422345     A.U. after   10 cycles
 SCF Done:  E(RB3LYP) =  -907.611422507     A.U. after    9 cycles
 SCF Done:  E(RB3LYP) =  -907.611422563     A.U. after    9 cycles
 Optimization completed.
    -- Stationary point found.
 Normal termination of Gaussian 16 at Tue Dec  8 20:31:14 2020.

 --------------------------------------------------------------------
 #N Geom=AllCheck Guess=TCheck SCRF=Check GenChk RB3LYP/6-31G(d) Freq
 --------------------------------------------------------------------

 Structure from the checkpoint file:  "JID_1539.chk"
 -------------------------------
 CID_151558421_JID_1539_neutraal
 -------------------------------
 Charge =  0 Multiplicity = 1

 SCF Done:  E(RB3LYP) =  -907.611422563     A.U. after    1 cycles

  Exact polarizability: 124.740  10.527  77.871   7.967  -1.811  75.510
 Approx polarizability: 186.188  27.477 117.413  29.691  -7.393 140.027

                      1                      2                      3
                      A                      A                      A
 Frequencies --     23.1474                51.1516                96.5726
 Red. masses --      8.8792                 4.5395                 2.6685
 Frc consts  --      0.0028                 0.0070                 0.0147
 IR Inten    --      1.9834                 2.4220                 0.7650

                      4                      5                      6
                      A                      A                      A
 Frequencies --    105.2222               113.1243               135.2710
 Red. masses --      1.7450                 7.2650                 8.2835
 Frc consts  --      0.0114                 0.0548                 0.0893
 IR Inten    --      0.0572                 0.5824                 1.0626

                      7                      8                      9
                      A                      A                      A
 Frequencies --    193.3870               218.3047               272.4930
 Red. masses --      6.8927                 5.4120                 5.2259
 Frc consts  --      0.1519                 0.1520                 0.2286
 IR Inten    --      4.6036                 5.0067                 3.5853

                     10                     11                     12
                      A                      A                      A
 Frequencies --    307.1532               348.1850               360.6415
 Red. masses --      4.8263                 2.3438                 1.1550
 Frc consts  --      0.2683                 0.1674                 0.0885
 IR Inten    --     11.7259                 7.4830                27.4545

                     13                     14                     15
                      A                      A                      A
 Frequencies --    477.7186               502.4101               512.9405
 Red. masses --      3.6568                 5.9778                 4.9952
 Frc consts  --      0.4917                 0.8890                 0.7744
 IR Inten    --     32.3678                 3.1130                 7.0241

                     16                     17                     18
                      A                      A                      A
 Frequencies --    561.3005               605.2238               633.9658
 Red. masses --      5.1660                 7.1688                 3.7960
 Frc consts  --      0.9589                 1.5471                 0.8989
 IR Inten    --      6.4387                12.4018                 4.0466

                     19                     20                     21
                      A                      A                      A
 Frequencies --    660.1438               767.5634               796.0140
 Red. masses --      3.3262                 3.7726                 2.7117
 Frc consts  --      0.8540                 1.3095                 1.0123
 IR Inten    --     13.5674                27.7281                 5.6551

                     22                     23                     24
                      A                      A                      A
 Frequencies --    893.2846               936.2310               974.2475
 Red. masses --      3.0850                 1.7169                 2.3016
 Frc consts  --      1.4504                 0.8867                 1.2871
 IR Inten    --     20.0624                 4.2861                 6.1311

                     25                     26                     27
                      A                      A                      A
 Frequencies --   1012.2417              1045.8260              1067.1952
 Red. masses --      2.3945                 1.8027                 2.2895
 Frc consts  --      1.4456                 1.1617                 1.5363
 IR Inten    --     29.4351                 4.5982                16.2567

                     28                     29                     30
                      A                      A                      A
 Frequencies --   1122.0124              1200.6967              1232.3024
 Red. masses --      3.0069                 2.0171                 1.1735
 Frc consts  --      2.2303                 1.7134                 1.0499
 IR Inten    --    273.8236                62.2781                12.6081

                     31                     32                     33
                      A                      A                      A
 Frequencies --   1269.9508              1284.7394              1331.4050
 Red. masses --      1.4957                 4.7941                 1.9703
 Frc consts  --      1.4213                 4.6622                 2.0578
 IR Inten    --    128.9524               310.7089                71.3905

                     34                     35                     36
                      A                      A                      A
 Frequencies --   1407.6621              1416.4828              1479.9485
 Red. masses --      1.6739                 1.2852                 1.0903
 Frc consts  --      1.9542                 1.5194                 1.4070
 IR Inten    --     95.5154                33.6715                20.3066

                     37                     38                     39
                      A                      A                      A
 Frequencies --   1491.4814              1500.2181              1788.1069
 Red. masses --      1.0496                 1.0609                11.6773
 Frc consts  --      1.3757                 1.4068                21.9979
 IR Inten    --     11.4832                 9.5950               243.9869

                     40                     41                     42
                      A                      A                      A
 Frequencies --   1803.5686              2301.5520              2679.9622
 Red. masses --     10.9935                13.9820                 1.0377
 Frc consts  --     21.0694                43.6377                 4.3910
 IR Inten    --     82.2079               478.5785                21.6567

                     43                     44                     45
                      A                      A                      A
 Frequencies --   3066.1448              3070.0432              3077.2786
 Red. masses --      1.0609                 1.0519                 1.0694
 Frc consts  --      5.8762                 5.8413                 5.9668
 IR Inten    --      1.6414                 6.0130                 2.6365

                     46                     47                     48
                      A                      A                      A
 Frequencies --   3129.8484              3132.0658              3168.4395
 Red. masses --      1.0992                 1.0994                 1.1046
 Frc consts  --      6.3440                 6.3541                 6.5336
 IR Inten    --      2.9099                 7.3505                 9.4060

 - Thermochemistry -
 -------------------
 Temperature   298.150 Kelvin.  Pressure   1.00000 Atm.
 Atom     1 has atomic number  6 and mass  12.00000

 Molecular mass:   173.02590 amu.
 Principal axes and moments of inertia in atomic units:
                           1         2         3
     Eigenvalues --  1021.814003204.636153679.87452
           X            0.99974  -0.02194  -0.00569
           Y            0.02208   0.99943   0.02568
           Z            0.00512  -0.02580   0.99965
 This molecule is an asymmetric top.
 Rotational symmetry number  1.
 Warning -- assumption of classical behavior for rotation
           may cause significant error
 Rotational temperatures (Kelvin)      0.08476     0.02703     0.02354
 Rotational constants (GHZ):           1.76621     0.56317     0.49044
 Zero-point vibrational energy     332710.6 (Joules/Mol)
                                   79.51974 (Kcal/Mol)
 Warning -- explicit consideration of  17 degrees of freedom as
           vibrations may cause significant error
 Vibrational temperatures:     33.30    73.60   138.95   151.39   162.76
          (Kelvin)            194.62   278.24   314.09   392.06   441.92
                              500.96   518.88   687.33   722.86   738.01
                              807.59   870.78   912.14   949.80  1104.35
                             1145.29  1285.24  1347.03  1401.72  1456.39
                             1504.71  1535.46  1614.33  1727.53  1773.01
                             1827.18  1848.45  1915.59  2025.31  2038.00
                             2129.32  2145.91  2158.48  2572.69  2594.93
                             3311.42  3855.87  4411.50  4417.11  4427.52
                             4503.15  4506.34  4558.68

 Zero-point correction=                           0.126723 (Hartree/Particle)
 Thermal correction to Energy=                    0.138625
 Thermal correction to Enthalpy=                  0.139569
 Thermal correction to Gibbs Free Energy=         0.086937
 Sum of electronic and zero-point Energies=           -907.484700
 Sum of electronic and thermal Energies=              -907.472797
 Sum of electronic and thermal Enthalpies=            -907.471853
 Sum of electronic and thermal Free Energies=         -907.524486

                     E (Thermal)             CV                S
                      KCal/Mol        Cal/Mol-Kelvin    Cal/Mol-Kelvin
 Total                   86.989             40.955            110.774
 Electronic               0.000              0.000              0.000
 Translational            0.889              2.981             41.352
 Rotational               0.889              2.981             30.867
 Vibrational             85.211             34.993             38.555
 Vibration     1          0.593              1.985              6.344
 Vibration     2          0.595              1.977              4.772
 Vibration     3          0.603              1.952              3.522
 Vibration     4          0.605              1.945              3.355
 Vibration     5          0.607              1.939              3.215
 Vibration     6          0.613              1.918              2.870
 Vibration     7          0.635              1.849              2.195
 Vibration     8          0.646              1.813              1.973
 Vibration     9          0.675              1.724              1.580
 Vibration    10          0.697              1.660              1.378
 Vibration    11          0.726              1.579              1.174
 Vibration    12          0.735              1.553              1.119
 Vibration    13          0.834              1.299              0.716
 Vibration    14          0.858              1.245              0.652
 Vibration    15          0.868              1.221              0.627
 Vibration    16          0.917              1.115              0.521
 Vibration    17          0.964              1.021              0.441

 Optimization completed.
    -- Stationary point found.
 Normal termination of Gaussian 16 at Tue Dec  8 20:34:49 2020.

 ----------------------------------------------------------------------
 # B3LYP/6-311++G(d,p) empiricaldispersion=gd3bj scf=xqc pop=npa geom=c
 heck
 ----------------------------------------------------------------------

 ---------------------------------------
 CID_151558421_JID_1539_Energie_neutraal
 ---------------------------------------
 Structure from the checkpoint file:  "JID_1539.chk"
 Charge =  0 Multiplicity = 1

 SCF Done:  E(RB3LYP) =  -907.791450643     A.U. after   16 cycles
 Normal termination of Gaussian 16 at Tue Dec  8 20:36:01 2020.

 ----------------------------------------------------------------------
 # B3LYP/6-311++G(d,p) empiricaldispersion=gd3bj scf=xqc pop=npa geom=c
 heck
 ----------------------------------------------------------------------

 -------------------------------------
 CID_151558421_JID_1539_Energie_kation
 -------------------------------------
 Structure from the checkpoint file:  "JID_1539.chk"
 Charge =  1 Multiplicity = 2

 SCF Done:  E(UB3LYP) =  -907.460625459     A.U. after   33 cycles
 SCF Done:  E(UB3LYP) =  -907.460625459     a.u. after    1 cycles
 Normal termination of Gaussian 16 at Tue Dec  8 20:41:15 2020.
 Gaussian 16:  ES64L-G16RevA.03 25-Dec-2016

 ----------------------------------------------------------------------
 # B3LYP/6-311++G(d,p) empiricaldispersion=gd3bj scf=xqc pop=npa geom=c
 heck
 ----------------------------------------------------------------------

 ------------------------------------
 CID_151558421_JID_1539_Energie_anion
 ------------------------------------
 Structure from the checkpoint file:  "JID_1539.chk"
 Charge = -1 Multiplicity = 2

                         Standard orientation:
 ---------------------------------------------------------------------
 Center     Atomic      Atomic             Coordinates (Angstroms)
 Number     Number       Type             X           Y           Z
 ---------------------------------------------------------------------
      1          6           0       -2.839385    1.577221    0.471463
      2          6           0       -1.490835    1.154072   -0.066993
      3          8           0       -0.510555    1.871284    0.006980
      4          6           0       -1.380515   -0.220400   -0.740622
      5          6           0        0.034422   -0.458875   -1.270744
      6          6           0        1.103269   -0.366069   -0.202129
      7          8           0        0.972793   -0.674987    0.965100
      8          7           0        2.337250    0.077814   -0.760900
      9          7           0        3.275002    0.157749    0.060828
     10          7           0        4.187112    0.268406    0.721321
     11         16           0       -2.037733   -1.581820    0.325551
     12          1           0       -2.868184    2.665805    0.550391
     13          1           0       -2.983061    1.144646    1.467481
     14          1           0       -3.660726    1.213118   -0.153650
     15          1           0       -2.075332   -0.220900   -1.589379
     16          1           0        0.093305   -1.457498   -1.719708
     17          1           0        0.269009    0.268742   -2.052072
     18          1           0       -1.026469   -1.518642    1.216884
 ---------------------------------------------------------------------

 SCF Done:  E(UB3LYP) =  -907.792583072     A.U. after   33 cycles
 SCF Done:  E(UB3LYP) =  -907.793882299     a.u. after   10 cycles

 The electronic state is 2-A.
 Alpha  occ. eigenvalues --  -88.72155 -18.97812 -18.96696 -14.32742 -14.24280
 Alpha  occ. eigenvalues --  -14.22309 -10.13953 -10.12229 -10.09561 -10.06064
 Alpha  occ. eigenvalues --  -10.05536  -7.80897  -5.77259  -5.76909  -5.76303
 Alpha  occ. eigenvalues --   -1.00544  -0.91947  -0.91205  -0.83253  -0.69984
 Alpha  occ. eigenvalues --   -0.63295  -0.60918  -0.55066  -0.49935  -0.41464
 Alpha  occ. eigenvalues --   -0.38237  -0.37692  -0.36810  -0.35591  -0.33353
 Alpha  occ. eigenvalues --   -0.32661  -0.31979  -0.30807  -0.29959  -0.28073
 Alpha  occ. eigenvalues --   -0.27244  -0.26258  -0.23693  -0.23055  -0.21318
 Alpha  occ. eigenvalues --   -0.19944  -0.14746  -0.13970  -0.13078  -0.11474
 Alpha  occ. eigenvalues --    0.05035
 Alpha virt. eigenvalues --    0.06875   0.08366   0.09233   0.09834   0.10629
 Alpha virt. eigenvalues --    0.11110   0.12173   0.12840   0.13693   0.13764
 Alpha virt. eigenvalues --    0.15420   0.15994   0.16925   0.17389   0.18189

  Beta  occ. eigenvalues --  -88.72138 -18.97630 -18.96525 -14.32352 -14.23871
  Beta  occ. eigenvalues --  -14.22441 -10.13684 -10.11995 -10.09559 -10.06077
  Beta  occ. eigenvalues --  -10.05546  -7.80878  -5.77229  -5.76893  -5.76288
  Beta  occ. eigenvalues --   -0.99898  -0.91575  -0.90833  -0.83015  -0.69840
  Beta  occ. eigenvalues --   -0.63059  -0.60737  -0.54769  -0.49627  -0.41115
  Beta  occ. eigenvalues --   -0.37629  -0.36525  -0.36448  -0.35280  -0.32855
  Beta  occ. eigenvalues --   -0.32321  -0.31293  -0.30481  -0.29674  -0.27883
  Beta  occ. eigenvalues --   -0.26748  -0.26068  -0.23179  -0.22271  -0.20991
  Beta  occ. eigenvalues --   -0.19670  -0.14487  -0.13494  -0.12893  -0.11312
  Beta virt. eigenvalues --    0.07808   0.09307   0.09794   0.10394   0.10631
  Beta virt. eigenvalues --    0.10819   0.11486   0.12332   0.13112   0.13709
  Beta virt. eigenvalues --    0.13993   0.15552   0.16036   0.16921   0.17636

 Mulliken charges and spin densities:
               1          2
     1  C   -0.217959  -0.363184
     2  C   -0.345850   0.240743
     3  O   -0.257588   0.065304
     4  C    0.933921  -0.076658
     5  C   -0.347018  -0.395874
     6  C   -0.163889   0.103099
     7  O   -0.339281   0.051309
     8  N    0.180697   0.120349
     9  N    0.117218  -0.022050
    10  N   -0.333258   0.187129
    11  S   -0.168362  -0.156486
    12  H    0.053664   0.085692
    13  H    0.153021   0.007881
    14  H   -0.160307   0.291349
    15  H   -0.364728   0.631095
    16  H    0.174361  -0.006330
    17  H    0.025519   0.215209
    18  H    0.059838   0.021423
 Sum of Mulliken charges =  -1.00000   1.00000

 Dipole moment (field-independent basis, Debye):
    X=             -2.0060    Y=             -1.0675    Z=             -0.1868  Tot=              2.2801
 Quadrupole moment (field-independent basis, Debye-Ang):
   XX=           -120.9071   YY=            -90.4026   ZZ=            -87.1658
   XY=             -3.3784   XZ=             -8.7296   YZ=              1.4919

 Summary of Natural Population Analysis:

                                       Natural Population
                Natural  -----------------------------------------------
    Atom  No    Charge         Core      Valence    Rydberg      Total
 -----------------------------------------------------------------------
      C    1   -0.33506      0.99962     2.32958    0.00586     3.33506
      C    2    0.30888      0.99965     1.66891    0.02257     2.69112
      O    3   -0.26851      0.99987     3.26234    0.00629     4.26851
      C    4   -0.19469      0.99951     2.18215    0.01302     3.19469
      C    5   -0.24057      0.99955     2.22921    0.01181     3.24057
      C    6    0.37653      0.99969     1.59699    0.02679     2.62347
      O    7   -0.30481      0.99986     3.29866    0.00629     4.30481
      N    8   -0.24419      0.99967     2.73203    0.01249     3.74419
      N    9    0.16667      0.99971     2.31605    0.01758     3.33333
      N   10    0.02292      0.99981     2.46506    0.01220     3.47708
      S   11   -0.03932      4.99963     3.02389    0.01580     8.03932
      H   12    0.10507      0.00000     0.39390    0.00103     0.39493
      H   13    0.11415      0.00000     0.38498    0.00087     0.38585
      H   14    0.10457      0.00000     0.39378    0.00165     0.39543
      H   15    0.11419      0.00000     0.38212    0.00369     0.38581
      H   16    0.11326      0.00000     0.38554    0.00120     0.38674
      H   17    0.11787      0.00000     0.38061    0.00152     0.38213
      H   18    0.08303      0.00000     0.41401    0.00296     0.41697
 =======================================================================
   * Total *    0.00000     14.99657    29.83983    0.16361    45.00000

 Normal termination of Gaussian 16 at Tue Dec  8 21:25:51 2020.
