 Gaussian 16, Revision A.03,

 -----------------------------------------------------------
 # opt freq B3LYP/6-31G(d) empiricaldispersion=gd3bj scf=xqc
 -----------------------------------------------------------

 ------------------------------
 CID_140560370_JID_865_neutraal
 ------------------------------
 Symbolic Z-matrix:
 Charge =  0 Multiplicity = 1

 SCF Done:  E(RB3LYP) =  -423.906274389     A.U. after   14 cycles
 SCF Done:  E(RB3LYP) =  -423.916412916     A.U. after   13 cycles
 SCF Done:  E(RB3LYP) =  -423.910449879     A.U. after   14 cycles
 SCF Done:  E(RB3LYP) =  -423.919456851     A.U. after   12 cycles
 SCF Done:  E(RB3LYP) =  -423.917478965     A.U. after   14 cycles
 SCF Done:  E(RB3LYP) =  -423.919685498     A.U. after   12 cycles
 SCF Done:  E(RB3LYP) =  -423.920147601     A.U. after   12 cycles
 SCF Done:  E(RB3LYP) =  -423.920214928     A.U. after   10 cycles
 SCF Done:  E(RB3LYP) =  -423.920230794     A.U. after   10 cycles
 SCF Done:  E(RB3LYP) =  -423.920233645     A.U. after    8 cycles
 SCF Done:  E(RB3LYP) =  -423.920234222     A.U. after    8 cycles
 SCF Done:  E(RB3LYP) =  -423.920234331     A.U. after    7 cycles
 Optimization completed.
    -- Stationary point found.

 1\1\GINC-NODE309\FOpt\RB3LYP\6-31G(d)\C8H16N2\VSC10255\14-Dec-2020\0\\
 # opt freq B3LYP/6-31G(d) empiricaldispersion=gd3bj scf=xqc\\CID_14056
 0370_JID_865_neutraal\\0,1\C,0.5667258283,-0.1835382387,-0.2392338416\
 C,0.4596823529,-0.1475327226,1.2163691793\C,0.3771175012,-0.1305261698
 ,2.4236992471\N,0.3122216753,-0.0362425034,3.779636252\C,-0.8899971398
 ,0.6256380282,4.2893917672\N,0.669219641,-1.2567058902,4.4370112222\C,
 1.7654987402,-1.1136938898,5.4214198756\C,1.5049065337,-0.0423507316,6
 .4956877062\C,1.8983312252,-2.4933094389,6.0786581701\C,3.0425630715,-

 Normal termination of Gaussian 16 at Mon Dec 14 16:26:15 2020.

 --------------------------------------------------------------------
 #N Geom=AllCheck Guess=TCheck SCRF=Check GenChk RB3LYP/6-31G(d) Freq
 --------------------------------------------------------------------

 Structure from the checkpoint file:  "JID_865.chk"
 ------------------------------
 CID_140560370_JID_865_neutraal
 ------------------------------
 Charge =  0 Multiplicity = 1

 SCF Done:  E(RB3LYP) =  -423.920234331     A.U. after    1 cycles

  Exact polarizability: 133.463 -10.148  91.347   2.056  -1.293  77.209
 Approx polarizability: 173.754 -20.389 123.368   2.601  -1.690 110.252

 ******    1 imaginary frequencies (negative Signs) ******

                      1                      2                      3
                      A                      A                      A
 Frequencies --    -20.3074                43.5100                63.0910
 Red. masses --      1.0167                 3.0900                 3.1624
 Frc consts  --      0.0002                 0.0034                 0.0074
 IR Inten    --      0.1335                 0.1543                 0.3234

                      4                      5                      6
                      A                      A                      A
 Frequencies --    121.9838               167.3806               196.7613
 Red. masses --      3.2937                 2.4457                 1.6337
 Frc consts  --      0.0289                 0.0404                 0.0373
 IR Inten    --      5.6575                 5.2048                 0.8437

                      7                      8                      9
                      A                      A                      A
 Frequencies --    211.5216               226.8926               269.0657
 Red. masses --      1.4815                 1.1250                 1.1366
 Frc consts  --      0.0391                 0.0341                 0.0485
 IR Inten    --      1.6409                 0.2284                 0.4988

                     10                     11                     12
                      A                      A                      A
 Frequencies --    278.0057               293.8056               309.4633
 Red. masses --      2.5730                 3.1242                 3.0125
 Frc consts  --      0.1172                 0.1589                 0.1700
 IR Inten    --      0.9722                 1.8822                 2.9966

                     13                     14                     15
                      A                      A                      A
 Frequencies --    324.5433               346.9845               386.2701
 Red. masses --      1.0523                 2.7993                 2.3839
 Frc consts  --      0.0653                 0.1986                 0.2096
 IR Inten    --      0.3168                 0.4139                 2.1181

                     16                     17                     18
                      A                      A                      A
 Frequencies --    406.9851               457.9038               488.5121
 Red. masses --      2.5537                 2.5604                 3.0365
 Frc consts  --      0.2492                 0.3163                 0.4269
 IR Inten    --      0.5153                 3.5590                 8.7365

                     19                     20                     21
                      A                      A                      A
 Frequencies --    510.3753               585.9799               709.5080
 Red. masses --      3.4580                 4.3280                 4.3607
 Frc consts  --      0.5307                 0.8756                 1.2934
 IR Inten    --      3.6088                 7.8134                26.6277

                     22                     23                     24
                      A                      A                      A
 Frequencies --    745.2650               788.3812               927.3242
 Red. masses --      3.4200                 2.4013                 1.7124
 Frc consts  --      1.1192                 0.8794                 0.8676
 IR Inten    --     23.2963                34.1192                 0.2760

                     25                     26                     27
                      A                      A                      A
 Frequencies --    931.5256               954.1760               972.5568
 Red. masses --      2.0611                 1.4368                 1.2077
 Frc consts  --      1.0537                 0.7707                 0.6730
 IR Inten    --      1.3896                 4.4774                 0.2052

                     28                     29                     30
                      A                      A                      A
 Frequencies --   1000.9769              1059.1347              1069.4082
 Red. masses --      3.5427                 1.4051                 1.3956
 Frc consts  --      2.0914                 0.9287                 0.9404
 IR Inten    --     13.2346                 1.6831                 2.5754

                     31                     32                     33
                      A                      A                      A
 Frequencies --   1071.3334              1074.2510              1108.3273
 Red. masses --      1.4489                 1.3517                 2.6746
 Frc consts  --      0.9798                 0.9190                 1.9357
 IR Inten    --      2.0543                 0.6241                14.3938

                     34                     35                     36
                      A                      A                      A
 Frequencies --   1152.0824              1200.0772              1252.9630
 Red. masses --      1.4770                 2.3206                 2.3665
 Frc consts  --      1.1551                 1.9691                 2.1889
 IR Inten    --     26.7465                 8.3533                36.6250

                     37                     38                     39
                      A                      A                      A
 Frequencies --   1272.1887              1291.8155              1350.0498
 Red. masses --      2.7075                 2.9500                 3.2562
 Frc consts  --      2.5818                 2.9005                 3.4967
 IR Inten    --     29.0520                 9.4207                11.4929

                     40                     41                     42
                      A                      A                      A
 Frequencies --   1418.6375              1423.3855              1447.1161
 Red. masses --      1.2653                 1.2664                 1.2417
 Frc consts  --      1.5003                 1.5117                 1.5321
 IR Inten    --      9.8700                 7.1130                17.7079

                     43                     44                     45
                      A                      A                      A
 Frequencies --   1449.7926              1468.2843              1502.5751
 Red. masses --      1.2754                 1.1623                 1.0673
 Frc consts  --      1.5795                 1.4763                 1.4198
 IR Inten    --      2.5545                 1.5880                 1.5134

                     46                     47                     48
                      A                      A                      A
 Frequencies --   1507.4140              1512.9482              1516.0359
 Red. masses --      1.0412                 1.1005                 1.0494
 Frc consts  --      1.3939                 1.4841                 1.4210
 IR Inten    --      5.1770                 4.0474                 2.8280

                     49                     50                     51
                      A                      A                      A
 Frequencies --   1516.3847              1520.0132              1522.6721
 Red. masses --      1.0441                 1.0452                 1.0726
 Frc consts  --      1.4145                 1.4228                 1.4652
 IR Inten    --      5.5316                 0.3599                 5.9000

                     52                     53                     54
                      A                      A                      A
 Frequencies --   1529.6498              1530.6295              1553.1386
 Red. masses --      1.0590                 1.0620                 1.0929
 Frc consts  --      1.4599                 1.4660                 1.5532
 IR Inten    --      2.1301                 3.9358                 9.4563

                     55                     56                     57
                      A                      A                      A
 Frequencies --   1554.4334              2379.0738              2990.0435
 Red. masses --      1.1113                11.7541                 1.0575
 Frc consts  --      1.5820                39.1973                 5.5704
 IR Inten    --      3.6008                78.6678                78.1956

                     58                     59                     60
                      A                      A                      A
 Frequencies --   3027.7911              3039.3029              3044.5264
 Red. masses --      1.0348                 1.0383                 1.0385
 Frc consts  --      5.5894                 5.6509                 5.6714
 IR Inten    --     63.5691                16.4953                39.2999

                     61                     62                     63
                      A                      A                      A
 Frequencies --   3059.2310              3080.9598              3088.7105
 Red. masses --      1.0366                 1.1019                 1.1004
 Frc consts  --      5.7161                 6.1629                 6.1855
 IR Inten    --     11.6480                21.8687                17.1921

                     64                     65                     66
                      A                      A                      A
 Frequencies --   3103.5020              3111.1276              3117.0314
 Red. masses --      1.0998                 1.0963                 1.0763
 Frc consts  --      6.2415                 6.2518                 6.1610
 IR Inten    --     12.4538                50.8720                19.3858

                     67                     68                     69
                      A                      A                      A
 Frequencies --   3126.6604              3129.7800              3137.2771
 Red. masses --      1.1011                 1.1018                 1.1027
 Frc consts  --      6.3419                 6.3590                 6.3945
 IR Inten    --      9.0623                31.7313                43.7622

                     70                     71                     72
                      A                      A                      A
 Frequencies --   3142.1644              3165.6101              3430.9536
 Red. masses --      1.1026                 1.1045                 1.0743
 Frc consts  --      6.4140                 6.5210                 7.4511
 IR Inten    --     25.6656                18.6349                 7.5748

 - Thermochemistry -
 -------------------
 Temperature   298.150 Kelvin.  Pressure   1.00000 Atm.
 Atom     1 has atomic number  6 and mass  12.00000

 Molecular mass:   140.13135 amu.
 Principal axes and moments of inertia in atomic units:
                           1         2         3
     Eigenvalues --   818.968052603.258212985.98812
           X            0.99999  -0.00511  -0.00012
           Y            0.00511   0.99997  -0.00538
           Z            0.00015   0.00538   0.99999
 This molecule is an asymmetric top.
 Rotational symmetry number  1.
 Warning -- assumption of classical behavior for rotation
           may cause significant error
 Rotational temperatures (Kelvin)      0.10576     0.03327     0.02901
 Rotational constants (GHZ):           2.20368     0.69326     0.60440
    1 imaginary frequencies ignored.
 Zero-point vibrational energy     608703.2 (Joules/Mol)
                                  145.48357 (Kcal/Mol)
 Warning -- explicit consideration of  19 degrees of freedom as
           vibrations may cause significant error
 Vibrational temperatures:     62.60    90.77   175.51   240.82   283.10
          (Kelvin)            304.33   326.45   387.13   399.99   422.72
                              445.25   466.95   499.23   555.76   585.56
                              658.82   702.86   734.32   843.09  1020.82
                             1072.27  1134.30  1334.21  1340.26  1372.85
                             1399.29  1440.18  1523.86  1538.64  1541.41
                             1545.61  1594.64  1657.59  1726.64  1802.73
                             1830.40  1858.63  1942.42  2041.10  2047.93
                             2082.08  2085.93  2112.53  2161.87  2168.83
                             2176.80  2181.24  2181.74  2186.96  2190.79
                             2200.82  2202.23  2234.62  2236.48  3422.96
                             4302.01  4356.32  4372.88  4380.39  4401.55
                             4432.81  4443.97  4465.25  4476.22  4484.71
                             4498.57  4503.06  4513.84  4520.87  4554.61
                             4936.38

 Zero-point correction=                           0.231843 (Hartree/Particle)
 Thermal correction to Energy=                    0.244073
 Thermal correction to Enthalpy=                  0.245017
 Thermal correction to Gibbs Free Energy=         0.194150
 Sum of electronic and zero-point Energies=           -423.688392
 Sum of electronic and thermal Energies=              -423.676161
 Sum of electronic and thermal Enthalpies=            -423.675217
 Sum of electronic and thermal Free Energies=         -423.726084

                     E (Thermal)             CV                S
                      KCal/Mol        Cal/Mol-Kelvin    Cal/Mol-Kelvin
 Total                  153.158             45.196            107.059
 Electronic               0.000              0.000              0.000
 Translational            0.889              2.981             40.724
 Rotational               0.889              2.981             30.233
 Vibrational            151.381             39.235             36.102
 Vibration     1          0.595              1.980              5.093
 Vibration     2          0.597              1.972              4.358
 Vibration     3          0.609              1.931              3.069
 Vibration     4          0.624              1.883              2.465
 Vibration     5          0.636              1.844              2.163
 Vibration     6          0.643              1.823              2.031
 Vibration     7          0.651              1.800              1.903
 Vibration     8          0.673              1.730              1.602
 Vibration     9          0.679              1.714              1.546
 Vibration    10          0.689              1.685              1.452
 Vibration    11          0.699              1.656              1.365
 Vibration    12          0.709              1.626              1.287
 Vibration    13          0.725              1.581              1.180
 Vibration    14          0.755              1.500              1.015
 Vibration    15          0.772              1.455              0.937
 Vibration    16          0.816              1.343              0.772
 Vibration    17          0.844              1.276              0.687
 Vibration    18          0.866              1.227              0.633
 Vibration    19          0.943              1.062              0.474

                           ! Non-Optimized Parameters !

 1\1\GINC-NODE309\Freq\RB3LYP\6-31G(d)\C8H16N2\VSC10255\14-Dec-2020\0\\
 #N Geom=AllCheck Guess=TCheck SCRF=Check GenChk RB3LYP/6-31G(d) Freq\\
 CID_140560370_JID_865_neutraal\\0,1\C,0.5667258283,-0.1835382387,-0.23
 92338416\C,0.4596823529,-0.1475327226,1.2163691793\C,0.3771175012,-0.1
 305261698,2.4236992471\N,0.3122216753,-0.0362425034,3.779636252\C,-0.8
 899971398,0.6256380282,4.2893917672\N,0.669219641,-1.2567058902,4.4370
 112222\C,1.7654987402,-1.1136938898,5.4214198756\C,1.5049065337,-0.042
 3507316,6.4956877062\C,1.8983312252,-2.4933094389,6.0786581701\C,3.042

 Normal termination of Gaussian 16 at Mon Dec 14 16:30:32 2020.

 ----------------------------------------------------------------------
 # B3LYP/6-311++G(d,p) empiricaldispersion=gd3bj scf=xqc pop=npa geom=c
 heck
 ----------------------------------------------------------------------

 --------------------------------------
 CID_140560370_JID_865_Energie_neutraal
 --------------------------------------
 Structure from the checkpoint file:  "JID_865.chk"
 Charge =  0 Multiplicity = 1

 SCF Done:  E(RB3LYP) =  -424.045561031     A.U. after   14 cycles
 Normal termination of Gaussian 16 at Mon Dec 14 16:32:08 2020.

 ----------------------------------------------------------------------
 # B3LYP/6-311++G(d,p) empiricaldispersion=gd3bj scf=xqc pop=npa geom=c
 heck
 ----------------------------------------------------------------------

 ------------------------------------
 CID_140560370_JID_865_Energie_kation
 ------------------------------------
 Structure from the checkpoint file:  "JID_865.chk"
 Charge =  1 Multiplicity = 2

 SCF Done:  E(UB3LYP) =  -423.767844131     A.U. after   19 cycles
 Normal termination of Gaussian 16 at Mon Dec 14 16:35:00 2020.
 Gaussian 16:  ES64L-G16RevA.03 25-Dec-2016

 -----------------------------------
 CID_140560370_JID_865_Energie_anion
 -----------------------------------
 Structure from the checkpoint file:  "JID_865.chk"
 Charge = -1 Multiplicity = 2

                         Standard orientation:
 ---------------------------------------------------------------------
 Center     Atomic      Atomic             Coordinates (Angstroms)
 Number     Number       Type             X           Y           Z
 ---------------------------------------------------------------------
      1          6           0        4.132330   -0.896223   -0.018362
      2          6           0        2.801057   -0.296899   -0.010781
      3          6           0        1.692494    0.188734   -0.011809
      4          7           0        0.455488    0.750487    0.065112
      5          6           0        0.440648    2.211284   -0.030373
      6          7           0       -0.512258    0.070550   -0.741283
      7          6           0       -1.705911   -0.386682    0.005359
      8          6           0       -2.422540    0.731659    0.783492
      9          6           0       -2.645526   -0.970748   -1.057155
     10          6           0       -1.252174   -1.485640    0.974074
     11          1           0        4.839949   -0.283672    0.554577
     12          1           0        4.535681   -0.997889   -1.034307
     13          1           0        4.126884   -1.894739    0.437216
     14          1           0        0.663316    2.558821   -1.053287
     15          1           0       -0.538271    2.589369    0.270073
     16          1           0        1.199433    2.616024    0.643570
     17          1           0       -0.783225    0.683686   -1.512639
     18          1           0       -2.748555    1.536013    0.112098
     19          1           0       -3.311925    0.339853    1.290140
     20          1           0       -1.763087    1.156213    1.546548
     21          1           0       -2.138426   -1.755074   -1.627452
     22          1           0       -3.536104   -1.398925   -0.585942
     23          1           0       -2.980984   -0.196042   -1.759186
     24          1           0       -0.762638   -2.295854    0.425310
     25          1           0       -0.537868   -1.083885    1.698517
     26          1           0       -2.109054   -1.894070    1.521295
 ---------------------------------------------------------------------

 SCF Done:  E(UB3LYP) =  -424.029916066     A.U. after   29 cycles

 The electronic state is 2-A.
 Alpha  occ. eigenvalues --  -14.25739 -14.22265 -10.10494 -10.09263 -10.08428
 Alpha  occ. eigenvalues --  -10.07415 -10.05567 -10.05060 -10.04879 -10.04837
 Alpha  occ. eigenvalues --   -0.89200  -0.75247  -0.66890  -0.65392  -0.60897
 Alpha  occ. eigenvalues --   -0.58727  -0.58129  -0.55647  -0.46185  -0.42568
 Alpha  occ. eigenvalues --   -0.39417  -0.37640  -0.35376  -0.33870  -0.32728
 Alpha  occ. eigenvalues --   -0.32566  -0.32203  -0.31972  -0.30783  -0.28427
 Alpha  occ. eigenvalues --   -0.27924  -0.26357  -0.26162  -0.23786  -0.22963
 Alpha  occ. eigenvalues --   -0.21191  -0.15717  -0.13708  -0.10188   0.04606
 Alpha virt. eigenvalues --    0.06545   0.07655   0.08429   0.09430   0.09684
 Alpha virt. eigenvalues --    0.09889   0.10472   0.11066   0.11555   0.11929
 Alpha virt. eigenvalues --    0.12429   0.13122   0.13695   0.14940   0.15033

  Beta  occ. eigenvalues --  -14.25735 -14.22246 -10.10491 -10.09219 -10.08394
  Beta  occ. eigenvalues --  -10.07412 -10.05534 -10.05021 -10.04874 -10.04817
  Beta  occ. eigenvalues --   -0.89182  -0.75225  -0.66856  -0.65350  -0.60844
  Beta  occ. eigenvalues --   -0.58671  -0.58072  -0.55589  -0.46135  -0.42526
  Beta  occ. eigenvalues --   -0.39357  -0.37604  -0.35333  -0.33830  -0.32687
  Beta  occ. eigenvalues --   -0.32526  -0.32165  -0.31931  -0.30741  -0.28392
  Beta  occ. eigenvalues --   -0.27892  -0.26322  -0.26128  -0.23751  -0.22930
  Beta  occ. eigenvalues --   -0.21162  -0.15700  -0.13687  -0.10156
  Beta virt. eigenvalues --    0.06712   0.07407   0.08469   0.09127   0.09915
  Beta virt. eigenvalues --    0.10185   0.10394   0.10989   0.11463   0.11922
  Beta virt. eigenvalues --    0.12296   0.12787   0.13429   0.14090   0.15144

 Mulliken charges and spin densities:
               1          2
     1  C    0.783846  -1.491144
     2  C   -0.685601   0.620173
     3  C    0.351405  -0.135404
     4  N   -0.279120   0.238884
     5  C    0.870016  -1.234118
     6  N    0.135081  -0.056173
     7  C   -1.878137   1.847287
     8  C    1.209136  -1.757478
     9  C    0.222648  -0.708995
    10  C    0.682151  -1.189887
    11  H   -0.193950   0.343682
    12  H   -0.154829   0.305608
    13  H   -0.092434   0.241780
    14  H   -0.479635   0.626367
    15  H   -0.264972   0.399327
    16  H   -0.213917   0.379966
    17  H    0.155828   0.058486
    18  H   -0.284868   0.454417
    19  H   -0.172628   0.307277
    20  H   -0.155172   0.315829
    21  H   -0.104965   0.262630
    22  H   -0.028623   0.167456
    23  H   -0.435396   0.576981
    24  H    0.092322   0.054728
    25  H   -0.000487   0.167138
    26  H   -0.077701   0.205182
 Sum of Mulliken charges =  -1.00000   1.00000

 Dipole moment (field-independent basis, Debye):
    X=              0.4551    Y=             -2.2857    Z=              0.9877  Tot=              2.5312
 Quadrupole moment (field-independent basis, Debye-Ang):
   XX=           -130.7127   YY=           -103.6907   ZZ=            -96.7104
   XY=              3.2674   XZ=             -1.2054   YZ=              1.8025

 Summary of Natural Population Analysis:

                                       Natural Population
                Natural  -----------------------------------------------
    Atom  No    Charge         Core      Valence    Rydberg      Total
 -----------------------------------------------------------------------
      C    1   -0.31298      0.99963     2.30843    0.00493     3.31298
      C    2   -0.04209      0.99923     2.03699    0.00588     3.04209
      C    3    0.08531      0.99913     1.90649    0.00907     2.91469
      N    4   -0.18694      0.99965     2.67344    0.01385     3.68694
      C    5   -0.17524      0.99963     2.16731    0.00830     3.17524
      N    6   -0.24419      0.99970     2.73134    0.01315     3.74419
      C    7    0.05277      0.99959     1.93359    0.01405     2.94723
      C    8   -0.29733      0.99962     2.29026    0.00745     3.29733
      C    9   -0.28782      0.99961     2.28069    0.00753     3.28782
      C   10   -0.28760      0.99961     2.28175    0.00624     3.28760
      H   11    0.10838      0.00000     0.38982    0.00180     0.39162
      H   12    0.10454      0.00000     0.39347    0.00198     0.39546
      H   13    0.10531      0.00000     0.39295    0.00174     0.39469
      H   14    0.08704      0.00000     0.41105    0.00190     0.41296
      H   15    0.09964      0.00000     0.39866    0.00170     0.40036
      H   16    0.10278      0.00000     0.39596    0.00126     0.39722
      H   17    0.17069      0.00000     0.32545    0.00387     0.32931
      H   18    0.10117      0.00000     0.39700    0.00182     0.39883
      H   19    0.10136      0.00000     0.39751    0.00113     0.39864
      H   20    0.10282      0.00000     0.39573    0.00145     0.39718
      H   21    0.10366      0.00000     0.39527    0.00106     0.39634
      H   22    0.10177      0.00000     0.39721    0.00102     0.39823
      H   23    0.10076      0.00000     0.39784    0.00140     0.39924
      H   24    0.10302      0.00000     0.39585    0.00113     0.39698
      H   25    0.10614      0.00000     0.39254    0.00132     0.39386
      H   26    0.09700      0.00000     0.40210    0.00089     0.40300
 =======================================================================
   * Total *   -0.00000      9.99539    28.88869    0.11592    39.00000

 Normal termination of Gaussian 16 at Mon Dec 14 16:39:15 2020.
