 Gaussian 16, Revision A.03,

 -----------------------------------------------------------
 # opt freq B3LYP/6-31G(d) empiricaldispersion=gd3bj scf=xqc
 -----------------------------------------------------------

 ------------------------------
 CID_142347493_JID_775_neutraal
 ------------------------------
 Symbolic Z-matrix:
 Charge =  0 Multiplicity = 1

 SCF Done:  E(RB3LYP) =  -443.851292833     A.U. after   13 cycles
 SCF Done:  E(RB3LYP) =  -443.855286162     A.U. after   13 cycles
 SCF Done:  E(RB3LYP) =  -443.856053830     A.U. after   14 cycles
 SCF Done:  E(RB3LYP) =  -443.857176797     A.U. after   13 cycles
 SCF Done:  E(RB3LYP) =  -443.857799475     A.U. after   11 cycles
 SCF Done:  E(RB3LYP) =  -443.857928316     A.U. after   13 cycles
 SCF Done:  E(RB3LYP) =  -443.858269183     A.U. after   11 cycles
 SCF Done:  E(RB3LYP) =  -443.858326644     A.U. after   10 cycles
 SCF Done:  E(RB3LYP) =  -443.858384385     A.U. after   10 cycles
 SCF Done:  E(RB3LYP) =  -443.858462821     A.U. after   11 cycles
 SCF Done:  E(RB3LYP) =  -443.860078875     A.U. after   10 cycles
 SCF Done:  E(RB3LYP) =  -443.860079572     A.U. after    9 cycles
 SCF Done:  E(RB3LYP) =  -443.860079874     A.U. after    8 cycles
 SCF Done:  E(RB3LYP) =  -443.860079954     A.U. after    8 cycles
 SCF Done:  E(RB3LYP) =  -443.860079974     A.U. after    7 cycles
 Optimization completed.
    -- Stationary point found.
 Normal termination of Gaussian 16 at Tue Dec  8 13:43:42 2020.

 --------------------------------------------------------------------
 #N Geom=AllCheck Guess=TCheck SCRF=Check GenChk RB3LYP/6-31G(d) Freq
 --------------------------------------------------------------------

 Structure from the checkpoint file:  "JID_775.chk"
 ------------------------------
 CID_142347493_JID_775_neutraal
 ------------------------------
 Charge =  0 Multiplicity = 1

 SCF Done:  E(RB3LYP) =  -443.860079974     A.U. after    1 cycles

  Exact polarizability:  78.608  12.910 103.009   3.741  -2.199  96.504
 Approx polarizability: 104.678  22.715 163.154   6.726  -1.608 141.135

                      1                      2                      3
                      A                      A                      A
 Frequencies --     14.6643                42.3479                44.3444
 Red. masses --      3.6711                 2.9540                 2.4515
 Frc consts  --      0.0005                 0.0031                 0.0028
 IR Inten    --      0.4665                 0.2457                 0.0932

                      4                      5                      6
                      A                      A                      A
 Frequencies --     86.5341                96.6364               112.8439
 Red. masses --      3.0350                 1.2620                 1.9883
 Frc consts  --      0.0134                 0.0069                 0.0149
 IR Inten    --      0.0565                 0.1337                 0.2017

                      7                      8                      9
                      A                      A                      A
 Frequencies --    135.4761               242.3097               294.3323
 Red. masses --      3.1462                 2.4500                 1.8054
 Frc consts  --      0.0340                 0.0848                 0.0922
 IR Inten    --      2.1761                10.3164                 6.7752

                     10                     11                     12
                      A                      A                      A
 Frequencies --    326.5654               329.2175               331.7737
 Red. masses --      1.3432                 1.0708                 1.8586
 Frc consts  --      0.0844                 0.0684                 0.1205
 IR Inten    --     19.7564                 3.4197                78.9037

                     13                     14                     15
                      A                      A                      A
 Frequencies --    350.1756               409.7173               422.8808
 Red. masses --      1.8056                 1.7623                 3.7241
 Frc consts  --      0.1304                 0.1743                 0.3924
 IR Inten    --     50.5961                19.3694                 7.3136

                     16                     17                     18
                      A                      A                      A
 Frequencies --    511.9180               549.6639               643.0628
 Red. masses --      3.8907                 5.2536                 1.6342
 Frc consts  --      0.6007                 0.9352                 0.3982
 IR Inten    --      4.9095                 0.9636               134.1836

                     19                     20                     21
                      A                      A                      A
 Frequencies --    678.8233               713.2828               743.6108
 Red. masses --      1.7914                 2.1152                 3.6342
 Frc consts  --      0.4864                 0.6340                 1.1840
 IR Inten    --    125.4569                52.0805                 2.0684

                     22                     23                     24
                      A                      A                      A
 Frequencies --    772.4641               791.9222               840.1219
 Red. masses --      1.8553                 1.5820                 1.0558
 Frc consts  --      0.6523                 0.5845                 0.4391
 IR Inten    --      1.8509               103.2791                 5.5086

                     25                     26                     27
                      A                      A                      A
 Frequencies --    843.8634               900.3972               905.0110
 Red. masses --      1.0568                 2.2738                 2.1840
 Frc consts  --      0.4434                 1.0861                 1.0539
 IR Inten    --     10.1940                 2.3268                 5.7648

                     28                     29                     30
                      A                      A                      A
 Frequencies --    996.4063              1013.0210              1052.6034
 Red. masses --      2.2921                 3.2994                 1.9966
 Frc consts  --      1.3408                 1.9949                 1.3034
 IR Inten    --     16.6101                 0.1686                 3.6108

                     31                     32                     33
                      A                      A                      A
 Frequencies --   1099.3072              1166.4004              1187.3441
 Red. masses --      1.5202                 1.2386                 1.8383
 Frc consts  --      1.0824                 0.9928                 1.5270
 IR Inten    --      4.8812                 9.6069               149.2936

                     34                     35                     36
                      A                      A                      A
 Frequencies --   1208.2922              1229.1863              1241.2504
 Red. masses --      1.1638                 1.6597                 1.4572
 Frc consts  --      1.0011                 1.4775                 1.3228
 IR Inten    --     34.0470                19.1884                 0.4168

                     37                     38                     39
                      A                      A                      A
 Frequencies --   1242.5363              1267.1054              1314.8273
 Red. masses --      1.4630                 2.1939                 1.5746
 Frc consts  --      1.3308                 2.0754                 1.6038
 IR Inten    --      0.2440                11.9515                43.3329

                     40                     41                     42
                      A                      A                      A
 Frequencies --   1359.3026              1383.5749              1402.5961
 Red. masses --      1.3461                 1.5481                 1.6683
 Frc consts  --      1.4654                 1.7460                 1.9337
 IR Inten    --     21.1641                22.8913                 9.2201

                     43                     44                     45
                      A                      A                      A
 Frequencies --   1434.7298              1456.6308              1489.8895
 Red. masses --      1.1984                 1.2500                 2.5842
 Frc consts  --      1.4534                 1.5627                 3.3798
 IR Inten    --      0.4533                 1.8393                33.4972

                     46                     47                     48
                      A                      A                      A
 Frequencies --   1504.7728              1516.5551              1531.6912
 Red. masses --      1.0871                 1.1061                 1.0348
 Frc consts  --      1.4503                 1.4988                 1.4304
 IR Inten    --      0.6187                 0.0286                 5.2202

                     49                     50                     51
                      A                      A                      A
 Frequencies --   1534.0665              1540.9257              1544.0185
 Red. masses --      1.0253                 1.0572                 1.0504
 Frc consts  --      1.4216                 1.4790                 1.4754
 IR Inten    --      0.1725                12.8890                 2.1409

                     52                     53                     54
                      A                      A                      A
 Frequencies --   1675.5740              1693.8833              1753.5638
 Red. masses --      1.1869                 5.9794                 6.4304
 Frc consts  --      1.9633                10.1081                11.6501
 IR Inten    --     44.8995               114.7444                 6.7983

                     55                     56                     57
                      A                      A                      A
 Frequencies --   2968.9192              2990.2232              3046.2604
 Red. masses --      1.0741                 1.0710                 1.0368
 Frc consts  --      5.5783                 5.6423                 5.6688
 IR Inten    --     37.2789                67.3691                27.8862

                     58                     59                     60
                      A                      A                      A
 Frequencies --   3049.7811              3074.5524              3078.7223
 Red. masses --      1.0362                 1.0892                 1.0889
 Frc consts  --      5.6783                 6.0662                 6.0811
 IR Inten    --     31.6535                42.6433                43.5366

                     61                     62                     63
                      A                      A                      A
 Frequencies --   3096.9665              3105.8143              3127.2671
 Red. masses --      1.1015                 1.1004                 1.1024
 Frc consts  --      6.2248                 6.2542                 6.3519
 IR Inten    --      9.2510                15.3448                49.5569

                     64                     65                     66
                      A                      A                      A
 Frequencies --   3131.8421              3164.4163              3174.4830
 Red. masses --      1.1023                 1.0906                 1.0900
 Frc consts  --      6.3700                 6.4344                 6.4715
 IR Inten    --     43.8040                24.8862                18.6739

                     67                     68                     69
                      A                      A                      A
 Frequencies --   3551.4907              3653.9659              3753.7493
 Red. masses --      1.0474                 1.0980                 1.0658
 Frc consts  --      7.7835                 8.6374                 8.8480
 IR Inten    --     14.7957                16.6254                30.3673

 - Thermochemistry -
 -------------------
 Temperature   298.150 Kelvin.  Pressure   1.00000 Atm.
 Atom     1 has atomic number  6 and mass  12.00000

 Molecular mass:   141.11536 amu.
 Principal axes and moments of inertia in atomic units:
                           1         2         3
     Eigenvalues --  1437.994641824.416012047.04783
           X            0.99987   0.01422  -0.00793
           Y           -0.01444   0.99949  -0.02848
           Z            0.00753   0.02859   0.99956
 This molecule is an asymmetric top.
 Rotational symmetry number  1.
 Warning -- assumption of classical behavior for rotation
           may cause significant error
 Rotational temperatures (Kelvin)      0.06023     0.04747     0.04231
 Rotational constants (GHZ):           1.25504     0.98922     0.88163
 Zero-point vibrational energy     579844.7 (Joules/Mol)
                                  138.58622 (Kcal/Mol)
 Warning -- explicit consideration of  17 degrees of freedom as
           vibrations may cause significant error
 Vibrational temperatures:     21.10    60.93    63.80   124.50   139.04
          (Kelvin)            162.36   194.92   348.63   423.48   469.85
                              473.67   477.35   503.82   589.49   608.43
                              736.54   790.84   925.22   976.68  1026.25
                             1069.89  1111.40  1139.40  1208.75  1214.13
                             1295.47  1302.11  1433.61  1457.51  1514.46
                             1581.66  1678.19  1708.32  1738.46  1768.52
                             1785.88  1787.73  1823.08  1891.74  1955.73
                             1990.66  2018.02  2064.26  2095.77  2143.62
                             2165.03  2181.98  2203.76  2207.18  2217.05
                             2221.50  2410.78  2437.12  2522.99  4271.61
                             4302.26  4382.89  4387.95  4423.60  4429.59
                             4455.84  4468.57  4499.44  4506.02  4552.89
                             4567.37  5109.80  5257.24  5400.81

 Zero-point correction=                           0.220851 (Hartree/Particle)
 Thermal correction to Energy=                    0.233800
 Thermal correction to Enthalpy=                  0.234744
 Thermal correction to Gibbs Free Energy=         0.179672
 Sum of electronic and zero-point Energies=           -443.639229
 Sum of electronic and thermal Energies=              -443.626280
 Sum of electronic and thermal Enthalpies=            -443.625336
 Sum of electronic and thermal Free Energies=         -443.680408

                     E (Thermal)             CV                S
                      KCal/Mol        Cal/Mol-Kelvin    Cal/Mol-Kelvin
 Total                  146.712             45.634            115.909
 Electronic               0.000              0.000              0.000
 Translational            0.889              2.981             40.745
 Rotational               0.889              2.981             30.064
 Vibrational            144.934             39.672             45.101
 Vibration     1          0.593              1.986              7.251
 Vibration     2          0.595              1.980              5.146
 Vibration     3          0.595              1.980              5.055
 Vibration     4          0.601              1.959              3.737
 Vibration     5          0.603              1.952              3.521
 Vibration     6          0.607              1.939              3.219
 Vibration     7          0.613              1.918              2.867
 Vibration     8          0.659              1.775              1.786
 Vibration     9          0.689              1.684              1.449
 Vibration    10          0.710              1.622              1.277
 Vibration    11          0.712              1.617              1.264
 Vibration    12          0.714              1.612              1.251
 Vibration    13          0.727              1.575              1.165
 Vibration    14          0.774              1.449              0.928
 Vibration    15          0.785              1.420              0.882
 Vibration    16          0.867              1.224              0.629
 Vibration    17          0.905              1.140              0.545

 Optimization completed.
    -- Stationary point found.
 Normal termination of Gaussian 16 at Tue Dec  8 13:49:59 2020.

 ----------------------------------------------------------------------
 # B3LYP/6-311++G(d,p) empiricaldispersion=gd3bj scf=xqc pop=npa geom=c
 heck
 ----------------------------------------------------------------------

 --------------------------------------
 CID_142347493_JID_775_Energie_neutraal
 --------------------------------------
 Structure from the checkpoint file:  "JID_775.chk"
 Charge =  0 Multiplicity = 1

 SCF Done:  E(RB3LYP) =  -444.002852241     A.U. after   14 cycles
 Normal termination of Gaussian 16 at Tue Dec  8 13:53:20 2020.

 ----------------------------------------------------------------------
 # B3LYP/6-311++G(d,p) empiricaldispersion=gd3bj scf=xqc pop=npa geom=c
 heck
 ----------------------------------------------------------------------

 ------------------------------------
 CID_142347493_JID_775_Energie_kation
 ------------------------------------
 Structure from the checkpoint file:  "JID_775.chk"
 Charge =  1 Multiplicity = 2

 SCF Done:  E(UB3LYP) =  -443.739314725     A.U. after   18 cycles
 Normal termination of Gaussian 16 at Tue Dec  8 13:59:23 2020.
 Gaussian 16:  ES64L-G16RevA.03 25-Dec-2016

 ----------------------------------------------------------------------
 # B3LYP/6-311++G(d,p) empiricaldispersion=gd3bj scf=xqc pop=npa geom=c
 heck
 ----------------------------------------------------------------------

 -----------------------------------
 CID_142347493_JID_775_Energie_anion
 -----------------------------------
 Structure from the checkpoint file:  "JID_775.chk"
 Charge = -1 Multiplicity = 2

                         Standard orientation:
 ---------------------------------------------------------------------
 Center     Atomic      Atomic             Coordinates (Angstroms)
 Number     Number       Type             X           Y           Z
 ---------------------------------------------------------------------
      1          6           0       -2.812627    0.518508   -0.526292
      2          6           0       -2.657226    0.792957    0.970841
      3          6           0        1.281531    1.623151    0.700016
      4          6           0        1.680603    1.504482   -0.777960
      5          6           0        0.872329    0.433393   -1.470136
      6          6           0        0.484273   -0.652926   -0.785891
      7          6           0        0.775289   -0.812355    0.654225
      8          6           0        1.175157    0.268561    1.357160
      9          7           0        0.656396   -2.109198    1.160811
     10          8           0       -0.220802   -1.710339   -1.313909
     11          1           0       -2.175597    1.187991   -1.114535
     12          1           0       -3.848869    0.660385   -0.855339
     13          1           0       -2.515733   -0.507213   -0.769046
     14          1           0       -1.622602    0.634187    1.292194
     15          1           0       -2.932895    1.824822    1.218510
     16          1           0       -3.297184    0.129994    1.565420
     17          1           0        2.009259    2.248756    1.229555
     18          1           0        0.313434    2.149679    0.769852
     19          1           0        1.545558    2.468541   -1.281167
     20          1           0        2.753888    1.261312   -0.850163
     21          1           0        0.661611    0.519461   -2.534666
     22          1           0        1.363213    0.181498    2.424856
     23          1           0        0.504473   -2.149104    2.161073
     24          1           0       -0.007729   -2.680154    0.652934
     25          1           0       -0.375159   -1.537678   -2.255665
 ---------------------------------------------------------------------

 SCF Done:  E(UB3LYP) =  -443.986803952     A.U. after   33 cycles
 SCF Done:  E(UB3LYP) =  -443.986803952     a.u. after    1 cycles

 The electronic state is 2-A.
 Alpha  occ. eigenvalues --  -19.04070 -14.20389 -10.12027 -10.10030 -10.06668
 Alpha  occ. eigenvalues --  -10.06523 -10.05107 -10.04664 -10.04509 -10.04046
 Alpha  occ. eigenvalues --   -0.95003  -0.80385  -0.71799  -0.63878  -0.62769
 Alpha  occ. eigenvalues --   -0.61850  -0.52044  -0.50474  -0.50180  -0.42804
 Alpha  occ. eigenvalues --   -0.40712  -0.39478  -0.36403  -0.33133  -0.32295
 Alpha  occ. eigenvalues --   -0.32111  -0.31437  -0.30647  -0.28913  -0.28312
 Alpha  occ. eigenvalues --   -0.26406  -0.25428  -0.23731  -0.23449  -0.22984
 Alpha  occ. eigenvalues --   -0.22385  -0.21720  -0.13185  -0.08374   0.04882
 Alpha virt. eigenvalues --    0.06830   0.07445   0.08043   0.08669   0.09442
 Alpha virt. eigenvalues --    0.09991   0.10370   0.10532   0.11449   0.12769
 Alpha virt. eigenvalues --    0.12961   0.13553   0.14514   0.15153   0.15961

  Beta  occ. eigenvalues --  -19.04013 -14.20353 -10.12022 -10.10026 -10.06658
  Beta  occ. eigenvalues --  -10.06514 -10.05078 -10.04650 -10.04489 -10.04015
  Beta  occ. eigenvalues --   -0.94902  -0.80334  -0.71760  -0.63841  -0.62723
  Beta  occ. eigenvalues --   -0.61797  -0.51959  -0.50436  -0.50095  -0.42701
  Beta  occ. eigenvalues --   -0.40646  -0.39417  -0.36370  -0.33091  -0.32270
  Beta  occ. eigenvalues --   -0.32083  -0.31374  -0.30591  -0.28871  -0.28269
  Beta  occ. eigenvalues --   -0.26380  -0.25359  -0.23690  -0.23420  -0.22956
  Beta  occ. eigenvalues --   -0.22347  -0.21679  -0.13145  -0.08339
  Beta virt. eigenvalues --    0.07141   0.07931   0.08243   0.08618   0.08885
  Beta virt. eigenvalues --    0.10076   0.10422   0.10755   0.10906   0.11599
  Beta virt. eigenvalues --    0.13284   0.13548   0.14097   0.14574   0.15329

 Mulliken charges and spin densities:
               1          2
     1  C   -0.127509  -0.261479
     2  C    0.119167  -0.588413
     3  C    0.611466  -0.895362
     4  C    0.328210  -1.089810
     5  C    0.279595  -0.228197
     6  C    0.745588  -0.772478
     7  C    1.951898  -1.996660
     8  C   -2.298734   2.284885
     9  N   -0.327468   0.001637
    10  O   -0.261121   0.045898
    11  H    0.047800   0.102106
    12  H   -0.382422   0.511716
    13  H    0.044884   0.087586
    14  H    0.178224   0.015440
    15  H   -0.103418   0.213920
    16  H   -0.051894   0.167303
    17  H    0.065579   0.079416
    18  H   -0.061115   0.171291
    19  H    0.129681   0.007106
    20  H   -0.053493   0.171120
    21  H   -1.032318   1.210495
    22  H   -0.445988   0.605977
    23  H   -0.069258   0.305572
    24  H    0.101675   0.167285
    25  H   -0.389027   0.683648
 Sum of Mulliken charges =  -1.00000   1.00000

 Dipole moment (field-independent basis, Debye):
    X=              2.0843    Y=              2.0561    Z=              3.0798  Tot=              4.2494
 Quadrupole moment (field-independent basis, Debye-Ang):
   XX=           -105.1364   YY=            -98.2249   ZZ=           -111.8593
   XY=              2.3050   XZ=             -3.3577   YZ=             -1.0982

 Summary of Natural Population Analysis:

                                       Natural Population
                Natural  -----------------------------------------------
    Atom  No    Charge         Core      Valence    Rydberg      Total
 -----------------------------------------------------------------------
      C    1   -0.28776      0.99968     2.28345    0.00463     3.28776
      C    2   -0.28632      0.99968     2.28228    0.00436     3.28632
      C    3   -0.19611      0.99963     2.18894    0.00754     3.19611
      C    4   -0.19365      0.99963     2.18640    0.00761     3.19365
      C    5   -0.13609      0.99949     2.12506    0.01155     3.13609
      C    6    0.14627      0.99932     1.83936    0.01505     2.85373
      C    7    0.06426      0.99943     1.92282    0.01349     2.93574
      C    8   -0.13467      0.99950     2.12443    0.01074     3.13467
      N    9   -0.39812      0.99971     2.88865    0.00976     3.89812
      O   10   -0.35223      0.99988     3.34428    0.00807     4.35223
      H   11    0.09734      0.00000     0.40100    0.00167     0.40266
      H   12    0.09009      0.00000     0.40882    0.00109     0.40991
      H   13    0.10170      0.00000     0.39633    0.00196     0.39830
      H   14    0.10163      0.00000     0.39644    0.00193     0.39837
      H   15    0.08930      0.00000     0.40949    0.00121     0.41070
      H   16    0.09144      0.00000     0.40725    0.00130     0.40856
      H   17    0.09694      0.00000     0.40152    0.00154     0.40306
      H   18    0.09536      0.00000     0.40273    0.00191     0.40464
      H   19    0.09884      0.00000     0.39966    0.00150     0.40116
      H   20    0.09376      0.00000     0.40458    0.00167     0.40624
      H   21    0.10095      0.00000     0.39653    0.00252     0.39905
      H   22    0.09425      0.00000     0.40463    0.00113     0.40575
      H   23    0.18371      0.00000     0.31401    0.00228     0.31629
      H   24    0.19407      0.00000     0.30350    0.00243     0.30593
      H   25    0.24504      0.00000     0.24053    0.01442     0.25496
 =======================================================================
   * Total *   -0.00000      9.99594    28.87270    0.13136    39.00000

 Normal termination of Gaussian 16 at Tue Dec  8 14:10:12 2020.
