 Gaussian 16, Revision A.03,

 -----------------------------------------------------------
 # opt freq B3LYP/6-31G(d) empiricaldispersion=gd3bj scf=xqc
 -----------------------------------------------------------

 -------------------------------
 CID_153364104_JID_1661_neutraal
 -------------------------------
 Symbolic Z-matrix:
 Charge =  0 Multiplicity = 1

 SCF Done:  E(RB3LYP) =  -463.315330183     A.U. after   14 cycles
 SCF Done:  E(RB3LYP) =  -463.315707296     A.U. after   13 cycles
 SCF Done:  E(RB3LYP) =  -463.317443757     A.U. after   12 cycles
 SCF Done:  E(RB3LYP) =  -463.318204975     A.U. after   12 cycles
 SCF Done:  E(RB3LYP) =  -463.318974190     A.U. after   12 cycles
 SCF Done:  E(RB3LYP) =  -463.319095291     A.U. after   11 cycles
 SCF Done:  E(RB3LYP) =  -463.319125065     A.U. after   11 cycles
 SCF Done:  E(RB3LYP) =  -463.319137680     A.U. after   10 cycles
 SCF Done:  E(RB3LYP) =  -463.319138766     A.U. after    8 cycles
 SCF Done:  E(RB3LYP) =  -463.319138950     A.U. after    7 cycles
 Optimization completed.
    -- Stationary point found.

 1\1\GINC-NODE307\FOpt\RB3LYP\6-31G(d)\C9H18N2\VSC10255\08-Dec-2020\0\\
 # opt freq B3LYP/6-31G(d) empiricaldispersion=gd3bj scf=xqc\\CID_15336
 4104_JID_1661_neutraal\\0,1\C,1.0248314023,0.2041136307,-0.1870867158\
 C,-0.3012889325,-0.242522788,-0.8319350705\C,-0.033161218,-1.188195512
 9,-2.0064620586\C,-1.2454005264,-0.7962864639,0.2245635499\C,-1.675210
 2047,-2.0752224718,0.2328276286\N,-2.52029042,-2.6647031928,1.16792663
 76\C,-1.7642440352,0.2162716694,1.1784179904\N,-1.7774482335,0.2471929
 191,2.4563186378\C,-1.0961996873,-0.7846541842,3.2420078063\C,0.155634

 Normal termination of Gaussian 16 at Tue Dec  8 20:45:42 2020.

 --------------------------------------------------------------------
 #N Geom=AllCheck Guess=TCheck SCRF=Check GenChk RB3LYP/6-31G(d) Freq
 --------------------------------------------------------------------

 Structure from the checkpoint file:  "JID_1661.chk"
 -------------------------------
 CID_153364104_JID_1661_neutraal
 -------------------------------
 Charge =  0 Multiplicity = 1

 SCF Done:  E(RB3LYP) =  -463.319138950     A.U. after    1 cycles

  Exact polarizability: 131.085  -0.838 112.783   2.704  -7.788  88.676
 Approx polarizability: 170.347  -1.107 165.351   3.820 -23.169 140.325

                      1                      2                      3
                      A                      A                      A
 Frequencies --     46.4389                59.1650                79.3799
 Red. masses --      2.8842                 2.9239                 2.7998
 Frc consts  --      0.0037                 0.0060                 0.0104
 IR Inten    --      0.2864                 0.5331                 0.2124

                      4                      5                      6
                      A                      A                      A
 Frequencies --    135.1156               149.3201               212.4253
 Red. masses --      3.9368                 3.4413                 1.6981
 Frc consts  --      0.0423                 0.0452                 0.0451
 IR Inten    --      1.5705                 1.6606                 1.9147

                      7                      8                      9
                      A                      A                      A
 Frequencies --    216.8842               221.1503               254.2114
 Red. masses --      2.4426                 1.2767                 1.1422
 Frc consts  --      0.0677                 0.0368                 0.0435
 IR Inten    --      0.4995                 1.8967                 1.2679

                     10                     11                     12
                      A                      A                      A
 Frequencies --    260.8742               302.0213               303.5104
 Red. masses --      1.1526                 2.1879                 1.2056
 Frc consts  --      0.0462                 0.1176                 0.0654
 IR Inten    --      0.5054                 0.7394                 0.2687

                     13                     14                     15
                      A                      A                      A
 Frequencies --    335.8551               342.1480               366.3437
 Red. masses --      1.9833                 2.2376                 2.0799
 Frc consts  --      0.1318                 0.1543                 0.1645
 IR Inten    --     14.8617                 5.2444                 3.1600

                     16                     17                     18
                      A                      A                      A
 Frequencies --    409.4811               441.1728               459.1959
 Red. masses --      2.5546                 1.4485                 2.7655
 Frc consts  --      0.2524                 0.1661                 0.3436
 IR Inten    --      3.5626                70.4548                 1.3889

                     19                     20                     21
                      A                      A                      A
 Frequencies --    493.5300               553.7980               626.5996
 Red. masses --      3.3973                 3.3372                 2.7751
 Frc consts  --      0.4875                 0.6030                 0.6420
 IR Inten    --      6.3145                 2.6762                 8.5592

                     22                     23                     24
                      A                      A                      A
 Frequencies --    665.1615               693.6241               802.0935
 Red. masses --      2.7121                 1.5762                 2.8240
 Frc consts  --      0.7070                 0.4468                 1.0705
 IR Inten    --     61.5691               189.1576                 0.1254

                     25                     26                     27
                      A                      A                      A
 Frequencies --    873.6517               898.3460               928.1243
 Red. masses --      2.5369                 1.9561                 1.7098
 Frc consts  --      1.1408                 0.9301                 0.8678
 IR Inten    --      1.2591                22.0748                 6.9115

                     28                     29                     30
                      A                      A                      A
 Frequencies --    939.2385               940.8942               949.7825
 Red. masses --      1.7594                 1.2015                 1.4272
 Frc consts  --      0.9144                 0.6267                 0.7586
 IR Inten    --     11.3066                 5.6744                 1.4914

                     31                     32                     33
                      A                      A                      A
 Frequencies --    954.9162               970.1713               977.1451
 Red. masses --      1.4826                 1.4861                 1.4664
 Frc consts  --      0.7965                 0.8241                 0.8249
 IR Inten    --      1.0333                 0.4292                 0.1293

                     34                     35                     36
                      A                      A                      A
 Frequencies --   1086.8547              1097.3156              1146.7041
 Red. masses --      2.1481                 1.6869                 2.0389
 Frc consts  --      1.4950                 1.1968                 1.5796
 IR Inten    --     12.0038                12.6182                 3.3287

                     37                     38                     39
                      A                      A                      A
 Frequencies --   1149.7083              1167.5502              1186.8948
 Red. masses --      2.0582                 1.8401                 1.7526
 Frc consts  --      1.6029                 1.4779                 1.4547
 IR Inten    --      3.7502                12.6139                16.8772

                     40                     41                     42
                      A                      A                      A
 Frequencies --   1208.1248              1229.2790              1294.6680
 Red. masses --      1.9570                 2.1170                 2.1888
 Frc consts  --      1.6829                 1.8849                 2.1616
 IR Inten    --      4.9492                11.6522                22.6882

                     43                     44                     45
                      A                      A                      A
 Frequencies --   1352.5214              1373.7033              1377.3678
 Red. masses --      1.3755                 1.3744                 1.5162
 Frc consts  --      1.4825                 1.5281                 1.6948
 IR Inten    --      7.1183                13.4327                19.4437

                     46                     47                     48
                      A                      A                      A
 Frequencies --   1397.8831              1413.7512              1420.5704
 Red. masses --      1.2404                 1.2939                 1.2663
 Frc consts  --      1.4281                 1.5237                 1.5057
 IR Inten    --     13.5146                 0.9636                 4.5657

                     49                     50                     51
                      A                      A                      A
 Frequencies --   1428.7376              1431.7488              1445.4162
 Red. masses --      1.2308                 1.3703                 1.2624
 Frc consts  --      1.4803                 1.6550                 1.5540
 IR Inten    --      2.1286                 9.7402                10.9811

                     52                     53                     54
                      A                      A                      A
 Frequencies --   1447.2296              1511.8201              1514.8774
 Red. masses --      1.2341                 1.0450                 1.0477
 Frc consts  --      1.5229                 1.4073                 1.4166
 IR Inten    --      3.3873                 0.4874                 0.4513

                     55                     56                     57
                      A                      A                      A
 Frequencies --   1519.9746              1522.6764              1526.0256
 Red. masses --      1.0443                 1.0557                 1.0512
 Frc consts  --      1.4214                 1.4422                 1.4423
 IR Inten    --      4.1130                 0.8315                 2.0456

                     58                     59                     60
                      A                      A                      A
 Frequencies --   1535.0322              1538.4776              1544.0198
 Red. masses --      1.0441                 1.0524                 1.0550
 Frc consts  --      1.4495                 1.4677                 1.4819
 IR Inten    --      9.5123                 3.5770                 5.1130

                     61                     62                     63
                      A                      A                      A
 Frequencies --   1673.5522              1706.6700              1741.2059
 Red. masses --      1.5447                 3.3584                 4.6659
 Frc consts  --      2.5489                 5.7634                 8.3346
 IR Inten    --     43.9701                92.6433                97.0569

                     64                     65                     66
                      A                      A                      A
 Frequencies --   2982.3143              3034.5965              3040.7575
 Red. masses --      1.0820                 1.0844                 1.0350
 Frc consts  --      5.6702                 5.8837                 5.6382
 IR Inten    --     25.6563                71.9589                26.2886

                     67                     68                     69
                      A                      A                      A
 Frequencies --   3046.1922              3048.4964              3053.0364
 Red. masses --      1.0361                 1.0341                 1.0349
 Frc consts  --      5.6646                 5.6622                 5.6837
 IR Inten    --     20.5735                34.5764                21.3938

                     70                     71                     72
                      A                      A                      A
 Frequencies --   3058.8973              3106.1655              3111.4924
 Red. masses --      1.0829                 1.1022                 1.1016
 Frc consts  --      5.9701                 6.2655                 6.2836
 IR Inten    --      6.8724                 5.7157                72.2300

                     73                     74                     75
                      A                      A                      A
 Frequencies --   3115.8761              3118.8393              3119.9094
 Red. masses --      1.1018                 1.1023                 1.1022
 Frc consts  --      6.3027                 6.3175                 6.3211
 IR Inten    --     33.3383                24.3976                52.7813

                     76                     77                     78
                      A                      A                      A
 Frequencies --   3120.7950              3126.6102              3131.1070
 Red. masses --      1.1023                 1.1029                 1.1024
 Frc consts  --      6.3255                 6.3522                 6.3680
 IR Inten    --     15.8248                25.9955                44.1567

                     79                     80                     81
                      A                      A                      A
 Frequencies --   3205.4276              3533.4146              3636.8309
 Red. masses --      1.0888                 1.0477                 1.0983
 Frc consts  --      6.5915                 7.7069                 8.5588
 IR Inten    --     12.0029                 6.4160                12.2673

 - Thermochemistry -
 -------------------
 Temperature   298.150 Kelvin.  Pressure   1.00000 Atm.
 Atom     1 has atomic number  6 and mass  12.00000

 Molecular mass:   154.14700 amu.
 Principal axes and moments of inertia in atomic units:
                           1         2         3
     Eigenvalues --  1138.438352532.251623171.44463
           X            0.99997  -0.00649   0.00337
           Y            0.00645   0.99989   0.01332
           Z           -0.00346  -0.01330   0.99991
 This molecule is an asymmetric top.
 Rotational symmetry number  1.
 Warning -- assumption of classical behavior for rotation
           may cause significant error
 Rotational temperatures (Kelvin)      0.07608     0.03420     0.02731
 Rotational constants (GHZ):           1.58528     0.71270     0.56906
 Zero-point vibrational energy     690501.8 (Joules/Mol)
                                  165.03389 (Kcal/Mol)
 Warning -- explicit consideration of  20 degrees of freedom as
           vibrations may cause significant error
 Vibrational temperatures:     66.82    85.13   114.21   194.40   214.84
          (Kelvin)            305.63   312.05   318.19   365.75   375.34
                              434.54   436.68   483.22   492.27   527.09
                              589.15   634.75   660.68   710.08   796.79
                              901.54   957.02   997.97  1154.03  1256.99
                             1292.52  1335.36  1351.35  1353.74  1366.53
                             1373.91  1395.86  1405.89  1563.74  1578.79
                             1649.85  1654.17  1679.84  1707.68  1738.22
                             1768.66  1862.74  1945.98  1976.45  1981.73
                             2011.24  2034.07  2043.88  2055.63  2059.97
                             2079.63  2082.24  2175.17  2179.57  2186.90
                             2190.79  2195.61  2208.57  2213.53  2221.50
                             2407.87  2455.52  2505.21  4290.89  4366.11
                             4374.97  4382.79  4386.11  4392.64  4401.07
                             4469.08  4476.74  4483.05  4487.31  4488.85
                             4490.13  4498.49  4504.96  4611.90  5083.80
                             5232.59

 Zero-point correction=                           0.262998 (Hartree/Particle)
 Thermal correction to Energy=                    0.276480
 Thermal correction to Enthalpy=                  0.277424
 Thermal correction to Gibbs Free Energy=         0.223756
 Sum of electronic and zero-point Energies=           -463.056141
 Sum of electronic and thermal Energies=              -463.042659
 Sum of electronic and thermal Enthalpies=            -463.041715
 Sum of electronic and thermal Free Energies=         -463.095383

                     E (Thermal)             CV                S
                      KCal/Mol        Cal/Mol-Kelvin    Cal/Mol-Kelvin
 Total                  173.494             50.445            112.954
 Electronic               0.000              0.000              0.000
 Translational            0.889              2.981             41.008
 Rotational               0.889              2.981             30.592
 Vibrational            171.716             44.483             41.353
 Vibration     1          0.595              1.979              4.964
 Vibration     2          0.597              1.974              4.485
 Vibration     3          0.600              1.963              3.906
 Vibration     4          0.613              1.918              2.872
 Vibration     5          0.618              1.903              2.681
 Vibration     6          0.643              1.822              2.023
 Vibration     7          0.646              1.815              1.985
 Vibration     8          0.648              1.809              1.950
 Vibration     9          0.665              1.756              1.701
 Vibration    10          0.669              1.744              1.656
 Vibration    11          0.694              1.670              1.406
 Vibration    12          0.695              1.667              1.397
 Vibration    13          0.717              1.604              1.232
 Vibration    14          0.721              1.591              1.202
 Vibration    15          0.739              1.541              1.095
 Vibration    16          0.774              1.450              0.928
 Vibration    17          0.801              1.380              0.823
 Vibration    18          0.817              1.341              0.768
 Vibration    19          0.849              1.264              0.674
 Vibration    20          0.909              1.131              0.536

                           ! Non-Optimized Parameters !

 1\1\GINC-NODE307\Freq\RB3LYP\6-31G(d)\C9H18N2\VSC10255\08-Dec-2020\0\\
 #N Geom=AllCheck Guess=TCheck SCRF=Check GenChk RB3LYP/6-31G(d) Freq\\
 CID_153364104_JID_1661_neutraal\\0,1\C,1.0248314023,0.2041136307,-0.18
 70867158\C,-0.3012889325,-0.242522788,-0.8319350705\C,-0.033161218,-1.
 1881955129,-2.0064620586\C,-1.2454005264,-0.7962864639,0.2245635499\C,
 -1.6752102047,-2.0752224718,0.2328276286\N,-2.52029042,-2.6647031928,1
 .1679266376\C,-1.7642440352,0.2162716694,1.1784179904\N,-1.7774482335,
 0.2471929191,2.4563186378\C,-1.0961996873,-0.7846541842,3.2420078063\C

 Normal termination of Gaussian 16 at Tue Dec  8 20:52:32 2020.

 ----------------------------------------------------------------------
 # B3LYP/6-311++G(d,p) empiricaldispersion=gd3bj scf=xqc pop=npa geom=c
 heck
 ----------------------------------------------------------------------

 ---------------------------------------
 CID_153364104_JID_1661_Energie_neutraal
 ---------------------------------------
 Structure from the checkpoint file:  "JID_1661.chk"
 Charge =  0 Multiplicity = 1

 SCF Done:  E(RB3LYP) =  -463.456468746     A.U. after   14 cycles
 Normal termination of Gaussian 16 at Tue Dec  8 20:55:47 2020.

 ----------------------------------------------------------------------
 # B3LYP/6-311++G(d,p) empiricaldispersion=gd3bj scf=xqc pop=npa geom=c
 heck
 ----------------------------------------------------------------------

 -------------------------------------
 CID_153364104_JID_1661_Energie_kation
 -------------------------------------
 Structure from the checkpoint file:  "JID_1661.chk"
 Charge =  1 Multiplicity = 2

 SCF Done:  E(UB3LYP) =  -463.169592072     A.U. after   25 cycles
 Normal termination of Gaussian 16 at Tue Dec  8 21:03:52 2020.
 Gaussian 16:  ES64L-G16RevA.03 25-Dec-2016

 ------------------------------------
 CID_153364104_JID_1661_Energie_anion
 ------------------------------------
 Structure from the checkpoint file:  "JID_1661.chk"
 Charge = -1 Multiplicity = 2

                         Standard orientation:
 ---------------------------------------------------------------------
 Center     Atomic      Atomic             Coordinates (Angstroms)
 Number     Number       Type             X           Y           Z
 ---------------------------------------------------------------------
      1          6           0        1.916012   -1.832637   -0.328096
      2          6           0        2.201794   -0.462128    0.315288
      3          6           0        3.399942    0.208121   -0.363618
      4          6           0        0.937440    0.383181    0.347743
      5          6           0        0.812682    1.550332   -0.317596
      6          7           0       -0.309407    2.372216   -0.356083
      7          6           0       -0.110172   -0.111100    1.276454
      8          7           0       -1.349673   -0.366468    1.095937
      9          6           0       -1.944116   -0.307162   -0.241686
     10          6           0       -2.209275   -1.753481   -0.680565
     11          6           0       -3.251046    0.487217   -0.164549
     12          1           0        1.092443   -2.345092    0.180277
     13          1           0        2.799175   -2.481207   -0.285215
     14          1           0        1.632572   -1.706329   -1.379935
     15          1           0        2.483027   -0.652822    1.364407
     16          1           0        3.209665    0.379305   -1.430222
     17          1           0        3.641018    1.171157    0.099646
     18          1           0        4.283737   -0.434414   -0.289509
     19          1           0        1.629843    1.914511   -0.932930
     20          1           0       -0.104658    3.357630   -0.467913
     21          1           0       -0.977136    2.211072    0.390393
     22          1           0        0.259775   -0.308299    2.293356
     23          1           0       -1.280639    0.162472   -0.978325
     24          1           0       -1.269540   -2.307703   -0.772847
     25          1           0       -2.838135   -2.265679    0.055609
     26          1           0       -2.717666   -1.771709   -1.651391
     27          1           0       -3.750519    0.500718   -1.139566
     28          1           0       -3.925193    0.035692    0.571192
     29          1           0       -3.073781    1.526392    0.133745
 ---------------------------------------------------------------------

 SCF Done:  E(UB3LYP) =  -463.442435460     A.U. after   33 cycles
 SCF Done:  E(UB3LYP) =  -463.442435460     a.u. after    1 cycles

 The electronic state is 2-A.
 Alpha  occ. eigenvalues --  -14.20850 -14.19367 -10.10242 -10.09614 -10.09258
 Alpha  occ. eigenvalues --  -10.07746 -10.06105 -10.05879 -10.05728 -10.05540
 Alpha  occ. eigenvalues --  -10.05344  -0.81872  -0.79737  -0.71083  -0.67482
 Alpha  occ. eigenvalues --   -0.61966  -0.58747  -0.58380  -0.53600  -0.50074
 Alpha  occ. eigenvalues --   -0.46499  -0.42794  -0.40683  -0.39025  -0.36319
 Alpha  occ. eigenvalues --   -0.34838  -0.34265  -0.32942  -0.31819  -0.30182
 Alpha  occ. eigenvalues --   -0.28960  -0.28771  -0.27784  -0.27567  -0.25809
 Alpha  occ. eigenvalues --   -0.24788  -0.24172  -0.24003  -0.23427  -0.22050
 Alpha  occ. eigenvalues --   -0.19253  -0.13989  -0.10213   0.04725
 Alpha virt. eigenvalues --    0.06909   0.07390   0.07899   0.08696   0.09161
 Alpha virt. eigenvalues --    0.09383   0.10186   0.10608   0.11301   0.11792
 Alpha virt. eigenvalues --    0.12351   0.12560   0.13511   0.13845   0.14095

  Beta  occ. eigenvalues --  -14.20784 -14.19320 -10.10228 -10.09587 -10.09255
  Beta  occ. eigenvalues --  -10.07732 -10.06091 -10.05867 -10.05713 -10.05545
  Beta  occ. eigenvalues --  -10.05309  -0.81801  -0.79644  -0.71043  -0.67457
  Beta  occ. eigenvalues --   -0.61900  -0.58717  -0.58328  -0.53522  -0.50026
  Beta  occ. eigenvalues --   -0.46444  -0.42744  -0.40586  -0.38977  -0.36277
  Beta  occ. eigenvalues --   -0.34776  -0.34230  -0.32913  -0.31773  -0.30133
  Beta  occ. eigenvalues --   -0.28936  -0.28742  -0.27747  -0.27530  -0.25765
  Beta  occ. eigenvalues --   -0.24754  -0.24140  -0.23974  -0.23389  -0.22005
  Beta  occ. eigenvalues --   -0.19122  -0.13937  -0.10167
  Beta virt. eigenvalues --    0.06905   0.07640   0.08013   0.08402   0.08981
  Beta virt. eigenvalues --    0.09704   0.09927   0.10227   0.11050   0.11745
  Beta virt. eigenvalues --    0.12212   0.12495   0.12688   0.13720   0.14200

 Mulliken charges and spin densities:
               1          2
     1  C    0.188626  -0.821418
     2  C   -2.203896   2.337269
     3  C    1.485011  -2.107594
     4  C    3.699849  -2.782767
     5  C   -1.512870   0.860036
     6  N   -0.159532  -0.086554
     7  C   -0.283049  -0.299148
     8  N    0.152342   0.021964
     9  C   -0.640596   0.280028
    10  C    0.067462  -0.556771
    11  C   -0.215879  -0.254022
    12  H    0.082913   0.068181
    13  H   -0.145452   0.277478
    14  H    0.004500   0.139250
    15  H    0.027760   0.110284
    16  H   -0.115473   0.252486
    17  H   -0.342329   0.497306
    18  H   -0.116098   0.258425
    19  H   -0.783666   0.973045
    20  H   -0.756075   1.059150
    21  H    0.273742  -0.055279
    22  H   -0.060592   0.239306
    23  H    0.209358  -0.040045
    24  H    0.089578   0.040664
    25  H    0.091514   0.058492
    26  H   -0.007741   0.125224
    27  H    0.035471   0.084155
    28  H    0.116968   0.025766
    29  H   -0.181846   0.295091
 Sum of Mulliken charges =  -1.00000   1.00000

 Dipole moment (field-independent basis, Debye):
    X=             -3.4845    Y=             -6.2811    Z=              1.0869  Tot=              7.2647
 Quadrupole moment (field-independent basis, Debye-Ang):
   XX=           -125.1754   YY=           -129.9978   ZZ=            -99.4000
   XY=             -3.4036   XZ=              4.4270   YZ=              4.7335

 Summary of Natural Population Analysis:

                                       Natural Population
                Natural  -----------------------------------------------
    Atom  No    Charge         Core      Valence    Rydberg      Total
 -----------------------------------------------------------------------
      C    1   -0.28123      0.99964     2.27576    0.00582     3.28123
      C    2   -0.11304      0.99959     2.10329    0.01016     3.11304
      C    3   -0.28626      0.99965     2.28052    0.00608     3.28626
      C    4   -0.10555      0.99945     2.09212    0.01398     3.10555
      C    5    0.02892      0.99945     1.95788    0.01375     2.97108
      N    6   -0.39725      0.99973     2.88534    0.01219     3.89725
      C    7    0.06590      0.99958     1.91753    0.01699     2.93410
      N    8   -0.23470      0.99969     2.72265    0.01237     3.73470
      C    9   -0.03898      0.99959     2.02623    0.01316     3.03898
      C   10   -0.28134      0.99964     2.27661    0.00509     3.28134
      C   11   -0.28025      0.99964     2.27530    0.00530     3.28025
      H   12    0.09881      0.00000     0.40012    0.00107     0.40119
      H   13    0.09573      0.00000     0.40335    0.00092     0.40427
      H   14    0.09732      0.00000     0.40160    0.00108     0.40268
      H   15    0.09123      0.00000     0.40680    0.00197     0.40877
      H   16    0.09785      0.00000     0.40083    0.00132     0.40215
      H   17    0.10390      0.00000     0.39451    0.00159     0.39610
      H   18    0.09970      0.00000     0.39917    0.00113     0.40030
      H   19    0.09963      0.00000     0.39770    0.00267     0.40037
      H   20    0.19475      0.00000     0.28959    0.01566     0.30525
      H   21    0.18471      0.00000     0.31219    0.00310     0.31529
      H   22    0.07997      0.00000     0.41793    0.00211     0.42003
      H   23    0.09462      0.00000     0.40243    0.00295     0.40538
      H   24    0.10067      0.00000     0.39841    0.00092     0.39933
      H   25    0.09742      0.00000     0.40152    0.00106     0.40258
      H   26    0.09582      0.00000     0.40332    0.00086     0.40418
      H   27    0.09589      0.00000     0.40322    0.00090     0.40411
      H   28    0.09664      0.00000     0.40220    0.00116     0.40336
      H   29    0.09913      0.00000     0.39976    0.00112     0.40087
 =======================================================================
   * Total *    0.00000     10.99566    31.84787    0.15647    43.00000

 Normal termination of Gaussian 16 at Tue Dec  8 21:15:54 2020.
