 Gaussian 16, Revision A.03,

 -----------------------------------------------------------
 # opt freq B3LYP/6-31G(d) empiricaldispersion=gd3bj scf=xqc
 -----------------------------------------------------------

 -------------------------------
 CID_129871802_JID_6236_neutraal
 -------------------------------
 Symbolic Z-matrix:
 Charge =  0 Multiplicity = 1

 SCF Done:  E(RB3LYP) =  -706.059939149     A.U. after   16 cycles
 SCF Done:  E(RB3LYP) =  -706.067735316     A.U. after   13 cycles
 SCF Done:  E(RB3LYP) =  -706.068274022     A.U. after   11 cycles
 SCF Done:  E(RB3LYP) =  -706.068298612     A.U. after    9 cycles
 SCF Done:  E(RB3LYP) =  -706.068301094     A.U. after    8 cycles
 Optimization completed.
    -- Stationary point found.
 Normal termination of Gaussian 16 at Thu Dec 10 21:08:59 2020.

 --------------------------------------------------------------------
 #N Geom=AllCheck Guess=TCheck SCRF=Check GenChk RB3LYP/6-31G(d) Freq
 --------------------------------------------------------------------

 Structure from the checkpoint file:  "JID_6236.chk"
 -------------------------------
 CID_129871802_JID_6236_neutraal
 -------------------------------
 Charge =  0 Multiplicity = 1

 SCF Done:  E(RB3LYP) =  -706.068301094     A.U. after    1 cycles

  Exact polarizability: 217.279  14.077 172.558   0.000  -0.001  54.040
 Approx polarizability: 337.795  51.794 330.405  -0.003   0.012  86.047

                      1                      2                      3
                      A                      A                      A
 Frequencies --     73.4753                89.1111               132.3568
 Red. masses --      5.4022                 4.8574                 1.2870
 Frc consts  --      0.0172                 0.0227                 0.0133
 IR Inten    --      4.6604                 2.0850                 0.0578

                      4                      5                      6
                      A                      A                      A
 Frequencies --    166.5142               176.1126               184.1906
 Red. masses --      4.8418                 4.5147                 2.5597
 Frc consts  --      0.0791                 0.0825                 0.0512
 IR Inten    --      0.5004                 3.5285                 2.0228

                      7                      8                      9
                      A                      A                      A
 Frequencies --    235.8125               301.1017               306.7922
 Red. masses --      5.1262                 4.6728                 4.2542
 Frc consts  --      0.1679                 0.2496                 0.2359
 IR Inten    --      2.3732                 0.1422                 3.4653

                     10                     11                     12
                      A                      A                      A
 Frequencies --    341.1774               426.1177               438.6311
 Red. masses --      6.4468                 6.4141                 4.1122
 Frc consts  --      0.4421                 0.6862                 0.4662
 IR Inten    --      0.8676                 4.4313                 0.2248

                     13                     14                     15
                      A                      A                      A
 Frequencies --    461.0001               494.5948               527.6109
 Red. masses --      5.2951                 3.8637                 8.5739
 Frc consts  --      0.6630                 0.5569                 1.4062
 IR Inten    --      7.2700                 0.0802                 0.4592

                     16                     17                     18
                      A                      A                      A
 Frequencies --    557.8550               559.1733               596.5958
 Red. masses --      6.5278                 3.7522                 5.6693
 Frc consts  --      1.1969                 0.6912                 1.1889
 IR Inten    --      2.4227                 0.6916                 1.1555

                     19                     20                     21
                      A                      A                      A
 Frequencies --    603.0197               650.1460               662.0338
 Red. masses --      4.2625                 4.6306                 7.3506
 Frc consts  --      0.9132                 1.1532                 1.8982
 IR Inten    --      0.5381                 2.4561                 3.0202

                     22                     23                     24
                      A                      A                      A
 Frequencies --    709.1994               752.8473               783.1567
 Red. masses --      5.2369                 2.7017                 6.4843
 Frc consts  --      1.5519                 0.9022                 2.3432
 IR Inten    --     15.0398                14.7908                13.8112

                     25                     26                     27
                      A                      A                      A
 Frequencies --    799.3402               814.4845               861.8823
 Red. masses --      1.4079                 4.9557                 1.5510
 Frc consts  --      0.5300                 1.9370                 0.6788
 IR Inten    --      9.2821                 0.1616                45.1679

                     28                     29                     30
                      A                      A                      A
 Frequencies --    878.5975               884.2562               925.0686
 Red. masses --      1.5437                 5.0783                 6.2568
 Frc consts  --      0.7021                 2.3395                 3.1546
 IR Inten    --     15.8047                 1.0577                 7.8836

                     31                     32                     33
                      A                      A                      A
 Frequencies --    966.6161               989.4423               999.3093
 Red. masses --      1.3912                 1.2897                 1.3272
 Frc consts  --      0.7659                 0.7439                 0.7809
 IR Inten    --      0.5168                 0.5292                 0.2906

                     34                     35                     36
                      A                      A                      A
 Frequencies --   1003.5959              1046.7123              1073.0794
 Red. masses --      3.3949                 1.7203                 2.3900
 Frc consts  --      2.0147                 1.1105                 1.6215
 IR Inten    --     13.5051                 4.6014                 2.2432

                     37                     38                     39
                      A                      A                      A
 Frequencies --   1080.9688              1123.0803              1153.3106
 Red. masses --      1.5326                 2.6150                 3.8131
 Frc consts  --      1.0552                 1.9433                 2.9883
 IR Inten    --      4.8112                39.2858                19.2563

                     40                     41                     42
                      A                      A                      A
 Frequencies --   1170.7444              1197.7290              1243.2575
 Red. masses --      1.2274                 1.8162                 2.2967
 Frc consts  --      0.9912                 1.5351                 2.0916
 IR Inten    --      0.3555                17.7596                43.4158

                     43                     44                     45
                      A                      A                      A
 Frequencies --   1251.5306              1263.5464              1319.8052
 Red. masses --      2.2917                 2.3555                 2.1970
 Frc consts  --      2.1149                 2.2157                 2.2548
 IR Inten    --      1.0642                 2.4420                 6.3425

                     46                     47                     48
                      A                      A                      A
 Frequencies --   1364.0413              1401.0481              1421.2690
 Red. masses --      4.5990                 2.9086                 4.0570
 Frc consts  --      5.0416                 3.3639                 4.8285
 IR Inten    --      4.4788                83.1430               183.8523

                     49                     50                     51
                      A                      A                      A
 Frequencies --   1436.8036              1446.8102              1486.4720
 Red. masses --      2.5998                 1.4697                 2.7792
 Frc consts  --      3.1621                 1.8126                 3.6182
 IR Inten    --     77.5768                35.4761                39.4150

                     52                     53                     54
                      A                      A                      A
 Frequencies --   1499.0237              1499.0855              1511.3819
 Red. masses --      1.0877                 2.8587                 1.0987
 Frc consts  --      1.4401                 3.7851                 1.4787
 IR Inten    --      8.9307                18.6636                 9.9167

                     55                     56                     57
                      A                      A                      A
 Frequencies --   1554.8571              1610.0344              1659.3943
 Red. masses --      4.2170                 7.6554                 5.7406
 Frc consts  --      6.0066                11.6920                 9.3134
 IR Inten    --     41.9993                 3.8168                21.2867

                     58                     59                     60
                      A                      A                      A
 Frequencies --   1667.6763              1696.1092              1750.4013
 Red. masses --      6.9737                 7.8177                10.8427
 Frc consts  --     11.4271                13.2506                19.5733
 IR Inten    --      2.2385                39.5081               418.1408

                     61                     62                     63
                      A                      A                      A
 Frequencies --   3060.0842              3116.2898              3163.3668
 Red. masses --      1.0376                 1.1009                 1.1015
 Frc consts  --      5.7246                 6.2989                 6.4945
 IR Inten    --      8.6524                 7.5682                 9.1833

                     64                     65                     66
                      A                      A                      A
 Frequencies --   3168.9350              3190.0423              3192.9460
 Red. masses --      1.0895                 1.0895                 1.0893
 Frc consts  --      6.4460                 6.5321                 6.5433
 IR Inten    --     27.3815                 0.0703                19.3071

                     67                     68                     69
                      A                      A                      A
 Frequencies --   3216.5411              3229.7815              3235.3257
 Red. masses --      1.0962                 1.0930                 1.0923
 Frc consts  --      6.6824                 6.7175                 6.7364
 IR Inten    --     22.6979                 5.5428                 3.0103

 - Thermochemistry -
 -------------------
 Temperature   298.150 Kelvin.  Pressure   1.00000 Atm.
 Atom     1 has atomic number  6 and mass  12.00000

 Molecular mass:   211.06333 amu.
 Principal axes and moments of inertia in atomic units:
                           1         2         3
     Eigenvalues --  1809.038924146.063305943.88672
           X            0.99930  -0.03739   0.00000
           Y            0.03739   0.99930  -0.00001
           Z           -0.00000   0.00001   1.00000
 This molecule is an asymmetric top.
 Rotational symmetry number  1.
 Warning -- assumption of classical behavior for rotation
           may cause significant error
 Rotational temperatures (Kelvin)      0.04788     0.02089     0.01457
 Rotational constants (GHZ):           0.99762     0.43529     0.30363
 Zero-point vibrational energy     501550.5 (Joules/Mol)
                                  119.87346 (Kcal/Mol)
 Warning -- explicit consideration of  19 degrees of freedom as
           vibrations may cause significant error
 Vibrational temperatures:    105.71   128.21   190.43   239.58   253.39
          (Kelvin)            265.01   339.28   433.22   441.41   490.88
                              613.09   631.09   663.28   711.61   759.11
                              802.63   804.53   858.37   867.61   935.42
                              952.52  1020.38  1083.18  1126.79  1150.07
                             1171.86  1240.06  1264.11  1272.25  1330.97
                             1390.75  1423.59  1437.78  1443.95  1505.99
                             1543.92  1555.27  1615.86  1659.36  1684.44
                             1723.26  1788.77  1800.67  1817.96  1898.91
                             1962.55  2015.80  2044.89  2067.24  2081.64
                             2138.70  2156.76  2156.85  2174.54  2237.09
                             2316.48  2387.50  2399.41  2440.32  2518.44
                             4402.78  4483.65  4551.38  4559.39  4589.76
                             4593.94  4627.89  4646.94  4654.91

 Zero-point correction=                           0.191031 (Hartree/Particle)
 Thermal correction to Energy=                    0.202891
 Thermal correction to Enthalpy=                  0.203836
 Thermal correction to Gibbs Free Energy=         0.153004
 Sum of electronic and zero-point Energies=           -705.877271
 Sum of electronic and thermal Energies=              -705.865410
 Sum of electronic and thermal Enthalpies=            -705.864466
 Sum of electronic and thermal Free Energies=         -705.915297

                     E (Thermal)             CV                S
                      KCal/Mol        Cal/Mol-Kelvin    Cal/Mol-Kelvin
 Total                  127.316             47.576            106.984
 Electronic               0.000              0.000              0.000
 Translational            0.889              2.981             41.945
 Rotational               0.889              2.981             32.167
 Vibrational            125.539             41.615             32.873
 Vibration     1          0.599              1.967              4.058
 Vibration     2          0.602              1.957              3.679
 Vibration     3          0.612              1.921              2.912
 Vibration     4          0.624              1.884              2.474
 Vibration     5          0.628              1.872              2.369
 Vibration     6          0.631              1.861              2.286
 Vibration     7          0.655              1.786              1.834
 Vibration     8          0.693              1.672              1.411
 Vibration     9          0.697              1.661              1.380
 Vibration    10          0.721              1.593              1.207
 Vibration    11          0.788              1.413              0.871
 Vibration    12          0.799              1.386              0.831
 Vibration    13          0.819              1.337              0.763
 Vibration    14          0.850              1.262              0.672
 Vibration    15          0.883              1.189              0.593
 Vibration    16          0.913              1.123              0.528
 Vibration    17          0.915              1.120              0.525
 Vibration    18          0.954              1.039              0.456
 Vibration    19          0.961              1.025              0.444

                           ! Non-Optimized Parameters !
 Normal termination of Gaussian 16 at Thu Dec 10 21:17:26 2020.

 ----------------------------------------------------------------------
 # B3LYP/6-311++G(d,p) empiricaldispersion=gd3bj scf=xqc pop=npa geom=c
 heck
 ----------------------------------------------------------------------

 ---------------------------------------
 CID_129871802_JID_6236_Energie_neutraal
 ---------------------------------------
 Structure from the checkpoint file:  "JID_6236.chk"
 Charge =  0 Multiplicity = 1

 SCF Done:  E(RB3LYP) =  -706.249676722     A.U. after   16 cycles
 Normal termination of Gaussian 16 at Thu Dec 10 21:21:15 2020.

 ----------------------------------------------------------------------
 # B3LYP/6-311++G(d,p) empiricaldispersion=gd3bj scf=xqc pop=npa geom=c
 heck
 ----------------------------------------------------------------------

 -------------------------------------
 CID_129871802_JID_6236_Energie_kation
 -------------------------------------
 Structure from the checkpoint file:  "JID_6236.chk"
 Charge =  1 Multiplicity = 2

 SCF Done:  E(UB3LYP) =  -705.945290489     A.U. after   30 cycles
 Normal termination of Gaussian 16 at Thu Dec 10 21:31:09 2020.
 Gaussian 16:  ES64L-G16RevA.03 25-Dec-2016

 ----------------------------------------------------------------------
 # B3LYP/6-311++G(d,p) empiricaldispersion=gd3bj scf=xqc pop=npa geom=c
 heck
 ----------------------------------------------------------------------

 ------------------------------------
 CID_129871802_JID_6236_Energie_anion
 ------------------------------------
 Structure from the checkpoint file:  "JID_6236.chk"
 Charge = -1 Multiplicity = 2

                         Standard orientation:
 ---------------------------------------------------------------------
 Center     Atomic      Atomic             Coordinates (Angstroms)
 Number     Number       Type             X           Y           Z
 ---------------------------------------------------------------------
      1          6           0        2.954101   -2.615816    0.000496
      2          6           0        2.342634   -1.253474   -0.000206
      3          6           0        3.007335   -0.076063   -0.000211
      4          6           0        2.308975    1.202988   -0.000376
      5          8           0        2.876656    2.294826    0.000230
      6          6           0        0.833626    1.073822   -0.000127
      7          6           0        0.247176   -0.181261   -0.000173
      8          8           0        0.983823   -1.326828   -0.000275
      9          6           0       -1.174614   -0.342525   -0.000103
     10          6           0       -1.973152    0.841814    0.000079
     11          6           0       -3.377646    0.665331    0.000172
     12          6           0       -3.901591   -0.606643    0.000089
     13          6           0       -3.012545   -1.707203   -0.000085
     14          7           0       -1.697859   -1.595162   -0.000177
     15          6           0       -1.352461    2.124495    0.000165
     16          6           0        0.011218    2.232754    0.000061
     17          1           0        4.043699   -2.547993   -0.003109
     18          1           0        2.626729   -3.180391   -0.879904
     19          1           0        2.632615   -3.176852    0.885374
     20          1           0        4.090958   -0.067503   -0.000132
     21          1           0       -4.022491    1.540329    0.000312
     22          1           0       -4.973761   -0.775867    0.000159
     23          1           0       -3.409083   -2.721453   -0.000152
     24          1           0       -1.982258    3.009996    0.000297
     25          1           0        0.516446    3.192559    0.000079
 ---------------------------------------------------------------------

 SCF Done:  E(UB3LYP) =  -706.271706405     A.U. after   23 cycles

 The electronic state is 2-A.
 Alpha  occ. eigenvalues --  -19.05282 -18.94183 -14.14490 -10.13364 -10.10116
 Alpha  occ. eigenvalues --  -10.08814 -10.07935 -10.06291 -10.05963 -10.04817
 Alpha  occ. eigenvalues --  -10.04703 -10.04052 -10.03707 -10.03218 -10.03055
 Alpha  occ. eigenvalues --  -10.02830  -0.97936  -0.87827  -0.79654  -0.71419
 Alpha  occ. eigenvalues --   -0.69462  -0.66304  -0.63265  -0.61019  -0.59481
 Alpha  occ. eigenvalues --   -0.52547  -0.50276  -0.49545  -0.45301  -0.42791
 Alpha  occ. eigenvalues --   -0.40076  -0.38609  -0.35767  -0.35396  -0.34858
 Alpha  occ. eigenvalues --   -0.33264  -0.31085  -0.30580  -0.30506  -0.29537
 Alpha  occ. eigenvalues --   -0.27870  -0.27667  -0.26218  -0.25970  -0.25357
 Alpha  occ. eigenvalues --   -0.24516  -0.23462  -0.20701  -0.20090  -0.16853
 Alpha  occ. eigenvalues --   -0.13250  -0.11640  -0.11267  -0.10574  -0.09512
 Alpha  occ. eigenvalues --    0.03565
 Alpha virt. eigenvalues --    0.07660   0.07894   0.08799   0.09959   0.10542
 Alpha virt. eigenvalues --    0.11115   0.11174   0.12457   0.12603   0.12718
 Alpha virt. eigenvalues --    0.13791   0.14838   0.15212   0.15673   0.16580

  Beta  occ. eigenvalues --  -19.05146 -18.93971 -14.14018 -10.13338 -10.10021
  Beta  occ. eigenvalues --  -10.08496 -10.07939 -10.06288 -10.05987 -10.04862
  Beta  occ. eigenvalues --  -10.04717 -10.04095 -10.03604 -10.03123 -10.02777
  Beta  occ. eigenvalues --  -10.02643  -0.97667  -0.87451  -0.79066  -0.71103
  Beta  occ. eigenvalues --   -0.69330  -0.65799  -0.62997  -0.60805  -0.59215
  Beta  occ. eigenvalues --   -0.52231  -0.49936  -0.49361  -0.44951  -0.42625
  Beta  occ. eigenvalues --   -0.39893  -0.38437  -0.35576  -0.35016  -0.34740
  Beta  occ. eigenvalues --   -0.33072  -0.31057  -0.30405  -0.29995  -0.29395
  Beta  occ. eigenvalues --   -0.27638  -0.27560  -0.25778  -0.25290  -0.24423
  Beta  occ. eigenvalues --   -0.24409  -0.23318  -0.20522  -0.19221  -0.15420
  Beta  occ. eigenvalues --   -0.12325  -0.10844  -0.10838  -0.10258  -0.08015
  Beta virt. eigenvalues --    0.07638   0.08433   0.08770   0.09270   0.09937
  Beta virt. eigenvalues --    0.10528   0.11137   0.11274   0.12441   0.12702
  Beta virt. eigenvalues --    0.12790   0.14738   0.14822   0.15211   0.16074

 Mulliken charges and spin densities:
               1          2
     1  C   -0.506425  -0.000269
     2  C    0.203602   0.019546
     3  C    0.540838  -0.000321
     4  C   -1.262530   0.033829
     5  O   -0.398035   0.074280
     6  C    1.194760   0.085236
     7  C   -1.479770   0.199811
     8  O    0.022715   0.033418
     9  C   -1.421840  -0.043815
    10  C    1.332906  -0.029584
    11  C    0.332924   0.187807
    12  C   -0.757297   0.180413
    13  C    0.221964  -0.001156
    14  N   -0.119498   0.226012
    15  C   -0.139683   0.088491
    16  C    0.029964  -0.025662
    17  H    0.156818  -0.000227
    18  H    0.153472   0.003655
    19  H    0.153389   0.003688
    20  H    0.144768  -0.000921
    21  H    0.097131  -0.019399
    22  H    0.104553  -0.010943
    23  H    0.141580  -0.001109
    24  H    0.098490  -0.004658
    25  H    0.155202   0.001878
 Sum of Mulliken charges =  -1.00000   1.00000

 Dipole moment (field-independent basis, Debye):
    X=              0.5150    Y=             -2.7429    Z=              0.0003  Tot=              2.7908
 Quadrupole moment (field-independent basis, Debye-Ang):
   XX=           -125.7965   YY=           -113.9641   ZZ=           -100.4834
   XY=            -20.5185   XZ=             -0.0008   YZ=             -0.0023

 Summary of Natural Population Analysis:

                                       Natural Population
                Natural  -----------------------------------------------
    Atom  No    Charge         Core      Valence    Rydberg      Total
 -----------------------------------------------------------------------
      C    1   -0.30407      0.99963     2.29971    0.00473     3.30407
      C    2    0.19229      0.99945     1.79677    0.01149     2.80771
      C    3   -0.18465      0.99946     2.17617    0.00902     3.18465
      C    4    0.25132      0.99957     1.72868    0.02043     2.74868
      O    5   -0.30520      0.99988     3.29841    0.00690     4.30520
      C    6   -0.07271      0.99938     2.06526    0.00807     3.07271
      C    7    0.22496      0.99933     1.76414    0.01157     2.77504
      O    8   -0.22948      0.99983     3.21807    0.01158     4.22948
      C    9    0.07388      0.99938     1.91446    0.01228     2.92612
      C   10   -0.03930      0.99939     2.03154    0.00837     3.03930
      C   11   -0.04089      0.99956     2.03154    0.00979     3.04089
      C   12   -0.09614      0.99956     2.08767    0.00890     3.09614
      C   13    0.01690      0.99962     1.96765    0.01582     2.98310
      N   14   -0.16379      0.99967     2.65389    0.01023     3.66379
      C   15   -0.09150      0.99956     2.08259    0.00935     3.09150
      C   16   -0.09776      0.99957     2.08871    0.00948     3.09776
      H   17    0.10023      0.00000     0.39902    0.00074     0.39977
      H   18    0.10678      0.00000     0.39202    0.00120     0.39322
      H   19    0.10674      0.00000     0.39206    0.00120     0.39326
      H   20    0.10093      0.00000     0.39697    0.00211     0.39907
      H   21    0.08624      0.00000     0.41189    0.00187     0.41376
      H   22    0.08928      0.00000     0.40945    0.00127     0.41072
      H   23    0.07679      0.00000     0.42181    0.00140     0.42321
      H   24    0.09332      0.00000     0.40578    0.00090     0.40668
      H   25    0.10595      0.00000     0.39215    0.00190     0.39405
 =======================================================================
   * Total *    0.00013     15.99285    38.82642    0.18061    54.99987

 Normal termination of Gaussian 16 at Thu Dec 10 21:38:56 2020.
