 Gaussian 16, Revision A.03,

 -----------------------------------------------------------
 # opt freq B3LYP/6-31G(d) empiricaldispersion=gd3bj scf=xqc
 -----------------------------------------------------------

 -------------------------------
 CID_153380905_JID_2070_neutraal
 -------------------------------
 Symbolic Z-matrix:
 Charge =  0 Multiplicity = 1

 SCF Done:  E(RB3LYP) =  -537.311756478     A.U. after   14 cycles
 SCF Done:  E(RB3LYP) =  -537.321244646     A.U. after   12 cycles
 SCF Done:  E(RB3LYP) =  -537.321409592     A.U. after   12 cycles
 SCF Done:  E(RB3LYP) =  -537.322238831     A.U. after   12 cycles
 SCF Done:  E(RB3LYP) =  -537.322466410     A.U. after   11 cycles
 SCF Done:  E(RB3LYP) =  -537.322621205     A.U. after   12 cycles
 SCF Done:  E(RB3LYP) =  -537.322768969     A.U. after   11 cycles
 SCF Done:  E(RB3LYP) =  -537.322900957     A.U. after   12 cycles
 SCF Done:  E(RB3LYP) =  -537.322955650     A.U. after   11 cycles
 SCF Done:  E(RB3LYP) =  -537.322965330     A.U. after    9 cycles
 SCF Done:  E(RB3LYP) =  -537.324351132     A.U. after   10 cycles
 SCF Done:  E(RB3LYP) =  -537.324351252     A.U. after    7 cycles
 SCF Done:  E(RB3LYP) =  -537.324351329     A.U. after    8 cycles
 SCF Done:  E(RB3LYP) =  -537.324351376     A.U. after    7 cycles
 SCF Done:  E(RB3LYP) =  -537.324351371     A.U. after    6 cycles
 Optimization completed.
    -- Stationary point found.
 Normal termination of Gaussian 16 at Wed Dec  9 17:04:57 2020.

 --------------------------------------------------------------------
 #N Geom=AllCheck Guess=TCheck SCRF=Check GenChk RB3LYP/6-31G(d) Freq
 --------------------------------------------------------------------

 Structure from the checkpoint file:  "JID_2070.chk"
 -------------------------------
 CID_153380905_JID_2070_neutraal
 -------------------------------
 Charge =  0 Multiplicity = 1

 SCF Done:  E(RB3LYP) =  -537.324351371     A.U. after    1 cycles

  Exact polarizability: 126.698  -8.516 105.392  -5.168   4.179  93.643
 Approx polarizability: 162.435 -16.756 153.754 -11.426  14.794 138.863

                      1                      2                      3
                      A                      A                      A
 Frequencies --     19.9204                42.1322                71.1404
 Red. masses --      3.4256                 3.6116                 3.0368
 Frc consts  --      0.0008                 0.0038                 0.0091
 IR Inten    --      2.4841                 0.1183                 3.4939

                      4                      5                      6
                      A                      A                      A
 Frequencies --     89.5782               104.6248               118.5117
 Red. masses --      1.4305                 2.1825                 2.7675
 Frc consts  --      0.0068                 0.0141                 0.0229
 IR Inten    --      1.2944                 0.8026                 0.1511

                      7                      8                      9
                      A                      A                      A
 Frequencies --    162.7598               170.2864               202.8340
 Red. masses --      2.4281                 3.8083                 2.4262
 Frc consts  --      0.0379                 0.0651                 0.0588
 IR Inten    --      6.0097                 0.8076                 2.7916

                     10                     11                     12
                      A                      A                      A
 Frequencies --    252.2229               287.3559               323.1514
 Red. masses --      1.4722                 2.1942                 2.7105
 Frc consts  --      0.0552                 0.1067                 0.1668
 IR Inten    --      0.5636                 0.2974                 3.2107

                     13                     14                     15
                      A                      A                      A
 Frequencies --    382.6316               387.8346               424.3156
 Red. masses --      2.8394                 2.5899                 2.5969
 Frc consts  --      0.2449                 0.2295                 0.2755
 IR Inten    --      3.1964                 0.5170                14.0911

                     16                     17                     18
                      A                      A                      A
 Frequencies --    516.5470               559.1953               590.7803
 Red. masses --      2.2602                 3.8016                 3.8104
 Frc consts  --      0.3553                 0.7004                 0.7836
 IR Inten    --     13.8862                20.3788                27.0359

                     19                     20                     21
                      A                      A                      A
 Frequencies --    674.3203               740.6459               750.4234
 Red. masses --      2.2233                 1.9775                 1.6367
 Frc consts  --      0.5956                 0.6391                 0.5430
 IR Inten    --      3.3629                 4.5681                 1.7079

                     22                     23                     24
                      A                      A                      A
 Frequencies --    777.7278               788.1332               841.7656
 Red. masses --      2.5260                 2.4899                 1.7073
 Frc consts  --      0.9002                 0.9112                 0.7128
 IR Inten    --     10.4595                 0.2148               109.2816

                     25                     26                     27
                      A                      A                      A
 Frequencies --    876.9153               894.9197               931.3310
 Red. masses --      1.5032                 2.0602                 2.6776
 Frc consts  --      0.6811                 0.9721                 1.3684
 IR Inten    --     13.4024                 2.9620                 1.7604

                     28                     29                     30
                      A                      A                      A
 Frequencies --    945.4371               973.5536              1007.6125
 Red. masses --      2.0118                 2.9707                 2.2896
 Frc consts  --      1.0595                 1.6589                 1.3696
 IR Inten    --      6.8374                 5.0455                11.4394

                     31                     32                     33
                      A                      A                      A
 Frequencies --   1052.4004              1076.1737              1093.1843
 Red. masses --      1.0939                 3.3982                 1.7189
 Frc consts  --      0.7138                 2.3188                 1.2103
 IR Inten    --      1.4427                 5.0424                50.8902

                     34                     35                     36
                      A                      A                      A
 Frequencies --   1113.0956              1128.9592              1161.4917
 Red. masses --      2.0189                 2.2908                 1.3150
 Frc consts  --      1.4738                 1.7203                 1.0453
 IR Inten    --      0.3449                10.6536                 9.4855

                     37                     38                     39
                      A                      A                      A
 Frequencies --   1163.1573              1170.5459              1214.3887
 Red. masses --      1.4666                 2.1930                 1.3880
 Frc consts  --      1.1691                 1.7704                 1.2060
 IR Inten    --     30.3797                55.8120                 7.0773

                     40                     41                     42
                      A                      A                      A
 Frequencies --   1229.7190              1242.9907              1255.9988
 Red. masses --      1.7496                 1.2845                 1.1816
 Frc consts  --      1.5588                 1.1693                 1.0983
 IR Inten    --      9.2928                 2.1145                 0.2291

                     43                     44                     45
                      A                      A                      A
 Frequencies --   1262.4688              1277.8955              1288.0825
 Red. masses --      2.6207                 1.4097                 1.6763
 Frc consts  --      2.4610                 1.3563                 1.6386
 IR Inten    --     13.2202                 0.7892                 5.6411

                     46                     47                     48
                      A                      A                      A
 Frequencies --   1336.9036              1359.7847              1405.8169
 Red. masses --      2.0299                 1.3681                 1.3424
 Frc consts  --      2.1376                 1.4904                 1.5631
 IR Inten    --    130.6537                24.9554                 6.3777

                     49                     50                     51
                      A                      A                      A
 Frequencies --   1435.2333              1476.1204              1482.6662
 Red. masses --      1.9430                 1.3145                 1.1621
 Frc consts  --      2.3581                 1.6875                 1.5051
 IR Inten    --    124.2561                 9.4904                 7.1416

                     52                     53                     54
                      A                      A                      A
 Frequencies --   1493.3853              1504.0772              1505.6565
 Red. masses --      1.0894                 1.1127                 1.1105
 Frc consts  --      1.4315                 1.4831                 1.4833
 IR Inten    --      2.7368                 8.0893                 3.5017

                     55                     56                     57
                      A                      A                      A
 Frequencies --   1517.9594              1525.4113              1528.9497
 Red. masses --      1.3046                 1.0509                 1.1205
 Frc consts  --      1.7712                 1.4407                 1.5432
 IR Inten    --     66.8257                14.6100                 2.0744

                     58                     59                     60
                      A                      A                      A
 Frequencies --   1529.2784              1550.6934              1557.8863
 Red. masses --      1.1061                 1.0757                 1.1307
 Frc consts  --      1.5241                 1.5241                 1.6168
 IR Inten    --     21.4104                 4.4542                64.5403

                     61                     62                     63
                      A                      A                      A
 Frequencies --   1766.0107              1784.9746              3018.6785
 Red. masses --      6.7055                 8.5708                 1.0474
 Frc consts  --     12.3216                16.0892                 5.6234
 IR Inten    --    279.5671                37.8852                49.8569

                     64                     65                     66
                      A                      A                      A
 Frequencies --   3024.4646              3045.6320              3050.5125
 Red. masses --      1.0528                 1.0615                 1.0675
 Frc consts  --      5.6743                 5.8013                 5.8526
 IR Inten    --     58.2463                36.8375                23.8979

                     67                     68                     69
                      A                      A                      A
 Frequencies --   3052.3618              3077.7324              3082.7478
 Red. masses --      1.0705                 1.0934                 1.0614
 Frc consts  --      5.8763                 6.1023                 5.9429
 IR Inten    --     46.0755                46.8349                46.4175

                     70                     71                     72
                      A                      A                      A
 Frequencies --   3096.1009              3115.8131              3129.8914
 Red. masses --      1.1008                 1.0850                 1.1028
 Frc consts  --      6.2171                 6.2064                 6.3651
 IR Inten    --     23.9703                34.5624                15.7694

                     73                     74                     75
                      A                      A                      A
 Frequencies --   3139.6795              3140.7689              3157.7946
 Red. masses --      1.0914                 1.1020                 1.0990
 Frc consts  --      6.3389                 6.4047                 6.4570
 IR Inten    --     18.3394                26.2601                13.6102

                     76                     77                     78
                      A                      A                      A
 Frequencies --   3158.6720              3164.3141              3552.9011
 Red. masses --      1.0953                 1.0976                 1.0743
 Frc consts  --      6.4383                 6.4751                 7.9896
 IR Inten    --     20.9629                 4.3683                12.3402

 - Thermochemistry -
 -------------------
 Temperature   298.150 Kelvin.  Pressure   1.00000 Atm.
 Atom     1 has atomic number  6 and mass  12.00000

 Molecular mass:   168.12626 amu.
 Principal axes and moments of inertia in atomic units:
                           1         2         3
     Eigenvalues --  1212.845483374.893403670.62356
           X            0.99981  -0.01347  -0.01443
           Y            0.01275   0.99872  -0.04886
           Z            0.01507   0.04866   0.99870
 This molecule is an asymmetric top.
 Rotational symmetry number  1.
 Warning -- assumption of classical behavior for rotation
           may cause significant error
 Rotational temperatures (Kelvin)      0.07141     0.02566     0.02360
 Rotational constants (GHZ):           1.48802     0.53476     0.49167
 Zero-point vibrational energy     648424.0 (Joules/Mol)
                                  154.97706 (Kcal/Mol)
 Warning -- explicit consideration of  18 degrees of freedom as
           vibrations may cause significant error
 Vibrational temperatures:     28.66    60.62   102.36   128.88   150.53
          (Kelvin)            170.51   234.18   245.00   291.83   362.89
                              413.44   464.94   550.52   558.01   610.50
                              743.20   804.56   850.00   970.20  1065.62
                             1079.69  1118.98  1133.95  1211.11  1261.69
                             1287.59  1339.98  1360.27  1400.73  1449.73
                             1514.17  1548.37  1572.85  1601.50  1624.32
                             1671.13  1673.52  1684.15  1747.23  1769.29
                             1788.39  1807.10  1816.41  1838.61  1853.26
                             1923.51  1956.43  2022.66  2064.98  2123.81
                             2133.23  2148.65  2164.03  2166.30  2184.00
                             2194.73  2199.82  2200.29  2231.10  2241.45
                             2540.90  2568.18  4343.21  4351.53  4381.99
                             4389.01  4391.67  4428.17  4435.39  4454.60
                             4482.96  4503.22  4517.30  4518.87  4543.36
                             4544.62  4552.74  5111.83

 Zero-point correction=                           0.246972 (Hartree/Particle)
 Thermal correction to Energy=                    0.260321
 Thermal correction to Enthalpy=                  0.261266
 Thermal correction to Gibbs Free Energy=         0.205381
 Sum of electronic and zero-point Energies=           -537.077380
 Sum of electronic and thermal Energies=              -537.064030
 Sum of electronic and thermal Enthalpies=            -537.063086
 Sum of electronic and thermal Free Energies=         -537.118970

                     E (Thermal)             CV                S
                      KCal/Mol        Cal/Mol-Kelvin    Cal/Mol-Kelvin
 Total                  163.354             47.875            117.619
 Electronic               0.000              0.000              0.000
 Translational            0.889              2.981             41.267
 Rotational               0.889              2.981             31.086
 Vibrational            161.577             41.914             45.266
 Vibration     1          0.593              1.986              6.642
 Vibration     2          0.595              1.980              5.156
 Vibration     3          0.598              1.968              4.122
 Vibration     4          0.602              1.957              3.669
 Vibration     5          0.605              1.946              3.366
 Vibration     6          0.609              1.934              3.124
 Vibration     7          0.623              1.888              2.517
 Vibration     8          0.625              1.879              2.432
 Vibration     9          0.639              1.836              2.107
 Vibration    10          0.664              1.759              1.715
 Vibration    11          0.685              1.697              1.489
 Vibration    12          0.708              1.629              1.294
 Vibration    13          0.752              1.507              1.029
 Vibration    14          0.756              1.496              1.008
 Vibration    15          0.786              1.417              0.877
 Vibration    16          0.872              1.213              0.618
 Vibration    17          0.915              1.120              0.525
 Vibration    18          0.948              1.051              0.466

 Optimization completed.
    -- Stationary point found.
 Normal termination of Gaussian 16 at Wed Dec  9 17:11:14 2020.

 ----------------------------------------------------------------------
 # B3LYP/6-311++G(d,p) empiricaldispersion=gd3bj scf=xqc pop=npa geom=c
 heck
 ----------------------------------------------------------------------

 ---------------------------------------
 CID_153380905_JID_2070_Energie_neutraal
 ---------------------------------------
 Structure from the checkpoint file:  "JID_2070.chk"
 Charge =  0 Multiplicity = 1

 SCF Done:  E(RB3LYP) =  -537.479751939     A.U. after   14 cycles
 Normal termination of Gaussian 16 at Wed Dec  9 17:13:56 2020.

 ----------------------------------------------------------------------
 # B3LYP/6-311++G(d,p) empiricaldispersion=gd3bj scf=xqc pop=npa geom=c
 heck
 ----------------------------------------------------------------------

 -------------------------------------
 CID_153380905_JID_2070_Energie_kation
 -------------------------------------
 Structure from the checkpoint file:  "JID_2070.chk"
 Charge =  1 Multiplicity = 2

 SCF Done:  E(UB3LYP) =  -537.180027451     A.U. after   25 cycles
 Normal termination of Gaussian 16 at Wed Dec  9 17:19:37 2020.
 Gaussian 16:  ES64L-G16RevA.03 25-Dec-2016

 ----------------------------------------------------------------------
 # B3LYP/6-311++G(d,p) empiricaldispersion=gd3bj scf=xqc pop=npa geom=c
 heck
 ----------------------------------------------------------------------

 ------------------------------------
 CID_153380905_JID_2070_Energie_anion
 ------------------------------------
 Structure from the checkpoint file:  "JID_2070.chk"
 Charge = -1 Multiplicity = 2

                         Standard orientation:
 ---------------------------------------------------------------------
 Center     Atomic      Atomic             Coordinates (Angstroms)
 Number     Number       Type             X           Y           Z
 ---------------------------------------------------------------------
      1          6           0       -2.622054   -1.276779    1.419645
      2          7           0       -2.614753   -1.149719   -0.043337
      3          6           0       -1.525709   -0.500547   -0.661251
      4          8           0       -0.816004   -1.091642   -1.474334
      5          7           0       -1.344791    0.819349   -0.333051
      6          6           0       -2.333805    1.635094    0.345246
      7          6           0       -0.079508    1.450284   -0.730863
      8          6           0        0.983396    1.321363    0.328936
      9          6           0        2.048379    0.534249    0.196032
     10          6           0        3.162519    0.104016    1.137097
     11          6           0        3.362649   -1.149044    0.229605
     12          6           0        2.484415   -0.466998   -0.865172
     13          1           0       -2.795941   -0.311921    1.898865
     14          1           0       -1.686581   -1.695222    1.818796
     15          1           0       -3.446697   -1.937356    1.700941
     16          1           0       -2.673146   -2.063994   -0.481261
     17          1           0       -2.092053    1.807498    1.404017
     18          1           0       -2.392019    2.612592   -0.148030
     19          1           0       -3.311286    1.156369    0.275052
     20          1           0        0.247276    0.974289   -1.655742
     21          1           0       -0.295439    2.504355   -0.944771
     22          1           0        0.833693    1.872931    1.257811
     23          1           0        4.027070    0.779501    1.102801
     24          1           0        2.897506   -0.060510    2.187404
     25          1           0        2.878608   -2.037560    0.644517
     26          1           0        4.391214   -1.399376   -0.044047
     27          1           0        1.687738   -1.056021   -1.326800
     28          1           0        3.093205   -0.009676   -1.655821
 ---------------------------------------------------------------------

 SCF Done:  E(UB3LYP) =  -537.464684254     A.U. after   33 cycles
 SCF Done:  E(UB3LYP) =  -537.464684254     a.u. after    1 cycles

 The electronic state is 2-A.
 Alpha  occ. eigenvalues --  -18.97824 -14.23549 -14.21791 -10.18530 -10.10203
 Alpha  occ. eigenvalues --  -10.09470 -10.09092 -10.07852 -10.07683 -10.07611
 Alpha  occ. eigenvalues --  -10.06975 -10.06244  -0.94267  -0.83485  -0.80113
 Alpha  occ. eigenvalues --   -0.75477  -0.66627  -0.60720  -0.59302  -0.57138
 Alpha  occ. eigenvalues --   -0.56641  -0.50583  -0.45538  -0.42157  -0.41218
 Alpha  occ. eigenvalues --   -0.38366  -0.38209  -0.37830  -0.36749  -0.35295
 Alpha  occ. eigenvalues --   -0.33261  -0.31782  -0.31429  -0.30111  -0.29310
 Alpha  occ. eigenvalues --   -0.28036  -0.27527  -0.26471  -0.25947  -0.24720
 Alpha  occ. eigenvalues --   -0.23327  -0.21481  -0.18154  -0.15194  -0.14206
 Alpha  occ. eigenvalues --   -0.13377   0.04610
 Alpha virt. eigenvalues --    0.06389   0.07026   0.08008   0.08584   0.08998
 Alpha virt. eigenvalues --    0.09437   0.10333   0.10480   0.10947   0.11690
 Alpha virt. eigenvalues --    0.12200   0.12361   0.13107   0.13303   0.13791

  Beta  occ. eigenvalues --  -18.97816 -14.23543 -14.21782 -10.18528 -10.10191
  Beta  occ. eigenvalues --  -10.09419 -10.09036 -10.07854 -10.07673 -10.07596
  Beta  occ. eigenvalues --  -10.06965 -10.06231  -0.94256  -0.83468  -0.80091
  Beta  occ. eigenvalues --   -0.75464  -0.66601  -0.60647  -0.59245  -0.57093
  Beta  occ. eigenvalues --   -0.56597  -0.50546  -0.45498  -0.42121  -0.41178
  Beta  occ. eigenvalues --   -0.38321  -0.38162  -0.37800  -0.36717  -0.35253
  Beta  occ. eigenvalues --   -0.33218  -0.31751  -0.31388  -0.30065  -0.29290
  Beta  occ. eigenvalues --   -0.27989  -0.27496  -0.26437  -0.25930  -0.24696
  Beta  occ. eigenvalues --   -0.23306  -0.21457  -0.18137  -0.15170  -0.14183
  Beta  occ. eigenvalues --   -0.13352
  Beta virt. eigenvalues --    0.06526   0.07419   0.07923   0.08498   0.08851
  Beta virt. eigenvalues --    0.09501   0.09948   0.10690   0.10992   0.11359
  Beta virt. eigenvalues --    0.11813   0.12594   0.12751   0.13242   0.13607

 Mulliken charges and spin densities:
               1          2
     1  C    1.315915  -1.661502
     2  N   -0.424064   0.234564
     3  C    0.076268  -0.135049
     4  O   -0.387913   0.009388
     5  N   -0.053318   0.131140
     6  C    1.186966  -1.569211
     7  C   -0.804509   0.270877
     8  C    0.069224  -0.199603
     9  C    0.671578   0.054088
    10  C    0.375034  -0.975698
    11  C    0.042288  -0.335479
    12  C   -0.698390   0.122449
    13  H   -0.333618   0.503867
    14  H   -0.225954   0.368243
    15  H   -0.705071   0.856010
    16  H    0.180678   0.096415
    17  H   -0.327711   0.513846
    18  H   -0.380692   0.525118
    19  H   -0.214311   0.387554
    20  H    0.153600   0.061693
    21  H   -0.279925   0.433717
    22  H   -0.415098   0.606982
    23  H   -0.026405   0.163375
    24  H   -0.035045   0.184495
    25  H    0.028056   0.101942
    26  H    0.031389   0.086130
    27  H    0.206023  -0.003442
    28  H   -0.024994   0.168090
 Sum of Mulliken charges =  -1.00000   1.00000

 Dipole moment (field-independent basis, Debye):
    X=              5.4772    Y=             -1.1592    Z=             -4.0180  Tot=              6.8912
 Quadrupole moment (field-independent basis, Debye-Ang):
   XX=           -137.3458   YY=           -117.2458   ZZ=           -115.7634
   XY=             -0.6799   XZ=             10.1018   YZ=             -1.1373

 Summary of Natural Population Analysis:

                                       Natural Population
                Natural  -----------------------------------------------
    Atom  No    Charge         Core      Valence    Rydberg      Total
 -----------------------------------------------------------------------
      C    1   -0.17983      0.99964     2.17192    0.00827     3.17983
      N    2   -0.34278      0.99970     2.83222    0.01085     3.84278
      C    3    0.41415      0.99965     1.56230    0.02390     2.58585
      O    4   -0.34551      0.99987     3.34045    0.00519     4.34551
      N    5   -0.25921      0.99964     2.74827    0.01130     3.75921
      C    6   -0.17783      0.99963     2.16969    0.00851     3.17783
      C    7   -0.09580      0.99959     2.08423    0.01197     3.09580
      C    8   -0.10994      0.99941     2.10097    0.00956     3.10994
      C    9    0.00470      0.99952     1.98315    0.01263     2.99530
      C   10   -0.19984      0.99961     2.19341    0.00682     3.19984
      C   11   -0.18599      0.99966     2.17991    0.00642     3.18599
      C   12   -0.20944      0.99960     2.20333    0.00651     3.20944
      H   13    0.09891      0.00000     0.39881    0.00228     0.40109
      H   14    0.08788      0.00000     0.41012    0.00200     0.41212
      H   15    0.09866      0.00000     0.39899    0.00235     0.40134
      H   16    0.18656      0.00000     0.31106    0.00239     0.31344
      H   17    0.09589      0.00000     0.40142    0.00269     0.40411
      H   18    0.09576      0.00000     0.40251    0.00173     0.40424
      H   19    0.10867      0.00000     0.38964    0.00169     0.39133
      H   20    0.11220      0.00000     0.38642    0.00139     0.38780
      H   21    0.09701      0.00000     0.40178    0.00120     0.40299
      H   22    0.09823      0.00000     0.40027    0.00150     0.40177
      H   23    0.09940      0.00000     0.39907    0.00153     0.40060
      H   24    0.10244      0.00000     0.39610    0.00146     0.39756
      H   25    0.09727      0.00000     0.40135    0.00138     0.40273
      H   26    0.09174      0.00000     0.40697    0.00128     0.40826
      H   27    0.11878      0.00000     0.37998    0.00123     0.38122
      H   28    0.09793      0.00000     0.40085    0.00122     0.40207
 =======================================================================
   * Total *    0.00000     11.99553    33.85520    0.14927    46.00000

 Normal termination of Gaussian 16 at Wed Dec  9 17:27:49 2020.
