 Gaussian 16, Revision A.03,

 -----------------------------------------------------------
 # opt freq B3LYP/6-31G(d) empiricaldispersion=gd3bj scf=xqc
 -----------------------------------------------------------

 ------------------------------
 CID_87894182_JID_1970_neutraal
 ------------------------------
 Symbolic Z-matrix:
 Charge =  0 Multiplicity = 1

 SCF Done:  E(RB3LYP) =  -532.736515031     A.U. after   15 cycles
 SCF Done:  E(RB3LYP) =  -532.746791071     A.U. after   15 cycles
 SCF Done:  E(RB3LYP) =  -532.747846645     A.U. after   15 cycles
 SCF Done:  E(RB3LYP) =  -532.751123371     A.U. after   13 cycles
 SCF Done:  E(RB3LYP) =  -532.752122562     A.U. after   13 cycles
 SCF Done:  E(RB3LYP) =  -532.753014557     A.U. after   13 cycles
 SCF Done:  E(RB3LYP) =  -532.753129695     A.U. after   13 cycles
 SCF Done:  E(RB3LYP) =  -532.753529783     A.U. after   13 cycles
 SCF Done:  E(RB3LYP) =  -532.753722352     A.U. after   12 cycles
 SCF Done:  E(RB3LYP) =  -532.753804415     A.U. after   12 cycles
 SCF Done:  E(RB3LYP) =  -532.753939961     A.U. after   11 cycles
 SCF Done:  E(RB3LYP) =  -532.753960487     A.U. after   10 cycles
 SCF Done:  E(RB3LYP) =  -532.753965766     A.U. after    9 cycles
 SCF Done:  E(RB3LYP) =  -532.753967845     A.U. after    9 cycles
 SCF Done:  E(RB3LYP) =  -532.753968090     A.U. after    8 cycles
 SCF Done:  E(RB3LYP) =  -532.753968193     A.U. after    8 cycles
 Optimization completed.
    -- Stationary point found.
 Normal termination of Gaussian 16 at Tue Dec  8 20:54:47 2020.

 --------------------------------------------------------------------
 #N Geom=AllCheck Guess=TCheck SCRF=Check GenChk RB3LYP/6-31G(d) Freq
 --------------------------------------------------------------------

 Structure from the checkpoint file:  "JID_1970.chk"
 ------------------------------
 CID_87894182_JID_1970_neutraal
 ------------------------------
 Charge =  0 Multiplicity = 1

 SCF Done:  E(RB3LYP) =  -532.753968193     A.U. after    1 cycles

  Exact polarizability: 103.377   9.219  94.860  10.298  -4.435  62.998
 Approx polarizability: 158.760  16.856 150.084  23.597  -8.404  96.825

                      1                      2                      3
                      A                      A                      A
 Frequencies --     47.9887                65.7037                83.1131
 Red. masses --      4.7953                 6.1317                 5.5094
 Frc consts  --      0.0065                 0.0156                 0.0224
 IR Inten    --      1.7518                 1.9412                 2.5150

                      4                      5                      6
                      A                      A                      A
 Frequencies --     98.2554               132.0663               154.3768
 Red. masses --      7.7822                 2.1114                 1.5453
 Frc consts  --      0.0443                 0.0217                 0.0217
 IR Inten    --      4.5827                 1.4409                 1.1797

                      7                      8                      9
                      A                      A                      A
 Frequencies --    186.4667               242.5991               262.9883
 Red. masses --      3.2390                 3.1745                 4.0055
 Frc consts  --      0.0664                 0.1101                 0.1632
 IR Inten    --      8.4242                 0.9862                 2.2379

                     10                     11                     12
                      A                      A                      A
 Frequencies --    319.1779               403.7678               407.6598
 Red. masses --      2.6609                 3.3093                 3.6554
 Frc consts  --      0.1597                 0.3179                 0.3579
 IR Inten    --      5.9940                 7.6141                 3.2163

                     13                     14                     15
                      A                      A                      A
 Frequencies --    495.6944               540.3748               557.5153
 Red. masses --      1.6049                 2.0691                 2.8105
 Frc consts  --      0.2323                 0.3560                 0.5147
 IR Inten    --    118.8917                36.2995                 8.7129

                     16                     17                     18
                      A                      A                      A
 Frequencies --    572.8825               593.7105               609.8918
 Red. masses --      4.5945                 1.4029                 2.8285
 Frc consts  --      0.8884                 0.2914                 0.6199
 IR Inten    --     75.9838                 9.8458                17.3240

                     19                     20                     21
                      A                      A                      A
 Frequencies --    641.6792               752.9235               759.7997
 Red. masses --      3.8646                 3.2502                 3.5984
 Frc consts  --      0.9375                 1.0856                 1.2239
 IR Inten    --     40.1685                 9.0380                24.6908

                     22                     23                     24
                      A                      A                      A
 Frequencies --    830.0583               875.8590               924.3497
 Red. masses --      3.5429                 1.8949                 1.8582
 Frc consts  --      1.4382                 0.8565                 0.9354
 IR Inten    --     27.3208                11.7202                26.1927

                     25                     26                     27
                      A                      A                      A
 Frequencies --    986.1527               992.9696              1064.4862
 Red. masses --      2.3878                 2.0209                 1.7333
 Frc consts  --      1.3681                 1.1740                 1.1572
 IR Inten    --      9.4600                 6.8439                 0.2665

                     28                     29                     30
                      A                      A                      A
 Frequencies --   1077.4412              1103.4184              1129.9601
 Red. masses --      1.4718                 2.2856                 1.8837
 Frc consts  --      1.0066                 1.6396                 1.4170
 IR Inten    --      0.5698                 5.2772                 8.4779

                     31                     32                     33
                      A                      A                      A
 Frequencies --   1178.3988              1246.4876              1274.4952
 Red. masses --      1.9677                 1.2940                 1.1934
 Frc consts  --      1.6099                 1.1846                 1.1422
 IR Inten    --      6.6061                 6.6370                 9.4833

                     34                     35                     36
                      A                      A                      A
 Frequencies --   1372.6024              1377.7560              1389.0301
 Red. masses --      1.8830                 1.2853                 1.5669
 Frc consts  --      2.0902                 1.4375                 1.7812
 IR Inten    --     82.3361                 6.6641                10.9225

                     37                     38                     39
                      A                      A                      A
 Frequencies --   1411.7458              1441.1595              1466.8299
 Red. masses --      1.5206                 1.4725                 5.3850
 Frc consts  --      1.7856                 1.8019                 6.8264
 IR Inten    --     47.1532                 8.2379                 3.7948

                     40                     41                     42
                      A                      A                      A
 Frequencies --   1503.4822              1511.0743              1528.5320
 Red. masses --      1.0621                 1.0888                 1.0765
 Frc consts  --      1.4146                 1.4648                 1.4819
 IR Inten    --     11.2668                 0.9607                10.6751

                     43                     44                     45
                      A                      A                      A
 Frequencies --   1539.4445              1660.2722              1724.4918
 Red. masses --      1.1056                 1.2386                 6.9414
 Frc consts  --      1.5437                 2.0117                12.1624
 IR Inten    --      5.7309                93.3981                18.5279

                     46                     47                     48
                      A                      A                      A
 Frequencies --   1784.8014              2353.1951              3048.5849
 Red. masses --      7.8518                12.3194                 1.0450
 Frc consts  --     14.7366                40.1935                 5.7220
 IR Inten    --    273.7575               749.1575                12.6266

                     49                     50                     51
                      A                      A                      A
 Frequencies --   3059.9328              3067.0678              3106.1210
 Red. masses --      1.0620                 1.0657                 1.0997
 Frc consts  --      5.8587                 5.9064                 6.2510
 IR Inten    --     16.3810                30.2523                16.7831

                     52                     53                     54
                      A                      A                      A
 Frequencies --   3114.4322              3126.3561              3151.3863
 Red. masses --      1.0891                 1.1026                 1.1032
 Frc consts  --      6.2240                 6.3497                 6.4549
 IR Inten    --     15.5161                35.0471                 8.6036

                     55                     56                     57
                      A                      A                      A
 Frequencies --   3180.5264              3558.6541              3678.9723
 Red. masses --      1.0889                 1.0468                 1.1034
 Frc consts  --      6.4897                 7.8107                 8.7994
 IR Inten    --      6.1229                51.8720                75.9673

 - Thermochemistry -
 -------------------
 Temperature   298.150 Kelvin.  Pressure   1.00000 Atm.
 Atom     1 has atomic number  6 and mass  12.00000

 Molecular mass:   154.07423 amu.
 Principal axes and moments of inertia in atomic units:
                           1         2         3
     Eigenvalues --  1150.418572208.481342980.33827
           X            0.99900   0.04369   0.00945
           Y           -0.04345   0.99875  -0.02476
           Z           -0.01052   0.02433   0.99965
 This molecule is an asymmetric top.
 Rotational symmetry number  1.
 Warning -- assumption of classical behavior for rotation
           may cause significant error
 Rotational temperatures (Kelvin)      0.07529     0.03922     0.02906
 Rotational constants (GHZ):           1.56877     0.81719     0.60555
 Zero-point vibrational energy     447218.9 (Joules/Mol)
                                  106.88789 (Kcal/Mol)
 Warning -- explicit consideration of  18 degrees of freedom as
           vibrations may cause significant error
 Vibrational temperatures:     69.04    94.53   119.58   141.37   190.01
          (Kelvin)            222.11   268.28   349.05   378.38   459.23
                              580.93   586.53   713.19   777.48   802.14
                              824.25   854.22   877.50   923.23  1083.29
                             1093.18  1194.27  1260.17  1329.93  1418.85
                             1428.66  1531.56  1550.20  1587.57  1625.76
                             1695.45  1793.42  1833.71  1974.87  1982.28
                             1998.50  2031.19  2073.51  2110.44  2163.18
                             2174.10  2199.22  2214.92  2388.76  2481.16
                             2567.93  3385.72  4386.23  4402.56  4412.83
                             4469.02  4480.97  4498.13  4534.14  4576.07
                             5120.11  5293.22

 Zero-point correction=                           0.170337 (Hartree/Particle)
 Thermal correction to Energy=                    0.182073
 Thermal correction to Enthalpy=                  0.183017
 Thermal correction to Gibbs Free Energy=         0.131926
 Sum of electronic and zero-point Energies=           -532.583632
 Sum of electronic and thermal Energies=              -532.571895
 Sum of electronic and thermal Enthalpies=            -532.570951
 Sum of electronic and thermal Free Energies=         -532.622042

                     E (Thermal)             CV                S
                      KCal/Mol        Cal/Mol-Kelvin    Cal/Mol-Kelvin
 Total                  114.253             41.738            107.531
 Electronic               0.000              0.000              0.000
 Translational            0.889              2.981             41.006
 Rotational               0.889              2.981             30.405
 Vibrational            112.475             35.777             36.119
 Vibration     1          0.595              1.978              4.899
 Vibration     2          0.597              1.971              4.278
 Vibration     3          0.600              1.961              3.816
 Vibration     4          0.604              1.950              3.489
 Vibration     5          0.612              1.921              2.916
 Vibration     6          0.620              1.898              2.618
 Vibration     7          0.632              1.858              2.263
 Vibration     8          0.659              1.775              1.784
 Vibration     9          0.670              1.741              1.642
 Vibration    10          0.705              1.637              1.314
 Vibration    11          0.769              1.462              0.949
 Vibration    12          0.772              1.454              0.935
 Vibration    13          0.851              1.260              0.669
 Vibration    14          0.895              1.161              0.564
 Vibration    15          0.913              1.123              0.529
 Vibration    16          0.929              1.090              0.499
 Vibration    17          0.951              1.045              0.461
 Vibration    18          0.969              1.011              0.433

                           ! Non-Optimized Parameters !
 Normal termination of Gaussian 16 at Tue Dec  8 20:59:26 2020.

 ----------------------------------------------------------------------
 # B3LYP/6-311++G(d,p) empiricaldispersion=gd3bj scf=xqc pop=npa geom=c
 heck
 ----------------------------------------------------------------------

 --------------------------------------
 CID_87894182_JID_1970_Energie_neutraal
 --------------------------------------
 Structure from the checkpoint file:  "JID_1970.chk"
 Charge =  0 Multiplicity = 1

 SCF Done:  E(RB3LYP) =  -532.918738633     A.U. after   15 cycles
 Normal termination of Gaussian 16 at Tue Dec  8 21:01:44 2020.

 ----------------------------------------------------------------------
 # B3LYP/6-311++G(d,p) empiricaldispersion=gd3bj scf=xqc pop=npa geom=c
 heck
 ----------------------------------------------------------------------

 ------------------------------------
 CID_87894182_JID_1970_Energie_kation
 ------------------------------------
 Structure from the checkpoint file:  "JID_1970.chk"
 Charge =  1 Multiplicity = 2

 SCF Done:  E(UB3LYP) =  -532.578275669     A.U. after   28 cycles
 Normal termination of Gaussian 16 at Tue Dec  8 21:08:25 2020.
 Gaussian 16:  ES64L-G16RevA.03 25-Dec-2016

 ----------------------------------------------------------------------
 # B3LYP/6-311++G(d,p) empiricaldispersion=gd3bj scf=xqc pop=npa geom=c
 heck
 ----------------------------------------------------------------------

 -----------------------------------
 CID_87894182_JID_1970_Energie_anion
 -----------------------------------
 Structure from the checkpoint file:  "JID_1970.chk"
 Charge = -1 Multiplicity = 2

                         Standard orientation:
 ---------------------------------------------------------------------
 Center     Atomic      Atomic             Coordinates (Angstroms)
 Number     Number       Type             X           Y           Z
 ---------------------------------------------------------------------
      1          6           0        1.121268   -1.802818    0.922839
      2          6           0        0.942311   -0.680817   -0.061157
      3          6           0       -0.088132   -0.549041   -0.912587
      4          6           0       -1.323593   -1.412096   -0.950498
      5          6           0       -2.281833   -1.089414    0.215372
      6          7           0       -2.566814    0.331762    0.319612
      7          6           0       -1.869965    1.317428    0.342149
      8          8           0       -1.309303    2.361189    0.369830
      9          6           0        2.083698    0.304221   -0.092821
     10          8           0        3.235873   -0.045920    0.135612
     11          7           0        1.750381    1.595606   -0.410724
     12          1           0        0.430581   -2.630690    0.744211
     13          1           0        0.974243   -1.449922    1.952099
     14          1           0        2.150244   -2.168232    0.860244
     15          1           0       -0.061034    0.278229   -1.617882
     16          1           0       -1.851959   -1.257295   -1.896637
     17          1           0       -1.076258   -2.478978   -0.889997
     18          1           0       -3.232311   -1.612334    0.082627
     19          1           0       -1.846340   -1.427370    1.162650
     20          1           0        0.811289    1.939430   -0.250364
     21          1           0        2.501494    2.268646   -0.332476
 ---------------------------------------------------------------------

 SCF Done:  E(UB3LYP) =  -532.916027712     A.U. after   32 cycles

 The electronic state is 2-A.
 Alpha  occ. eigenvalues --  -19.04655 -18.95624 -14.21369 -14.20387 -10.17954
 Alpha  occ. eigenvalues --  -10.13566 -10.09951 -10.05847 -10.04164 -10.04138
 Alpha  occ. eigenvalues --  -10.03710  -0.98188  -0.90684  -0.83322  -0.77796
 Alpha  occ. eigenvalues --   -0.69117  -0.64416  -0.57885  -0.53856  -0.47695
 Alpha  occ. eigenvalues --   -0.42560  -0.41507  -0.39497  -0.38521  -0.36374
 Alpha  occ. eigenvalues --   -0.35038  -0.34606  -0.31826  -0.31066  -0.29818
 Alpha  occ. eigenvalues --   -0.29092  -0.28211  -0.26674  -0.25922  -0.24009
 Alpha  occ. eigenvalues --   -0.22368  -0.18263  -0.16493  -0.15497  -0.13316
 Alpha  occ. eigenvalues --   -0.12747   0.04845
 Alpha virt. eigenvalues --    0.07984   0.09073   0.09405   0.10354   0.10709
 Alpha virt. eigenvalues --    0.12544   0.12831   0.12913   0.13412   0.14291
 Alpha virt. eigenvalues --    0.14918   0.15853   0.16452   0.16901   0.17387

  Beta  occ. eigenvalues --  -19.04594 -18.95484 -14.21363 -14.20365 -10.17883
  Beta  occ. eigenvalues --  -10.13464 -10.09836 -10.05851 -10.04155 -10.03929
  Beta  occ. eigenvalues --  -10.03548  -0.98059  -0.90427  -0.83202  -0.77681
  Beta  occ. eigenvalues --   -0.68798  -0.64154  -0.57658  -0.53650  -0.47440
  Beta  occ. eigenvalues --   -0.42428  -0.41358  -0.39306  -0.38396  -0.36150
  Beta  occ. eigenvalues --   -0.34863  -0.34463  -0.31594  -0.30728  -0.29565
  Beta  occ. eigenvalues --   -0.28883  -0.28015  -0.26464  -0.25668  -0.23887
  Beta  occ. eigenvalues --   -0.22218  -0.18059  -0.16400  -0.15101  -0.12798
  Beta  occ. eigenvalues --   -0.11838
  Beta virt. eigenvalues --    0.08176   0.09084   0.09554   0.09807   0.11045
  Beta virt. eigenvalues --    0.11452   0.12660   0.13135   0.13261   0.13773
  Beta virt. eigenvalues --    0.14387   0.15187   0.15959   0.16605   0.17040

 Mulliken charges and spin densities:
               1          2
     1  C    0.068913  -0.667815
     2  C    0.604399   0.145649
     3  C   -0.394500   0.229921
     4  C   -1.226946   0.820129
     5  C    1.870101  -2.286185
     6  N   -0.326054   0.198276
     7  C    0.334266   0.020589
     8  O   -0.330336   0.025296
     9  C   -0.131393  -0.055055
    10  O   -0.402023   0.049689
    11  N   -0.426100   0.019553
    12  H    0.102625   0.023544
    13  H   -0.069378   0.238253
    14  H    0.199870  -0.036327
    15  H    0.211149  -0.027106
    16  H   -0.011848   0.159464
    17  H   -0.098299   0.244296
    18  H   -1.251622   1.460290
    19  H   -0.247707   0.425569
    20  H    0.251853   0.014400
    21  H    0.273029  -0.002430
 Sum of Mulliken charges =  -1.00000   1.00000

 Dipole moment (field-independent basis, Debye):
    X=              2.9095    Y=              3.3946    Z=             -1.3922  Tot=              4.6825
 Quadrupole moment (field-independent basis, Debye-Ang):
   XX=           -128.1838   YY=            -91.9240   ZZ=            -82.2036
   XY=             -7.3222   XZ=              2.1040   YZ=              0.7254

 Summary of Natural Population Analysis:

                                       Natural Population
                Natural  -----------------------------------------------
    Atom  No    Charge         Core      Valence    Rydberg      Total
 -----------------------------------------------------------------------
      C    1   -0.30314      0.99963     2.29709    0.00641     3.30314
      C    2   -0.01311      0.99943     2.00338    0.01030     3.01311
      C    3   -0.07278      0.99948     2.06304    0.01026     3.07278
      C    4   -0.21171      0.99961     2.20153    0.01057     3.21171
      C    5   -0.07883      0.99957     2.06728    0.01198     3.07883
      N    6   -0.27501      0.99951     2.76540    0.01010     3.77501
      C    7    0.43050      0.99956     1.55104    0.01890     2.56950
      O    8   -0.28573      0.99986     3.27849    0.00737     4.28573
      C    9    0.34106      0.99965     1.63558    0.02371     2.65894
      O   10   -0.32076      0.99988     3.31505    0.00583     4.32076
      N   11   -0.41012      0.99971     2.90351    0.00690     3.91012
      H   12    0.09745      0.00000     0.40176    0.00079     0.40255
      H   13    0.10371      0.00000     0.39514    0.00115     0.39629
      H   14    0.11210      0.00000     0.38678    0.00112     0.38790
      H   15    0.09547      0.00000     0.40332    0.00121     0.40453
      H   16    0.09964      0.00000     0.39943    0.00094     0.40036
      H   17    0.10573      0.00000     0.39308    0.00119     0.39427
      H   18    0.10212      0.00000     0.39053    0.00735     0.39788
      H   19    0.09696      0.00000     0.40083    0.00221     0.40304
      H   20    0.20189      0.00000     0.29621    0.00190     0.29811
      H   21    0.18456      0.00000     0.31321    0.00223     0.31544
 =======================================================================
   * Total *   -0.00000     10.99589    29.86167    0.14244    41.00000

 Normal termination of Gaussian 16 at Tue Dec  8 21:14:29 2020.
