 Gaussian 16, Revision A.03,

 -----------------------------------------------------------
 # opt freq B3LYP/6-31G(d) empiricaldispersion=gd3bj scf=xqc
 -----------------------------------------------------------

 ------------------------------
 CID_56957509_JID_4669_neutraal
 ------------------------------
 Symbolic Z-matrix:
 Charge =  0 Multiplicity = 1

 SCF Done:  E(RB3LYP) =  -1040.38243299     A.U. after   16 cycles
 SCF Done:  E(RB3LYP) =  -1040.38731160     A.U. after   13 cycles
 SCF Done:  E(RB3LYP) =  -1040.38841203     A.U. after   12 cycles
 SCF Done:  E(RB3LYP) =  -1040.38914597     A.U. after   14 cycles
 SCF Done:  E(RB3LYP) =  -1040.39021610     A.U. after   13 cycles
 SCF Done:  E(RB3LYP) =  -1040.39101332     A.U. after   14 cycles
 SCF Done:  E(RB3LYP) =  -1040.39127791     A.U. after   13 cycles
 SCF Done:  E(RB3LYP) =  -1040.39169428     A.U. after   12 cycles
 SCF Done:  E(RB3LYP) =  -1040.39171188     A.U. after   11 cycles
 SCF Done:  E(RB3LYP) =  -1040.39175623     A.U. after   11 cycles
 SCF Done:  E(RB3LYP) =  -1040.39176729     A.U. after   10 cycles
 SCF Done:  E(RB3LYP) =  -1040.39177638     A.U. after   11 cycles
 SCF Done:  E(RB3LYP) =  -1040.39177944     A.U. after   10 cycles
 SCF Done:  E(RB3LYP) =  -1040.39178028     A.U. after    9 cycles
 SCF Done:  E(RB3LYP) =  -1040.39178058     A.U. after    8 cycles
 Optimization completed.
    -- Stationary point found.
 Normal termination of Gaussian 16 at Thu Dec 10 10:21:40 2020.

 --------------------------------------------------------------------
 #N Geom=AllCheck Guess=TCheck SCRF=Check GenChk RB3LYP/6-31G(d) Freq
 --------------------------------------------------------------------

 Structure from the checkpoint file:  "JID_4669.chk"
 ------------------------------
 CID_56957509_JID_4669_neutraal
 ------------------------------
 Charge =  0 Multiplicity = 1

 SCF Done:  E(RB3LYP) =  -1040.39178058     A.U. after    1 cycles

  Exact polarizability: 187.875  11.839 132.128  -3.259   2.993  67.268
 Approx polarizability: 264.527  26.149 216.263  -7.606   7.235 100.998

                      1                      2                      3
                      A                      A                      A
 Frequencies --     24.9665                38.9193                50.2335
 Red. masses --      5.2440                 3.7004                 4.1577
 Frc consts  --      0.0019                 0.0033                 0.0062
 IR Inten    --      0.1000                 0.4102                 0.2627

                      4                      5                      6
                      A                      A                      A
 Frequencies --     63.9268                98.8536               116.0292
 Red. masses --      4.9301                 4.0936                 5.5948
 Frc consts  --      0.0119                 0.0236                 0.0444
 IR Inten    --      0.5205                 3.1004                 2.2875

                      7                      8                      9
                      A                      A                      A
 Frequencies --    141.0851               156.8822               167.8430
 Red. masses --      1.0780                 3.5280                 2.9339
 Frc consts  --      0.0126                 0.0512                 0.0487
 IR Inten    --      0.0035                 1.3681                 1.7391

                     10                     11                     12
                      A                      A                      A
 Frequencies --    209.6746               227.6471               232.2777
 Red. masses --      4.1588                 2.1666                 3.3112
 Frc consts  --      0.1077                 0.0662                 0.1053
 IR Inten    --      7.4867                 1.7494                 3.1153

                     13                     14                     15
                      A                      A                      A
 Frequencies --    254.5979               329.0601               341.6023
 Red. masses --      3.0915                 2.8724                 3.8552
 Frc consts  --      0.1181                 0.1832                 0.2651
 IR Inten    --      2.2258                 9.7559                 5.6205

                     16                     17                     18
                      A                      A                      A
 Frequencies --    423.1377               455.1540               492.5058
 Red. masses --      4.0680                 7.8298                 9.6747
 Frc consts  --      0.4291                 0.9557                 1.3826
 IR Inten    --      3.7189                 0.7659                 0.2003

                     19                     20                     21
                      A                      A                      A
 Frequencies --    545.2319               680.1397               699.0988
 Red. masses --      5.6046                 9.0628                 4.2485
 Frc consts  --      0.9816                 2.4701                 1.2234
 IR Inten    --      3.2882                 2.9824                20.2712

                     22                     23                     24
                      A                      A                      A
 Frequencies --    704.4327               710.6947               728.4797
 Red. masses --      6.4426                13.2114                 7.0582
 Frc consts  --      1.8836                 3.9316                 2.2069
 IR Inten    --      1.0986                 1.1856                 7.0752

                     25                     26                     27
                      A                      A                      A
 Frequencies --    802.6758               820.7590               873.7819
 Red. masses --      1.3228                 4.6798                 2.8656
 Frc consts  --      0.5021                 1.8574                 1.2890
 IR Inten    --      4.8032                20.4566                 2.3896

                     28                     29                     30
                      A                      A                      A
 Frequencies --    884.3736               950.9168               992.4889
 Red. masses --      2.1772                 2.5966                 1.0865
 Frc consts  --      1.0033                 1.3834                 0.6306
 IR Inten    --      5.7356                 9.1692                32.1347

                     31                     32                     33
                      A                      A                      A
 Frequencies --    999.1825              1006.0401              1021.1316
 Red. masses --     10.1596                 1.1760                 1.2998
 Frc consts  --      5.9761                 0.7013                 0.7985
 IR Inten    --     22.8459                 7.6221                11.3541

                     34                     35                     36
                      A                      A                      A
 Frequencies --   1050.6566              1080.5915              1095.3332
 Red. masses --      7.1318                 5.2745                 9.8104
 Frc consts  --      4.6384                 3.6287                 6.9347
 IR Inten    --    152.5119                44.8297                32.4879

                     37                     38                     39
                      A                      A                      A
 Frequencies --   1133.1487              1209.4223              1266.4851
 Red. masses --      2.0261                 1.7232                 4.1742
 Frc consts  --      1.5328                 1.4850                 3.9447
 IR Inten    --     53.4206                 8.5104                83.8555

                     40                     41                     42
                      A                      A                      A
 Frequencies --   1288.5470              1296.6366              1343.9077
 Red. masses --      2.3160                 3.2723                 1.1326
 Frc consts  --      2.2656                 3.2414                 1.2052
 IR Inten    --    403.0642               258.1557                21.4054

                     43                     44                     45
                      A                      A                      A
 Frequencies --   1354.8803              1375.1574              1393.6296
 Red. masses --      1.4523                 3.4803                 1.3212
 Frc consts  --      1.5707                 3.8776                 1.5118
 IR Inten    --      5.0897                27.2832                 0.5247

                     46                     47                     48
                      A                      A                      A
 Frequencies --   1419.6858              1443.7780              1457.4170
 Red. masses --      1.3184                 1.3832                 7.2680
 Frc consts  --      1.5656                 1.6988                 9.0956
 IR Inten    --     30.1688                17.6067               113.6660

                     49                     50                     51
                      A                      A                      A
 Frequencies --   1466.5718              1486.7672              1502.8078
 Red. masses --      6.9073                 1.0509                 1.0808
 Frc consts  --      8.7532                 1.3686                 1.4381
 IR Inten    --     74.3249                 9.6909                22.9100

                     52                     53                     54
                      A                      A                      A
 Frequencies --   1515.8700              1519.3764              1537.9514
 Red. masses --      1.0526                 1.0820                 1.0581
 Frc consts  --      1.4250                 1.4717                 1.4745
 IR Inten    --     11.6847                 6.2102                 7.3791

                     55                     56                     57
                      A                      A                      A
 Frequencies --   1722.7338              1805.6164              3062.7176
 Red. masses --      6.1623                10.6014                 1.0362
 Frc consts  --     10.7752                20.3641                 5.7266
 IR Inten    --    111.4682               344.5550                16.4900

                     58                     59                     60
                      A                      A                      A
 Frequencies --   3091.6699              3096.6499              3128.8492
 Red. masses --      1.0287                 1.0590                 1.1019
 Frc consts  --      5.7930                 5.9833                 6.3554
 IR Inten    --     10.5374                25.3996                25.9860

                     61                     62                     63
                      A                      A                      A
 Frequencies --   3142.2491              3161.4279              3187.7049
 Red. masses --      1.1042                 1.1077                 1.1064
 Frc consts  --      6.4234                 6.5227                 6.6242
 IR Inten    --      7.0296                22.9250                 1.8837

                     64                     65                     66
                      A                      A                      A
 Frequencies --   3197.1363              3246.7782              3256.2371
 Red. masses --      1.1090                 1.0947                 1.0900
 Frc consts  --      6.6790                 6.7988                 6.8092
 IR Inten    --      0.6766                 0.2023                 4.7742

 - Thermochemistry -
 -------------------
 Temperature   298.150 Kelvin.  Pressure   1.00000 Atm.
 Atom     1 has atomic number  6 and mass  12.00000

 Molecular mass:   214.05245 amu.
 Principal axes and moments of inertia in atomic units:
                           1         2         3
     Eigenvalues --  1584.364106536.012477930.72452
           X            0.99999  -0.00167   0.00500
           Y            0.00171   0.99998  -0.00648
           Z           -0.00499   0.00649   0.99997
 This molecule is an asymmetric top.
 Rotational symmetry number  1.
 Warning -- assumption of classical behavior for rotation
           may cause significant error
 Rotational temperatures (Kelvin)      0.05467     0.01325     0.01092
 Rotational constants (GHZ):           1.13909     0.27612     0.22756
 Zero-point vibrational energy     476007.4 (Joules/Mol)
                                  113.76849 (Kcal/Mol)
 Warning -- explicit consideration of  19 degrees of freedom as
           vibrations may cause significant error
 Vibrational temperatures:     35.92    56.00    72.27    91.98   142.23
          (Kelvin)            166.94   202.99   225.72   241.49   301.67
                              327.53   334.20   366.31   473.44   491.49
                              608.80   654.87   708.61   784.47   978.57
                             1005.85  1013.52  1022.53  1048.12  1154.87
                             1180.89  1257.18  1272.42  1368.16  1427.97
                             1437.60  1447.47  1469.18  1511.66  1554.73
                             1575.94  1630.35  1740.09  1822.19  1853.93
                             1865.57  1933.58  1949.37  1978.54  2005.12
                             2042.61  2077.27  2096.90  2110.07  2139.13
                             2162.21  2181.00  2186.04  2212.77  2478.63
                             2597.88  4406.57  4448.22  4455.39  4501.72
                             4521.00  4548.59  4586.40  4599.97  4671.39
                             4685.00

 Zero-point correction=                           0.181302 (Hartree/Particle)
 Thermal correction to Energy=                    0.195901
 Thermal correction to Enthalpy=                  0.196845
 Thermal correction to Gibbs Free Energy=         0.136962
 Sum of electronic and zero-point Energies=          -1040.210479
 Sum of electronic and thermal Energies=             -1040.195880
 Sum of electronic and thermal Enthalpies=           -1040.194936
 Sum of electronic and thermal Free Energies=        -1040.254819

                     E (Thermal)             CV                S
                      KCal/Mol        Cal/Mol-Kelvin    Cal/Mol-Kelvin
 Total                  122.929             50.449            126.034
 Electronic               0.000              0.000              0.000
 Translational            0.889              2.981             41.987
 Rotational               0.889              2.981             32.774
 Vibrational            121.152             44.487             51.274
 Vibration     1          0.593              1.985              6.194
 Vibration     2          0.594              1.981              5.313
 Vibration     3          0.595              1.978              4.808
 Vibration     4          0.597              1.972              4.332
 Vibration     5          0.604              1.950              3.477
 Vibration     6          0.608              1.936              3.165
 Vibration     7          0.615              1.912              2.789
 Vibration     8          0.621              1.895              2.587
 Vibration     9          0.625              1.882              2.459
 Vibration    10          0.642              1.826              2.047
 Vibration    11          0.651              1.799              1.897
 Vibration    12          0.653              1.792              1.861
 Vibration    13          0.665              1.755              1.699
 Vibration    14          0.712              1.617              1.265
 Vibration    15          0.721              1.592              1.205
 Vibration    16          0.785              1.420              0.881
 Vibration    17          0.813              1.349              0.780
 Vibration    18          0.848              1.267              0.677
 Vibration    19          0.900              1.150              0.554

                           ! Non-Optimized Parameters !
 Normal termination of Gaussian 16 at Thu Dec 10 10:26:48 2020.

 ----------------------------------------------------------------------
 # B3LYP/6-311++G(d,p) empiricaldispersion=gd3bj scf=xqc pop=npa geom=c
 heck
 ----------------------------------------------------------------------

 --------------------------------------
 CID_56957509_JID_4669_Energie_neutraal
 --------------------------------------
 Structure from the checkpoint file:  "JID_4669.chk"
 Charge =  0 Multiplicity = 1

 SCF Done:  E(RB3LYP) =  -1040.59714026     A.U. after   15 cycles
 Normal termination of Gaussian 16 at Thu Dec 10 10:29:12 2020.

 ----------------------------------------------------------------------
 # B3LYP/6-311++G(d,p) empiricaldispersion=gd3bj scf=xqc pop=npa geom=c
 heck
 ----------------------------------------------------------------------

 ------------------------------------
 CID_56957509_JID_4669_Energie_kation
 ------------------------------------
 Structure from the checkpoint file:  "JID_4669.chk"
 Charge =  1 Multiplicity = 2

 SCF Done:  E(UB3LYP) =  -1040.26298266     A.U. after   31 cycles
 Normal termination of Gaussian 16 at Thu Dec 10 10:36:23 2020.
 Gaussian 16:  ES64L-G16RevA.03 25-Dec-2016

 ----------------------------------------------------------------------
 # B3LYP/6-311++G(d,p) empiricaldispersion=gd3bj scf=xqc pop=npa geom=c
 heck
 ----------------------------------------------------------------------

 -----------------------------------
 CID_56957509_JID_4669_Energie_anion
 -----------------------------------
 Structure from the checkpoint file:  "JID_4669.chk"
 Charge = -1 Multiplicity = 2

                         Standard orientation:
 ---------------------------------------------------------------------
 Center     Atomic      Atomic             Coordinates (Angstroms)
 Number     Number       Type             X           Y           Z
 ---------------------------------------------------------------------
      1          6           0       -4.651338    1.336211   -0.924856
      2          6           0       -4.024534    1.156857    0.448090
      3          8           0       -2.693290    0.597907    0.347428
      4          6           0       -2.619482   -0.748429    0.216705
      5          8           0       -3.583727   -1.487139    0.201720
      6          6           0       -1.229742   -1.231331    0.096795
      7          6           0       -0.181982   -0.398898    0.097493
      8          7           0        1.145408   -0.818798   -0.018100
      9          6           0        2.292318   -0.078666   -0.032495
     10          7           0        3.320125   -0.896083   -0.160778
     11          7           0        2.786697   -2.156019   -0.225663
     12          7           0        1.507226   -2.138215   -0.143914
     13         16           0        2.336159    1.662002    0.100560
     14          6           0        4.148940    1.894594    0.005520
     15          1           0       -4.014127    1.955241   -1.564598
     16          1           0       -5.625240    1.828786   -0.827116
     17          1           0       -4.802927    0.366173   -1.405346
     18          1           0       -3.875387    2.114069    0.952690
     19          1           0       -4.630819    0.502910    1.079044
     20          1           0       -1.106813   -2.303157    0.003218
     21          1           0       -0.302279    0.673850    0.189010
     22          1           0        4.636810    1.378056    0.832383
     23          1           0        4.525972    1.515764   -0.944670
     24          1           0        4.311131    2.971907    0.078928
 ---------------------------------------------------------------------

 SCF Done:  E(UB3LYP) =  -1040.62962976     A.U. after   23 cycles

 The electronic state is 2-A.
 Alpha  occ. eigenvalues --  -88.76131 -19.02531 -18.94799 -14.27175 -14.22113
 Alpha  occ. eigenvalues --  -14.21764 -14.19558 -10.13697 -10.12481 -10.11731
 Alpha  occ. eigenvalues --  -10.10765 -10.06632 -10.05776 -10.01197  -7.84720
 Alpha  occ. eigenvalues --   -5.81130  -5.80732  -5.80095  -0.98731  -0.96168
 Alpha  occ. eigenvalues --   -0.86938  -0.80953  -0.76337  -0.68754  -0.66890
 Alpha  occ. eigenvalues --   -0.63568  -0.57583  -0.55727  -0.52875  -0.49504
 Alpha  occ. eigenvalues --   -0.45399  -0.42862  -0.38555  -0.37794  -0.36017
 Alpha  occ. eigenvalues --   -0.35302  -0.34675  -0.33701  -0.32844  -0.31690
 Alpha  occ. eigenvalues --   -0.31306  -0.29476  -0.27359  -0.26486  -0.25407
 Alpha  occ. eigenvalues --   -0.24215  -0.22999  -0.22187  -0.21990  -0.20314
 Alpha  occ. eigenvalues --   -0.17387  -0.15803  -0.14883  -0.13224  -0.12859
 Alpha  occ. eigenvalues --   -0.11150   0.02892
 Alpha virt. eigenvalues --    0.06895   0.07400   0.09709   0.10136   0.10895
 Alpha virt. eigenvalues --    0.11537   0.11662   0.12392   0.12910   0.13426
 Alpha virt. eigenvalues --    0.13560   0.13947   0.14935   0.15355   0.15836

  Beta  occ. eigenvalues --  -88.76131 -19.02491 -18.94487 -14.27272 -14.21755
  Beta  occ. eigenvalues --  -14.21551 -14.19639 -10.13545 -10.12176 -10.11734
  Beta  occ. eigenvalues --  -10.10766 -10.06626 -10.05378 -10.00971  -7.84719
  Beta  occ. eigenvalues --   -5.81137  -5.80738  -5.80080  -0.98416  -0.95962
  Beta  occ. eigenvalues --   -0.86485  -0.80686  -0.75964  -0.68658  -0.66729
  Beta  occ. eigenvalues --   -0.63033  -0.57455  -0.55301  -0.52587  -0.49231
  Beta  occ. eigenvalues --   -0.45015  -0.42712  -0.38230  -0.37694  -0.35299
  Beta  occ. eigenvalues --   -0.35146  -0.34429  -0.33502  -0.32589  -0.31484
  Beta  occ. eigenvalues --   -0.31170  -0.29319  -0.27002  -0.25889  -0.25222
  Beta  occ. eigenvalues --   -0.24000  -0.22817  -0.22023  -0.20862  -0.19250
  Beta  occ. eigenvalues --   -0.16469  -0.15638  -0.14536  -0.12902  -0.12057
  Beta  occ. eigenvalues --   -0.09483
  Beta virt. eigenvalues --    0.06874   0.07321   0.09189   0.09708   0.10102
  Beta virt. eigenvalues --    0.10853   0.11511   0.11691   0.12366   0.12991
  Beta virt. eigenvalues --    0.13467   0.13888   0.15142   0.15515   0.15600

 Mulliken charges and spin densities:
               1          2
     1  C   -0.303558  -0.033523
     2  C   -0.221767   0.016431
     3  O   -0.047483   0.006580
     4  C   -0.546057   0.130916
     5  O   -0.361680   0.098269
     6  C    0.456748   0.191769
     7  C   -0.750332   0.242317
     8  N    0.287925  -0.034634
     9  C   -0.355875   0.155883
    10  N   -0.170182  -0.042600
    11  N    0.219452   0.098416
    12  N   -0.325588   0.162346
    13  S   -0.094721   0.026509
    14  C   -0.378156  -0.001250
    15  H    0.119806   0.011116
    16  H    0.091370   0.008240
    17  H    0.163275   0.008998
    18  H    0.130735   0.000761
    19  H    0.159867  -0.001190
    20  H    0.229615  -0.015528
    21  H    0.168551  -0.032352
    22  H    0.192573   0.001220
    23  H    0.192401   0.001424
    24  H    0.143084  -0.000118
 Sum of Mulliken charges =  -1.00000   1.00000

 Dipole moment (field-independent basis, Debye):
    X=             -0.0960    Y=              8.4357    Z=              0.2116  Tot=              8.4389
 Quadrupole moment (field-independent basis, Debye-Ang):
   XX=           -134.4609   YY=           -113.5525   ZZ=            -96.0426
   XY=              4.6783   XZ=              1.9045   YZ=             -0.2539

 Summary of Natural Population Analysis:

                                       Natural Population
                Natural  -----------------------------------------------
    Atom  No    Charge         Core      Valence    Rydberg      Total
 -----------------------------------------------------------------------
      C    1   -0.29927      0.99967     2.29548    0.00412     3.29927
      C    2   -0.01571      0.99960     2.00553    0.01058     3.01571
      O    3   -0.29285      0.99986     3.28314    0.00985     4.29285
      C    4    0.40443      0.99967     1.57171    0.02419     2.59557
      O    5   -0.29827      0.99987     3.29237    0.00603     4.29827
      C    6   -0.12182      0.99950     2.11301    0.00931     3.12182
      C    7    0.08227      0.99952     1.90781    0.01040     2.91773
      N    8   -0.14607      0.99958     2.62658    0.01991     3.64607
      C    9    0.14996      0.99957     1.83395    0.01652     2.85004
      N   10   -0.21746      0.99966     2.70245    0.01535     3.71746
      N   11   -0.02387      0.99981     2.50322    0.02084     3.52387
      N   12    0.00556      0.99978     2.47860    0.01606     3.49444
      S   13    0.12388      4.99956     2.85484    0.02173     7.87612
      C   14   -0.34362      0.99962     2.33819    0.00581     3.34362
      H   15    0.09706      0.00000     0.40195    0.00100     0.40294
      H   16    0.09210      0.00000     0.40699    0.00092     0.40790
      H   17    0.10896      0.00000     0.38990    0.00114     0.39104
      H   18    0.08146      0.00000     0.41738    0.00116     0.41854
      H   19    0.09251      0.00000     0.40595    0.00154     0.40749
      H   20    0.10793      0.00000     0.39104    0.00104     0.39207
      H   21    0.09665      0.00000     0.40217    0.00118     0.40335
      H   22    0.10866      0.00000     0.38988    0.00146     0.39134
      H   23    0.10869      0.00000     0.38985    0.00146     0.39131
      H   24    0.09881      0.00000     0.40009    0.00110     0.40119
 =======================================================================
   * Total *   -0.00000     17.99527    37.80206    0.20267    56.00000

 Normal termination of Gaussian 16 at Thu Dec 10 10:41:38 2020.
