 Gaussian 16, Revision A.03,

 -----------------------------------------------------------
 # opt freq B3LYP/6-31G(d) empiricaldispersion=gd3bj scf=xqc
 -----------------------------------------------------------

 ------------------------------
 CID_20754712_JID_1059_neutraal
 ------------------------------
 Symbolic Z-matrix:
 Charge =  0 Multiplicity = 1

 SCF Done:  E(RB3LYP) =  -519.123713265     A.U. after   14 cycles
 SCF Done:  E(RB3LYP) =  -519.126640479     A.U. after   12 cycles
 SCF Done:  E(RB3LYP) =  -519.127007129     A.U. after   11 cycles
 SCF Done:  E(RB3LYP) =  -519.127203066     A.U. after   12 cycles
 SCF Done:  E(RB3LYP) =  -519.127351696     A.U. after   10 cycles
 SCF Done:  E(RB3LYP) =  -519.127471880     A.U. after   11 cycles
 SCF Done:  E(RB3LYP) =  -519.127603647     A.U. after   11 cycles
 SCF Done:  E(RB3LYP) =  -519.127848677     A.U. after   12 cycles
 SCF Done:  E(RB3LYP) =  -519.127989110     A.U. after   12 cycles
 SCF Done:  E(RB3LYP) =  -519.128030880     A.U. after   10 cycles
 SCF Done:  E(RB3LYP) =  -519.128049945     A.U. after    7 cycles
 SCF Done:  E(RB3LYP) =  -519.128050071     A.U. after    7 cycles
 SCF Done:  E(RB3LYP) =  -519.128050152     A.U. after    6 cycles
 SCF Done:  E(RB3LYP) =  -519.128050312     A.U. after    7 cycles
 SCF Done:  E(RB3LYP) =  -519.128050383     A.U. after    7 cycles
 SCF Done:  E(RB3LYP) =  -519.128050430     A.U. after    7 cycles
 Optimization completed.
    -- Stationary point found.
 Normal termination of Gaussian 16 at Tue Dec  8 19:14:46 2020.

 --------------------------------------------------------------------
 #N Geom=AllCheck Guess=TCheck SCRF=Check GenChk RB3LYP/6-31G(d) Freq
 --------------------------------------------------------------------

 Structure from the checkpoint file:  "JID_1059.chk"
 ------------------------------
 CID_20754712_JID_1059_neutraal
 ------------------------------
 Charge =  0 Multiplicity = 1

 SCF Done:  E(RB3LYP) =  -519.128050430     A.U. after    1 cycles

  Exact polarizability: 107.631  -0.127  90.739   4.459   1.411  84.031
 Approx polarizability: 134.520   6.665 132.827  13.339   7.688 128.691

                      1                      2                      3
                      A                      A                      A
 Frequencies --     27.3991                48.1757                94.5606
 Red. masses --      5.0977                 1.7721                 3.4698
 Frc consts  --      0.0023                 0.0024                 0.0183
 IR Inten    --      1.5234                 2.4806                 3.1330

                      4                      5                      6
                      A                      A                      A
 Frequencies --    151.9586               168.1259               195.0620
 Red. masses --      3.2242                 2.4993                 1.0898
 Frc consts  --      0.0439                 0.0416                 0.0244
 IR Inten    --      1.6052                 2.0067                 0.3912

                      7                      8                      9
                      A                      A                      A
 Frequencies --    208.4620               298.4623               330.2900
 Red. masses --      1.3166                 3.3770                 2.4900
 Frc consts  --      0.0337                 0.1772                 0.1600
 IR Inten    --      1.9308                 0.8871                 6.2338

                     10                     11                     12
                      A                      A                      A
 Frequencies --    349.8536               364.7786               408.5889
 Red. masses --      3.4828                 3.5900                 1.9639
 Frc consts  --      0.2512                 0.2815                 0.1932
 IR Inten    --      8.2942                 0.9920                 1.1228

                     13                     14                     15
                      A                      A                      A
 Frequencies --    459.3840               480.3346               529.8413
 Red. masses --      2.8628                 3.0674                 2.2135
 Frc consts  --      0.3560                 0.4170                 0.3661
 IR Inten    --      2.6244                 3.6180                 1.6974

                     16                     17                     18
                      A                      A                      A
 Frequencies --    584.0346               596.3759               626.9725
 Red. masses --      4.1546                 3.1137                 3.2312
 Frc consts  --      0.8349                 0.6525                 0.7484
 IR Inten    --     18.3638                 3.5256                 9.8484

                     19                     20                     21
                      A                      A                      A
 Frequencies --    724.4707               826.0681               834.0527
 Red. masses --      3.1459                 1.6136                 2.0296
 Frc consts  --      0.9728                 0.6487                 0.8319
 IR Inten    --      1.2841                 2.0623                 2.0653

                     22                     23                     24
                      A                      A                      A
 Frequencies --    930.8028               946.5724               967.1099
 Red. masses --      2.2175                 3.1461                 2.2491
 Frc consts  --      1.1320                 1.6609                 1.2394
 IR Inten    --      4.6068                 8.0150                 3.4645

                     25                     26                     27
                      A                      A                      A
 Frequencies --    991.1884              1008.5969              1030.8979
 Red. masses --      1.4587                 1.8627                 2.5990
 Frc consts  --      0.8444                 1.1164                 1.6274
 IR Inten    --      2.7062                20.2913                53.9062

                     28                     29                     30
                      A                      A                      A
 Frequencies --   1061.0469              1073.1294              1117.2161
 Red. masses --      1.7245                 1.8586                 2.7432
 Frc consts  --      1.1439                 1.2611                 2.0173
 IR Inten    --      5.2399                15.7360                 1.6167

                     31                     32                     33
                      A                      A                      A
 Frequencies --   1140.1926              1178.1311              1184.7037
 Red. masses --      2.8865                 3.1432                 1.2668
 Frc consts  --      2.2109                 2.5705                 1.0476
 IR Inten    --     81.4250                93.2728                 2.7797

                     34                     35                     36
                      A                      A                      A
 Frequencies --   1196.7903              1226.3867              1239.0524
 Red. masses --      1.2736                 2.2969                 1.5833
 Frc consts  --      1.0748                 2.0354                 1.4321
 IR Inten    --      3.7496                16.1674                16.5123

                     37                     38                     39
                      A                      A                      A
 Frequencies --   1270.9881              1290.1219              1307.7948
 Red. masses --      1.6604                 1.3275                 2.1171
 Frc consts  --      1.5803                 1.3018                 2.1334
 IR Inten    --     92.0213                10.7429                53.3061

                     40                     41                     42
                      A                      A                      A
 Frequencies --   1348.1696              1373.5284              1385.9715
 Red. masses --      1.2701                 1.3929                 1.2415
 Frc consts  --      1.3601                 1.5483                 1.4052
 IR Inten    --      2.9885                30.1586                 2.4237

                     43                     44                     45
                      A                      A                      A
 Frequencies --   1404.8953              1414.4244              1419.3304
 Red. masses --      1.4059                 1.2811                 1.3460
 Frc consts  --      1.6349                 1.5100                 1.5976
 IR Inten    --      9.5344                 7.9583                26.4884

                     46                     47                     48
                      A                      A                      A
 Frequencies --   1433.2471              1477.2785              1502.3025
 Red. masses --      1.3069                 2.3686                 1.0928
 Frc consts  --      1.5817                 3.0455                 1.4531
 IR Inten    --      9.9791               185.0328                 7.0330

                     49                     50                     51
                      A                      A                      A
 Frequencies --   1506.2807              1508.9234              1515.0047
 Red. masses --      1.1434                 1.0947                 1.0928
 Frc consts  --      1.5285                 1.4685                 1.4778
 IR Inten    --      0.1112                 1.4505                16.2228

                     52                     53                     54
                      A                      A                      A
 Frequencies --   1519.8643              1522.2126              1526.7329
 Red. masses --      1.0609                 1.0761                 1.0724
 Frc consts  --      1.4439                 1.4691                 1.4727
 IR Inten    --     17.5704                 3.0231                 1.7729

                     55                     56                     57
                      A                      A                      A
 Frequencies --   1537.6462              1540.8105              1765.8586
 Red. masses --      1.1176                 1.0591                 9.5546
 Frc consts  --      1.5569                 1.4815                17.5538
 IR Inten    --      4.8480                10.5559               301.5029

                     58                     59                     60
                      A                      A                      A
 Frequencies --   3014.7886              3023.9102              3030.3559
 Red. masses --      1.0376                 1.0744                 1.0766
 Frc consts  --      5.5563                 5.7885                 5.8250
 IR Inten    --     42.1761                19.0213                14.2227

                     61                     62                     63
                      A                      A                      A
 Frequencies --   3036.0217              3050.9900              3058.2656
 Red. masses --      1.0793                 1.0658                 1.0401
 Frc consts  --      5.8613                 5.8453                 5.7318
 IR Inten    --     48.2119                 5.2495                 6.9652

                     64                     65                     66
                      A                      A                      A
 Frequencies --   3059.7482              3068.7031              3101.6575
 Red. masses --      1.0607                 1.0958                 1.1043
 Frc consts  --      5.8508                 6.0801                 6.2595
 IR Inten    --     37.1829                82.5911                22.8546

                     67                     68                     69
                      A                      A                      A
 Frequencies --   3106.1528              3119.2086              3136.0862
 Red. masses --      1.1044                 1.1008                 1.0985
 Frc consts  --      6.2778                 6.3101                 6.3656
 IR Inten    --     53.9502                13.0052                37.0390

                     70                     71                     72
                      A                      A                      A
 Frequencies --   3161.7614              3173.2863              3178.7772
 Red. masses --      1.0899                 1.0918                 1.0996
 Frc consts  --      6.4193                 6.4774                 6.5465
 IR Inten    --     20.1422                 2.8938                 7.5281

 - Thermochemistry -
 -------------------
 Temperature   298.150 Kelvin.  Pressure   1.00000 Atm.
 Atom     1 has atomic number  6 and mass  12.00000

 Molecular mass:   157.11028 amu.
 Principal axes and moments of inertia in atomic units:
                           1         2         3
     Eigenvalues --   864.345962818.615043010.22636
           X            0.99964  -0.02372  -0.01254
           Y            0.02299   0.99820  -0.05548
           Z            0.01384   0.05517   0.99838
 This molecule is an asymmetric top.
 Rotational symmetry number  1.
 Warning -- assumption of classical behavior for rotation
           may cause significant error
 Rotational temperatures (Kelvin)      0.10021     0.03073     0.02877
 Rotational constants (GHZ):           2.08798     0.64029     0.59954
 Zero-point vibrational energy     607046.0 (Joules/Mol)
                                  145.08748 (Kcal/Mol)
 Warning -- explicit consideration of  17 degrees of freedom as
           vibrations may cause significant error
 Vibrational temperatures:     39.42    69.31   136.05   218.63   241.90
          (Kelvin)            280.65   299.93   429.42   475.21   503.36
                              524.84   587.87   660.95   691.09   762.32
                              840.30   858.05   902.07  1042.35  1188.53
                             1200.02  1339.22  1361.91  1391.46  1426.10
                             1451.15  1483.23  1526.61  1543.99  1607.42
                             1640.48  1695.07  1704.52  1721.91  1764.50
                             1782.72  1828.67  1856.20  1881.62  1939.72
                             1976.20  1994.10  2021.33  2035.04  2042.10
                             2062.12  2125.47  2161.48  2167.20  2171.00
                             2179.75  2186.75  2190.12  2196.63  2212.33
                             2216.88  2540.68  4337.61  4350.73  4360.01
                             4368.16  4389.69  4400.16  4402.30  4415.18
                             4462.59  4469.06  4487.85  4512.13  4549.07
                             4565.65  4573.55

 Zero-point correction=                           0.231212 (Hartree/Particle)
 Thermal correction to Energy=                    0.242672
 Thermal correction to Enthalpy=                  0.243617
 Thermal correction to Gibbs Free Energy=         0.192978
 Sum of electronic and zero-point Energies=           -518.896839
 Sum of electronic and thermal Energies=              -518.885378
 Sum of electronic and thermal Enthalpies=            -518.884434
 Sum of electronic and thermal Free Energies=         -518.935073

                     E (Thermal)             CV                S
                      KCal/Mol        Cal/Mol-Kelvin    Cal/Mol-Kelvin
 Total                  152.279             42.591            106.578
 Electronic               0.000              0.000              0.000
 Translational            0.889              2.981             41.065
 Rotational               0.889              2.981             30.373
 Vibrational            150.502             36.630             35.140
 Vibration     1          0.593              1.984              6.009
 Vibration     2          0.595              1.978              4.891
 Vibration     3          0.603              1.953              3.563
 Vibration     4          0.619              1.900              2.648
 Vibration     5          0.625              1.882              2.456
 Vibration     6          0.636              1.847              2.179
 Vibration     7          0.642              1.828              2.057
 Vibration     8          0.692              1.677              1.426
 Vibration     9          0.713              1.615              1.259
 Vibration    10          0.727              1.576              1.167
 Vibration    11          0.738              1.545              1.102
 Vibration    12          0.773              1.452              0.932
 Vibration    13          0.817              1.340              0.768
 Vibration    14          0.837              1.294              0.709
 Vibration    15          0.885              1.184              0.588
 Vibration    16          0.941              1.066              0.478
 Vibration    17          0.954              1.039              0.456

                           ! Non-Optimized Parameters !
 Normal termination of Gaussian 16 at Tue Dec  8 19:19:52 2020.

 ----------------------------------------------------------------------
 # B3LYP/6-311++G(d,p) empiricaldispersion=gd3bj scf=xqc pop=npa geom=c
 heck
 ----------------------------------------------------------------------

 --------------------------------------
 CID_20754712_JID_1059_Energie_neutraal
 --------------------------------------
 Structure from the checkpoint file:  "JID_1059.chk"
 Charge =  0 Multiplicity = 1

 SCF Done:  E(RB3LYP) =  -519.279331300     A.U. after   13 cycles
 Normal termination of Gaussian 16 at Tue Dec  8 19:21:54 2020.

 ----------------------------------------------------------------------
 # B3LYP/6-311++G(d,p) empiricaldispersion=gd3bj scf=xqc pop=npa geom=c
 heck
 ----------------------------------------------------------------------

 ------------------------------------
 CID_20754712_JID_1059_Energie_kation
 ------------------------------------
 Structure from the checkpoint file:  "JID_1059.chk"
 Charge =  1 Multiplicity = 2

 SCF Done:  E(UB3LYP) =  -518.959144968     A.U. after   30 cycles
 Normal termination of Gaussian 16 at Tue Dec  8 19:28:20 2020.
 Gaussian 16:  ES64L-G16RevA.03 25-Dec-2016

 ----------------------------------------------------------------------
 # B3LYP/6-311++G(d,p) empiricaldispersion=gd3bj scf=xqc pop=npa geom=c
 heck
 ----------------------------------------------------------------------

 -----------------------------------
 CID_20754712_JID_1059_Energie_anion
 -----------------------------------
 Structure from the checkpoint file:  "JID_1059.chk"
 Charge = -1 Multiplicity = 2

                         Standard orientation:
 ---------------------------------------------------------------------
 Center     Atomic      Atomic             Coordinates (Angstroms)
 Number     Number       Type             X           Y           Z
 ---------------------------------------------------------------------
      1          6           0        2.951595   -1.133520    0.707255
      2          6           0        2.262479    0.170436    0.327004
      3          8           0        2.648967    1.241701    0.782637
      4          7           0        1.211030    0.093160   -0.558239
      5          6           0        0.448314    1.303525   -0.856367
      6          6           0       -0.926454    1.255698   -0.174548
      7          6           0       -1.676741   -0.017390   -0.586057
      8          6           0       -0.829596   -1.263687   -0.289280
      9          6           0        0.545625   -1.138938   -0.964274
     10          8           0       -3.002609   -0.105123   -0.074393
     11          6           0       -3.144233   -0.085788    1.333481
     12          1           0        3.798288   -0.878080    1.344620
     13          1           0        3.314827   -1.678000   -0.170997
     14          1           0        2.280513   -1.799549    1.261762
     15          1           0        0.326827    1.377490   -1.946261
     16          1           0        1.035085    2.153900   -0.512158
     17          1           0       -1.518810    2.137392   -0.445394
     18          1           0       -0.769695    1.278525    0.910283
     19          1           0       -1.832162    0.024167   -1.672927
     20          1           0       -0.678265   -1.374990    0.791474
     21          1           0       -1.352251   -2.157675   -0.648417
     22          1           0        1.172811   -1.998805   -0.731839
     23          1           0        0.418571   -1.119146   -2.056465
     24          1           0       -2.597434   -0.902287    1.826375
     25          1           0       -2.821295    0.866486    1.776262
     26          1           0       -4.211009   -0.216188    1.532118
 ---------------------------------------------------------------------

 SCF Done:  E(UB3LYP) =  -519.266248888     A.U. after   30 cycles

 The electronic state is 2-A.
 Alpha  occ. eigenvalues --  -19.02485 -18.98239 -14.23831 -10.16941 -10.12390
 Alpha  occ. eigenvalues --  -10.11053 -10.10649 -10.10361 -10.07308 -10.06806
 Alpha  occ. eigenvalues --  -10.06798  -0.93653  -0.93461  -0.84035  -0.70032
 Alpha  occ. eigenvalues --   -0.67041  -0.63600  -0.60290  -0.55342  -0.54043
 Alpha  occ. eigenvalues --   -0.48542  -0.44456  -0.40628  -0.38793  -0.37508
 Alpha  occ. eigenvalues --   -0.36462  -0.36067  -0.35826  -0.33106  -0.32796
 Alpha  occ. eigenvalues --   -0.30705  -0.30560  -0.29777  -0.28851  -0.28029
 Alpha  occ. eigenvalues --   -0.26207  -0.25976  -0.25168  -0.24226  -0.20585
 Alpha  occ. eigenvalues --   -0.16189  -0.15314  -0.14291   0.04518
 Alpha virt. eigenvalues --    0.06769   0.07244   0.08333   0.09250   0.09845
 Alpha virt. eigenvalues --    0.10053   0.10667   0.11292   0.11857   0.12717
 Alpha virt. eigenvalues --    0.12883   0.13125   0.13672   0.14476   0.14778

  Beta  occ. eigenvalues --  -19.02474 -18.98228 -14.23833 -10.16933 -10.12383
  Beta  occ. eigenvalues --  -10.11020 -10.10614 -10.10349 -10.07297 -10.06770
  Beta  occ. eigenvalues --  -10.06760  -0.93628  -0.93440  -0.84021  -0.70005
  Beta  occ. eigenvalues --   -0.67000  -0.63541  -0.60239  -0.55285  -0.53988
  Beta  occ. eigenvalues --   -0.48497  -0.44399  -0.40589  -0.38745  -0.37467
  Beta  occ. eigenvalues --   -0.36430  -0.36021  -0.35797  -0.33070  -0.32757
  Beta  occ. eigenvalues --   -0.30659  -0.30527  -0.29742  -0.28810  -0.28000
  Beta  occ. eigenvalues --   -0.26168  -0.25923  -0.25122  -0.24194  -0.20546
  Beta  occ. eigenvalues --   -0.16171  -0.15296  -0.14266
  Beta virt. eigenvalues --    0.06937   0.07725   0.08052   0.08854   0.10001
  Beta virt. eigenvalues --    0.10320   0.10631   0.11056   0.11725   0.12128
  Beta virt. eigenvalues --    0.13101   0.13356   0.13618   0.14031   0.14718

 Mulliken charges and spin densities:
               1          2
     1  C    1.443326  -1.969723
     2  C   -0.550512   0.669649
     3  O   -0.371113   0.006318
     4  N   -0.011489   0.133451
     5  C    0.020489  -0.494025
     6  C    0.378254  -0.310364
     7  C   -1.069541   0.447975
     8  C    0.632705  -0.656946
     9  C    0.497236  -0.973742
    10  O   -0.128015   0.045619
    11  C    0.887074  -1.154676
    12  H    0.140167   0.029276
    13  H   -0.424130   0.599298
    14  H   -0.626667   0.801571
    15  H   -0.139502   0.294899
    16  H    0.124701   0.088340
    17  H    0.044773   0.135302
    18  H    0.129988   0.031205
    19  H   -0.011821   0.196062
    20  H    0.406268  -0.273912
    21  H   -0.334798   0.526694
    22  H   -0.612875   0.817043
    23  H   -0.409564   0.578919
    24  H   -0.591371   0.735429
    25  H   -0.285740   0.409328
    26  H   -0.137843   0.287011
 Sum of Mulliken charges =  -1.00000   1.00000

 Dipole moment (field-independent basis, Debye):
    X=             -0.8698    Y=              4.3844    Z=             -1.4725  Tot=              4.7061
 Quadrupole moment (field-independent basis, Debye-Ang):
   XX=           -127.5226   YY=           -114.6326   ZZ=           -106.0431
   XY=              0.4469   XZ=              2.7600   YZ=             -2.7705

 Summary of Natural Population Analysis:

                                       Natural Population
                Natural  -----------------------------------------------
    Atom  No    Charge         Core      Valence    Rydberg      Total
 -----------------------------------------------------------------------
      C    1   -0.33212      0.99963     2.32711    0.00539     3.33212
      C    2    0.34840      0.99965     1.62916    0.02278     2.65160
      O    3   -0.33063      0.99988     3.32487    0.00589     4.33063
      N    4   -0.26070      0.99965     2.74919    0.01186     3.76070
      C    5   -0.08502      0.99961     2.07587    0.00955     3.08502
      C    6   -0.20828      0.99960     2.20215    0.00653     3.20828
      C    7    0.06956      0.99951     1.91596    0.01497     2.93044
      C    8   -0.20904      0.99960     2.19972    0.00973     3.20904
      C    9   -0.08377      0.99960     2.07215    0.01201     3.08377
      O   10   -0.30157      0.99988     3.29094    0.01075     4.30157
      C   11   -0.10111      0.99960     2.09188    0.00963     3.10111
      H   12    0.11114      0.00000     0.38800    0.00086     0.38886
      H   13    0.10970      0.00000     0.38891    0.00139     0.39030
      H   14    0.11292      0.00000     0.38508    0.00200     0.38708
      H   15    0.09088      0.00000     0.40791    0.00122     0.40912
      H   16    0.11711      0.00000     0.38164    0.00124     0.38289
      H   17    0.10237      0.00000     0.39649    0.00114     0.39763
      H   18    0.10083      0.00000     0.39748    0.00169     0.39917
      H   19    0.08746      0.00000     0.41040    0.00213     0.41254
      H   20    0.09905      0.00000     0.39843    0.00252     0.40095
      H   21    0.10774      0.00000     0.39046    0.00180     0.39226
      H   22    0.11092      0.00000     0.38575    0.00333     0.38908
      H   23    0.09382      0.00000     0.40422    0.00197     0.40618
      H   24    0.08215      0.00000     0.41613    0.00171     0.41785
      H   25    0.07834      0.00000     0.42028    0.00138     0.42166
      H   26    0.08985      0.00000     0.40904    0.00111     0.41015
 =======================================================================
   * Total *    0.00000     10.99620    31.85921    0.14459    43.00000

 Normal termination of Gaussian 16 at Tue Dec  8 19:34:45 2020.
