 Gaussian 16, Revision A.03,

 -----------------------------------------------------------
 # opt freq B3LYP/6-31G(d) empiricaldispersion=gd3bj scf=xqc
 -----------------------------------------------------------

 ------------------------------
 CID_82478167_JID_8499_neutraal
 ------------------------------
 Symbolic Z-matrix:
 Charge =  0 Multiplicity = 1

 SCF Done:  E(RB3LYP) =  -779.413842067     A.U. after   14 cycles
 SCF Done:  E(RB3LYP) =  -779.415193827     A.U. after   13 cycles
 SCF Done:  E(RB3LYP) =  -779.416803546     A.U. after   13 cycles
 SCF Done:  E(RB3LYP) =  -779.418302148     A.U. after   13 cycles
 SCF Done:  E(RB3LYP) =  -779.420087197     A.U. after   12 cycles
 SCF Done:  E(RB3LYP) =  -779.420325918     A.U. after   11 cycles
 SCF Done:  E(RB3LYP) =  -779.420440999     A.U. after   12 cycles
 SCF Done:  E(RB3LYP) =  -779.420564034     A.U. after   12 cycles
 SCF Done:  E(RB3LYP) =  -779.420633657     A.U. after   12 cycles
 SCF Done:  E(RB3LYP) =  -779.420659997     A.U. after   11 cycles
 SCF Done:  E(RB3LYP) =  -779.420995075     A.U. after   11 cycles
 SCF Done:  E(RB3LYP) =  -779.420997662     A.U. after   10 cycles
 SCF Done:  E(RB3LYP) =  -779.420997701     A.U. after    8 cycles
 SCF Done:  E(RB3LYP) =  -779.420997879     A.U. after    8 cycles
 Optimization completed.
    -- Stationary point found.
 Normal termination of Gaussian 16 at Fri Dec 11 21:18:43 2020.

 --------------------------------------------------------------------
 #N Geom=AllCheck Guess=TCheck SCRF=Check GenChk RB3LYP/6-31G(d) Freq
 --------------------------------------------------------------------

 Structure from the checkpoint file:  "JID_8499.chk"
 ------------------------------
 CID_82478167_JID_8499_neutraal
 ------------------------------
 Charge =  0 Multiplicity = 1

 SCF Done:  E(RB3LYP) =  -779.420997878     A.U. after    1 cycles

  Exact polarizability: 168.669  -6.036 163.178   7.945   5.837 128.012
 Approx polarizability: 234.816 -20.714 262.806   9.112  20.253 218.510

                      1                      2                      3
                      A                      A                      A
 Frequencies --     24.8629                41.5437                47.8901
 Red. masses --      4.2588                 4.0926                 4.9409
 Frc consts  --      0.0016                 0.0042                 0.0067
 IR Inten    --      0.1022                 0.7959                 3.7404

                      4                      5                      6
                      A                      A                      A
 Frequencies --     58.7691               101.3272               162.2845
 Red. masses --      7.3405                 3.7031                 3.5106
 Frc consts  --      0.0149                 0.0224                 0.0545
 IR Inten    --      6.8448                 0.3294                 0.3302

                      7                      8                      9
                      A                      A                      A
 Frequencies --    182.6269               214.3816               248.3898
 Red. masses --      4.5560                 3.4793                 3.6893
 Frc consts  --      0.0895                 0.0942                 0.1341
 IR Inten    --      0.0975                 1.5251                 0.5434

                     10                     11                     12
                      A                      A                      A
 Frequencies --    256.7990               285.8774               322.7895
 Red. masses --      3.0604                 2.6462                 4.1211
 Frc consts  --      0.1189                 0.1274                 0.2530
 IR Inten    --     11.5090                 2.2731                 3.7233

                     13                     14                     15
                      A                      A                      A
 Frequencies --    368.7556               397.0469               413.1828
 Red. masses --      2.7990                 2.2590                 3.1491
 Frc consts  --      0.2242                 0.2098                 0.3167
 IR Inten    --      1.3101                 1.1868                 5.6778

                     16                     17                     18
                      A                      A                      A
 Frequencies --    422.3576               460.3134               487.2427
 Red. masses --      2.2803                 3.5426                 4.4410
 Frc consts  --      0.2397                 0.4423                 0.6212
 IR Inten    --      0.6390                 3.2280                 9.9850

                     19                     20                     21
                      A                      A                      A
 Frequencies --    512.7468               581.6445               605.3599
 Red. masses --      2.3371                 2.7720                 5.5608
 Frc consts  --      0.3620                 0.5525                 1.2007
 IR Inten    --     10.9057                 1.4708                 0.1798

                     22                     23                     24
                      A                      A                      A
 Frequencies --    649.2613               680.2289               710.4965
 Red. masses --      6.2330                 4.7509                 4.0618
 Frc consts  --      1.5480                 1.2952                 1.2081
 IR Inten    --      3.4339                 7.7239                14.7290

                     25                     26                     27
                      A                      A                      A
 Frequencies --    730.4909               755.6505               770.3636
 Red. masses --      2.4820                 3.2157                 3.3216
 Frc consts  --      0.7803                 1.0819                 1.1614
 IR Inten    --     15.9900                21.8700                31.5637

                     28                     29                     30
                      A                      A                      A
 Frequencies --    799.4337               807.7632               809.9737
 Red. masses --      1.6209                 1.4256                 1.8003
 Frc consts  --      0.6103                 0.5481                 0.6959
 IR Inten    --     47.4783                 5.9340                 9.9884

                     31                     32                     33
                      A                      A                      A
 Frequencies --    833.4904               846.8833               883.0381
 Red. masses --      4.3112                 3.0955                 2.1513
 Frc consts  --      1.7646                 1.3080                 0.9884
 IR Inten    --      4.4935                 1.2979                14.8275

                     34                     35                     36
                      A                      A                      A
 Frequencies --    908.8074               933.2463               937.8981
 Red. masses --      2.4396                 1.4983                 1.4044
 Frc consts  --      1.1872                 0.7688                 0.7279
 IR Inten    --      0.5637                 6.5130                 3.3306

                     37                     38                     39
                      A                      A                      A
 Frequencies --    957.5574               971.5672               990.2170
 Red. masses --      1.5835                 3.1515                 1.8877
 Frc consts  --      0.8555                 1.7527                 1.0906
 IR Inten    --      0.0736                 3.7950                 4.1036

                     40                     41                     42
                      A                      A                      A
 Frequencies --    998.8356              1010.9315              1044.4541
 Red. masses --      1.4185                 1.9339                 2.4494
 Frc consts  --      0.8338                 1.1645                 1.5743
 IR Inten    --      0.6441                15.2275                12.6271

                     43                     44                     45
                      A                      A                      A
 Frequencies --   1045.7145              1070.8850              1076.6191
 Red. masses --      4.0040                 2.1477                 2.7320
 Frc consts  --      2.5797                 1.4511                 1.8658
 IR Inten    --     14.4882                 5.2025                 0.4830

                     46                     47                     48
                      A                      A                      A
 Frequencies --   1077.5500              1104.0703              1134.8057
 Red. masses --      3.2025                 1.7634                 2.0439
 Frc consts  --      2.1909                 1.2665                 1.5508
 IR Inten    --      3.0211                 4.7252                13.4134

                     49                     50                     51
                      A                      A                      A
 Frequencies --   1155.3668              1157.3663              1198.5241
 Red. masses --      1.9706                 1.7307                 2.0100
 Frc consts  --      1.5498                 1.3659                 1.7011
 IR Inten    --      1.7120                 8.4141                 2.4670

                     52                     53                     54
                      A                      A                      A
 Frequencies --   1199.4408              1214.2770              1218.8017
 Red. masses --      1.2997                 1.3308                 1.9605
 Frc consts  --      1.1017                 1.1561                 1.7159
 IR Inten    --      1.5877                10.3048                13.8392

                     55                     56                     57
                      A                      A                      A
 Frequencies --   1234.4912              1253.5096              1267.9849
 Red. masses --      1.8236                 1.7267                 1.7726
 Frc consts  --      1.6374                 1.5985                 1.6792
 IR Inten    --      5.8919                 2.3980                17.6421

                     58                     59                     60
                      A                      A                      A
 Frequencies --   1308.9979              1313.3267              1325.9109
 Red. masses --      4.4824                 1.5050                 1.2419
 Frc consts  --      4.5252                 1.5294                 1.2864
 IR Inten    --      1.8529                 1.1033                 1.8177

                     61                     62                     63
                      A                      A                      A
 Frequencies --   1338.9564              1353.9408              1370.9197
 Red. masses --      1.3908                 1.5122                 1.4204
 Frc consts  --      1.4691                 1.6332                 1.5728
 IR Inten    --      2.0521                 2.9116                30.7429

                     64                     65                     66
                      A                      A                      A
 Frequencies --   1373.9333              1385.0078              1397.8915
 Red. masses --      1.5072                 1.4234                 1.8697
 Frc consts  --      1.6763                 1.6087                 2.1526
 IR Inten    --     14.2404                12.6072                19.9734

                     67                     68                     69
                      A                      A                      A
 Frequencies --   1409.0510              1423.8246              1434.1420
 Red. masses --      1.5334                 1.4160                 2.9815
 Frc consts  --      1.7938                 1.6913                 3.6130
 IR Inten    --     14.0888                11.8998                13.0073

                     70                     71                     72
                      A                      A                      A
 Frequencies --   1448.0578              1478.9937              1494.1269
 Red. masses --      1.6326                 1.9840                 1.2768
 Frc consts  --      2.0170                 2.5569                 1.6793
 IR Inten    --     11.8431                22.3343                16.6063

                     73                     74                     75
                      A                      A                      A
 Frequencies --   1502.3619              1513.6116              1519.1335
 Red. masses --      1.2849                 1.0985                 1.1935
 Frc consts  --      1.7087                 1.4827                 1.6227
 IR Inten    --      4.2187                 4.0281                14.4109

                     76                     77                     78
                      A                      A                      A
 Frequencies --   1527.1689              1530.1613              1533.7811
 Red. masses --      1.1714                 2.1580                 2.8194
 Frc consts  --      1.6096                 2.9769                 3.9078
 IR Inten    --      1.8366                13.2342                 5.9802

                     79                     80                     81
                      A                      A                      A
 Frequencies --   1541.0793              1550.8609              1634.9876
 Red. masses --      1.2664                 2.9317                 5.1137
 Frc consts  --      1.7720                 4.1544                 8.0541
 IR Inten    --      9.3454                53.5775                15.3210

                     82                     83                     84
                      A                      A                      A
 Frequencies --   1653.5125              2934.6699              2947.7320
 Red. masses --      5.4650                 1.0736                 1.0741
 Frc consts  --      8.8036                 5.4475                 5.4986
 IR Inten    --      2.4709                75.4041                95.0799

                     85                     86                     87
                      A                      A                      A
 Frequencies --   3035.7766              3049.0868              3065.7312
 Red. masses --      1.0702                 1.0613                 1.0661
 Frc consts  --      5.8108                 5.8134                 5.9035
 IR Inten    --     26.6324                23.4934                29.1136

                     88                     89                     90
                      A                      A                      A
 Frequencies --   3078.4233              3084.6568              3093.3344
 Red. masses --      1.0842                 1.0884                 1.1023
 Frc consts  --      6.0535                 6.1019                 6.2144
 IR Inten    --     12.9883                46.4768                56.1152

                     91                     92                     93
                      A                      A                      A
 Frequencies --   3108.6292              3114.3581              3138.4698
 Red. masses --      1.0882                 1.0960                 1.0984
 Frc consts  --      6.1959                 6.2632                 6.3745
 IR Inten    --     20.4453                17.7438                15.8399

                     94                     95                     96
                      A                      A                      A
 Frequencies --   3162.8499              3178.4183              3200.0602
 Red. masses --      1.0895                 1.0895                 1.0894
 Frc consts  --      6.4213                 6.4846                 6.5730
 IR Inten    --     26.4197                17.9027                 7.5631

                     97                     98                     99
                      A                      A                      A
 Frequencies --   3216.4963              3267.6036              3511.2119
 Red. masses --      1.0966                 1.0978                 1.0747
 Frc consts  --      6.6844                 6.9061                 7.8067
 IR Inten    --     14.1803                 1.1991                 0.5765

 - Thermochemistry -
 -------------------
 Temperature   298.150 Kelvin.  Pressure   1.00000 Atm.
 Atom     1 has atomic number  6 and mass  12.00000

 Molecular mass:   243.14840 amu.
 Principal axes and moments of inertia in atomic units:
                           1         2         3
     Eigenvalues --  2958.332404869.635116667.56652
           X            0.99845   0.05537   0.00532
           Y           -0.05535   0.99846  -0.00304
           Z           -0.00548   0.00274   0.99998
 This molecule is an asymmetric top.
 Rotational symmetry number  1.
 Warning -- assumption of classical behavior for rotation
           may cause significant error
 Rotational temperatures (Kelvin)      0.02928     0.01779     0.01299
 Rotational constants (GHZ):           0.61005     0.37061     0.27067
 Zero-point vibrational energy     784675.1 (Joules/Mol)
                                  187.54185 (Kcal/Mol)
 Warning -- explicit consideration of  21 degrees of freedom as
           vibrations may cause significant error
 Vibrational temperatures:     35.77    59.77    68.90    84.56   145.79
          (Kelvin)            233.49   262.76   308.45   357.38   369.48
                              411.31   464.42   530.56   571.26   594.48
                              607.68   662.29   701.03   737.73   836.86
                              870.98   934.14   978.70  1022.25  1051.01
                             1087.21  1108.38  1150.21  1162.19  1165.37
                             1199.21  1218.48  1270.49  1307.57  1342.73
                             1349.43  1377.71  1397.87  1424.70  1437.10
                             1454.50  1502.74  1504.55  1540.76  1549.01
                             1550.35  1588.51  1632.73  1662.32  1665.19
                             1724.41  1725.73  1747.07  1753.58  1776.16
                             1803.52  1824.35  1883.36  1889.58  1907.69
                             1926.46  1948.02  1972.45  1976.78  1992.72
                             2011.25  2027.31  2048.57  2063.41  2083.43
                             2127.94  2149.72  2161.56  2177.75  2185.69
                             2197.26  2201.56  2206.77  2217.27  2231.34
                             2352.38  2379.04  4222.34  4241.13  4367.81
                             4386.96  4410.90  4429.16  4438.13  4450.62
                             4472.62  4480.87  4515.56  4550.64  4573.03
                             4604.17  4627.82  4701.35  5051.85

 Zero-point correction=                           0.298867 (Hartree/Particle)
 Thermal correction to Energy=                    0.313549
 Thermal correction to Enthalpy=                  0.314493
 Thermal correction to Gibbs Free Energy=         0.255396
 Sum of electronic and zero-point Energies=           -779.122131
 Sum of electronic and thermal Energies=              -779.107449
 Sum of electronic and thermal Enthalpies=            -779.106505
 Sum of electronic and thermal Free Energies=         -779.165602

                     E (Thermal)             CV                S
                      KCal/Mol        Cal/Mol-Kelvin    Cal/Mol-Kelvin
 Total                  196.755             58.029            124.381
 Electronic               0.000              0.000              0.000
 Translational            0.889              2.981             42.366
 Rotational               0.889              2.981             32.929
 Vibrational            194.978             52.067             49.085
 Vibration     1          0.593              1.985              6.202
 Vibration     2          0.594              1.981              5.184
 Vibration     3          0.595              1.978              4.903
 Vibration     4          0.596              1.974              4.498
 Vibration     5          0.604              1.948              3.429
 Vibration     6          0.622              1.889              2.523
 Vibration     7          0.630              1.863              2.301
 Vibration     8          0.644              1.819              2.006
 Vibration     9          0.662              1.765              1.742
 Vibration    10          0.666              1.751              1.683
 Vibration    11          0.684              1.700              1.498
 Vibration    12          0.708              1.630              1.296
 Vibration    13          0.741              1.536              1.085
 Vibration    14          0.764              1.476              0.974
 Vibration    15          0.777              1.442              0.915
 Vibration    16          0.785              1.422              0.884
 Vibration    17          0.818              1.338              0.765
 Vibration    18          0.843              1.278              0.691
 Vibration    19          0.868              1.222              0.627
 Vibration    20          0.938              1.071              0.482
 Vibration    21          0.964              1.020              0.441

 Optimization completed.
    -- Stationary point found.
 Normal termination of Gaussian 16 at Fri Dec 11 21:36:22 2020.

 ----------------------------------------------------------------------
 # B3LYP/6-311++G(d,p) empiricaldispersion=gd3bj scf=xqc pop=npa geom=c
 heck
 ----------------------------------------------------------------------

 --------------------------------------
 CID_82478167_JID_8499_Energie_neutraal
 --------------------------------------
 Structure from the checkpoint file:  "JID_8499.chk"
 Charge =  0 Multiplicity = 1

 SCF Done:  E(RB3LYP) =  -779.625392287     A.U. after   16 cycles
 Normal termination of Gaussian 16 at Fri Dec 11 21:44:27 2020.

 ----------------------------------------------------------------------
 # B3LYP/6-311++G(d,p) empiricaldispersion=gd3bj scf=xqc pop=npa geom=c
 heck
 ----------------------------------------------------------------------

 ------------------------------------
 CID_82478167_JID_8499_Energie_kation
 ------------------------------------
 Structure from the checkpoint file:  "JID_8499.chk"
 Charge =  1 Multiplicity = 2

 SCF Done:  E(UB3LYP) =  -779.316316281     A.U. after   33 cycles
 SCF Done:  E(UB3LYP) =  -779.316316281     a.u. after    1 cycles
 Normal termination of Gaussian 16 at Fri Dec 11 22:08:34 2020.
 Gaussian 16:  ES64L-G16RevA.03 25-Dec-2016

 ----------------------------------------------------------------------
 # B3LYP/6-311++G(d,p) empiricaldispersion=gd3bj scf=xqc pop=npa geom=c
 heck
 ----------------------------------------------------------------------

 -----------------------------------
 CID_82478167_JID_8499_Energie_anion
 -----------------------------------
 Structure from the checkpoint file:  "JID_8499.chk"
 Charge = -1 Multiplicity = 2

                         Standard orientation:
 ---------------------------------------------------------------------
 Center     Atomic      Atomic             Coordinates (Angstroms)
 Number     Number       Type             X           Y           Z
 ---------------------------------------------------------------------
      1          6           0       -2.985054   -1.434351   -0.679191
      2          6           0       -3.102241   -0.599832    0.598555
      3          6           0       -1.720378   -0.121325    1.112646
      4          6           0       -0.752938   -1.314745    1.189970
      5          7           0       -0.714435   -2.075603   -0.060985
      6          6           0       -2.023361   -2.602120   -0.452640
      7          6           0       -1.265455    1.129058    0.397996
      8          7           0       -1.741808    2.301322    0.776463
      9          7           0       -1.231943    3.275714   -0.057542
     10          6           0       -0.458290    2.664152   -0.916356
     11          7           0       -0.439987    1.308555   -0.696067
     12          6           0        0.446301    0.385541   -1.394340
     13          6           0        1.720756    0.094142   -0.630990
     14          6           0        2.390365   -1.114996   -0.850278
     15          7           0        3.518492   -1.475448   -0.231227
     16          6           0        4.029706   -0.614042    0.658006
     17          6           0        3.444196    0.615670    0.958941
     18          6           0        2.268164    0.975041    0.303289
     19          1           0       -3.969497   -1.813256   -0.977294
     20          1           0       -2.612428   -0.813699   -1.504374
     21          1           0       -3.753528    0.267315    0.455946
     22          1           0       -3.554707   -1.220844    1.384222
     23          1           0       -1.869590    0.230325    2.138885
     24          1           0        0.261231   -0.977463    1.422547
     25          1           0       -1.094123   -1.940663    2.035579
     26          1           0       -0.040201   -2.831671    0.028718
     27          1           0       -2.452171   -3.275103    0.315384
     28          1           0       -1.897637   -3.188554   -1.369407
     29          1           0        0.109567    3.128955   -1.710940
     30          1           0       -0.083893   -0.553893   -1.556858
     31          1           0        0.673376    0.842092   -2.364232
     32          1           0        1.982802   -1.833549   -1.560437
     33          1           0        4.945699   -0.926719    1.155455
     34          1           0        3.896428    1.274050    1.694128
     35          1           0        1.775822    1.917738    0.524528
 ---------------------------------------------------------------------

 SCF Done:  E(UB3LYP) =  -779.621086158     A.U. after   33 cycles
 SCF Done:  E(UB3LYP) =  -779.621086159     a.u. after    1 cycles

 The electronic state is 2-A.
 Alpha  occ. eigenvalues --  -14.28489 -14.22584 -14.21938 -14.20419 -14.18100
 Alpha  occ. eigenvalues --  -10.13917 -10.13387 -10.12147 -10.10072 -10.09619
 Alpha  occ. eigenvalues --  -10.09327 -10.08800 -10.08575 -10.07617 -10.07526
 Alpha  occ. eigenvalues --  -10.07062 -10.06665 -10.06265  -0.96362  -0.83314
 Alpha  occ. eigenvalues --   -0.82255  -0.81916  -0.73537  -0.70153  -0.68716
 Alpha  occ. eigenvalues --   -0.66448  -0.66059  -0.61040  -0.54946  -0.54646
 Alpha  occ. eigenvalues --   -0.53032  -0.52049  -0.51062  -0.49152  -0.44538
 Alpha  occ. eigenvalues --   -0.42399  -0.41947  -0.41242  -0.38699  -0.36977
 Alpha  occ. eigenvalues --   -0.36615  -0.36324  -0.35609  -0.34797  -0.33989
 Alpha  occ. eigenvalues --   -0.32412  -0.31683  -0.31279  -0.30630  -0.29452
 Alpha  occ. eigenvalues --   -0.28722  -0.28039  -0.26920  -0.25586  -0.24590
 Alpha  occ. eigenvalues --   -0.23171  -0.22384  -0.21473  -0.19531  -0.17973
 Alpha  occ. eigenvalues --   -0.16437  -0.16044  -0.14932  -0.14263  -0.13476
 Alpha  occ. eigenvalues --    0.04278
 Alpha virt. eigenvalues --    0.05898   0.07190   0.07547   0.07907   0.08266
 Alpha virt. eigenvalues --    0.08962   0.09450   0.09875   0.10374   0.10506
 Alpha virt. eigenvalues --    0.10813   0.11186   0.11681   0.12358   0.12644

  Beta  occ. eigenvalues --  -14.28486 -14.22582 -14.21935 -14.20418 -14.17768
  Beta  occ. eigenvalues --  -10.13915 -10.13386 -10.12146 -10.10063 -10.09619
  Beta  occ. eigenvalues --  -10.09290 -10.08765 -10.08514 -10.07611 -10.07516
  Beta  occ. eigenvalues --  -10.07046 -10.06646 -10.06001  -0.96356  -0.83244
  Beta  occ. eigenvalues --   -0.81926  -0.81839  -0.73528  -0.69849  -0.68691
  Beta  occ. eigenvalues --   -0.66219  -0.66018  -0.60902  -0.54906  -0.54620
  Beta  occ. eigenvalues --   -0.52993  -0.51650  -0.50985  -0.49067  -0.44476
  Beta  occ. eigenvalues --   -0.42347  -0.41875  -0.41175  -0.38600  -0.36907
  Beta  occ. eigenvalues --   -0.36558  -0.36289  -0.35548  -0.34710  -0.33918
  Beta  occ. eigenvalues --   -0.32360  -0.31654  -0.31224  -0.30592  -0.29408
  Beta  occ. eigenvalues --   -0.28538  -0.27188  -0.26889  -0.25484  -0.24556
  Beta  occ. eigenvalues --   -0.23132  -0.22354  -0.21459  -0.19469  -0.16777
  Beta  occ. eigenvalues --   -0.16410  -0.15804  -0.14370  -0.13923  -0.13415
  Beta virt. eigenvalues --    0.06698   0.07306   0.07675   0.08237   0.08572
  Beta virt. eigenvalues --    0.08687   0.09150   0.09706   0.10054   0.10485
  Beta virt. eigenvalues --    0.10590   0.10964   0.11391   0.11953   0.12492

 Mulliken charges and spin densities:
               1          2
     1  C   -0.683902   0.387739
     2  C    0.231605  -0.683702
     3  C   -0.282456   0.848954
     4  C   -0.310336  -0.416740
     5  N   -0.255344   0.116283
     6  C    1.351445  -1.700796
     7  C   -0.034300  -0.777079
     8  N    0.007578   0.040315
     9  N   -0.101420  -0.012494
    10  C    0.100893  -0.000118
    11  N    0.083467   0.059045
    12  C   -0.970111  -0.352391
    13  C    1.263761   0.227869
    14  C   -0.687960  -0.103685
    15  N   -0.078181   0.188830
    16  C   -0.271474   0.011071
    17  C   -0.445634   0.062271
    18  C   -0.136155   0.241071
    19  H   -0.544709   0.738616
    20  H    0.106933   0.017103
    21  H    0.182120   0.001177
    22  H   -0.136231   0.287405
    23  H    0.228883   0.033800
    24  H    0.230700  -0.032567
    25  H   -0.278704   0.444398
    26  H    0.171374   0.118541
    27  H   -0.247686   0.384710
    28  H   -0.582934   0.758161
    29  H    0.171146  -0.000202
    30  H    0.452264  -0.210237
    31  H    0.142013   0.047499
    32  H   -0.105465   0.263600
    33  H    0.121557   0.016347
    34  H    0.128417   0.020907
    35  H    0.178848  -0.025703
 Sum of Mulliken charges =  -1.00000   1.00000

 Dipole moment (field-independent basis, Debye):
    X=              2.5779    Y=              3.8961    Z=             -0.4662  Tot=              4.6949
 Quadrupole moment (field-independent basis, Debye-Ang):
   XX=           -174.6136   YY=           -171.6525   ZZ=           -127.7330
   XY=              0.0307   XZ=              3.6906   YZ=            -10.8166

 Summary of Natural Population Analysis:

                                       Natural Population
                Natural  -----------------------------------------------
    Atom  No    Charge         Core      Valence    Rydberg      Total
 -----------------------------------------------------------------------
      C    1   -0.19676      0.99962     2.18821    0.00893     3.19676
      C    2   -0.18337      0.99961     2.17481    0.00896     3.18337
      C    3   -0.13706      0.99954     2.12523    0.01229     3.13706
      C    4   -0.08610      0.99960     2.07589    0.01061     3.08610
      N    5   -0.35071      0.99974     2.83804    0.01292     3.85071
      C    6   -0.08518      0.99962     2.07360    0.01196     3.08518
      C    7    0.19439      0.99956     1.78489    0.02116     2.80561
      N    8   -0.17136      0.99969     2.65920    0.01248     3.67136
      N    9   -0.16197      0.99972     2.64878    0.01347     3.66197
      C   10    0.09144      0.99964     1.89400    0.01492     2.90856
      N   11   -0.21037      0.99961     2.70003    0.01074     3.71037
      C   12   -0.09840      0.99956     2.08775    0.01109     3.09840
      C   13   -0.04721      0.99949     2.03887    0.00885     3.04721
      C   14    0.03253      0.99953     1.95240    0.01554     2.96747
      N   15   -0.19525      0.99971     2.68397    0.01157     3.69525
      C   16    0.02241      0.99960     1.96306    0.01493     2.97759
      C   17   -0.12122      0.99957     2.11346    0.00819     3.12122
      C   18   -0.04776      0.99951     2.04054    0.00771     3.04776
      H   19    0.10294      0.00000     0.39583    0.00123     0.39706
      H   20    0.09441      0.00000     0.40405    0.00154     0.40559
      H   21    0.10526      0.00000     0.39358    0.00116     0.39474
      H   22    0.09743      0.00000     0.40117    0.00140     0.40257
      H   23    0.11625      0.00000     0.38187    0.00188     0.38375
      H   24    0.10602      0.00000     0.39208    0.00190     0.39398
      H   25    0.08414      0.00000     0.41458    0.00128     0.41586
      H   26    0.18050      0.00000     0.31697    0.00253     0.31950
      H   27    0.08015      0.00000     0.41700    0.00286     0.41985
      H   28    0.09796      0.00000     0.40013    0.00191     0.40204
      H   29    0.09569      0.00000     0.40335    0.00097     0.40431
      H   30    0.12718      0.00000     0.37106    0.00177     0.37282
      H   31    0.10009      0.00000     0.39895    0.00096     0.39991
      H   32    0.08551      0.00000     0.41220    0.00229     0.41449
      H   33    0.08351      0.00000     0.41544    0.00105     0.41649
      H   34    0.09596      0.00000     0.40269    0.00135     0.40404
      H   35    0.09896      0.00000     0.39993    0.00111     0.40104
 =======================================================================
   * Total *   -0.00000     17.99293    46.76359    0.24348    65.00000

 Normal termination of Gaussian 16 at Fri Dec 11 22:32:34 2020.
