 Gaussian 16, Revision A.03,

 -----------------------------------------------------------
 # opt freq B3LYP/6-31G(d) empiricaldispersion=gd3bj scf=xqc
 -----------------------------------------------------------

 ------------------------------
 CID_77048331_JID_6267_neutraal
 ------------------------------
 Symbolic Z-matrix:
 Charge =  0 Multiplicity = 1

 SCF Done:  E(RB3LYP) =  -747.703344823     A.U. after   14 cycles
 SCF Done:  E(RB3LYP) =  -747.707565424     A.U. after   12 cycles
 SCF Done:  E(RB3LYP) =  -747.706966962     A.U. after   12 cycles
 SCF Done:  E(RB3LYP) =  -747.705376471     A.U. after   12 cycles
 SCF Done:  E(RB3LYP) =  -747.703836013     A.U. after   12 cycles
 SCF Done:  E(RB3LYP) =  -747.707664631     A.U. after   10 cycles
 SCF Done:  E(RB3LYP) =  -747.708596510     A.U. after   11 cycles
 SCF Done:  E(RB3LYP) =  -747.708645031     A.U. after   10 cycles
 SCF Done:  E(RB3LYP) =  -747.708679061     A.U. after   10 cycles
 SCF Done:  E(RB3LYP) =  -747.708689529     A.U. after    9 cycles
 SCF Done:  E(RB3LYP) =  -747.709199313     A.U. after    9 cycles
 SCF Done:  E(RB3LYP) =  -747.709199997     A.U. after    9 cycles
 SCF Done:  E(RB3LYP) =  -747.709200022     A.U. after    6 cycles
 SCF Done:  E(RB3LYP) =  -747.709200066     A.U. after    7 cycles
 SCF Done:  E(RB3LYP) =  -747.709200082     A.U. after    7 cycles
 Optimization completed.
    -- Stationary point found.
 Normal termination of Gaussian 16 at Thu Dec 10 22:21:15 2020.

 --------------------------------------------------------------------
 #N Geom=AllCheck Guess=TCheck SCRF=Check GenChk RB3LYP/6-31G(d) Freq
 --------------------------------------------------------------------

 Structure from the checkpoint file:  "JID_6267.chk"
 ------------------------------
 CID_77048331_JID_6267_neutraal
 ------------------------------
 Charge =  0 Multiplicity = 1

 SCF Done:  E(RB3LYP) =  -747.709200082     A.U. after    1 cycles

  Exact polarizability: 176.505  -8.495 132.828  -5.682   1.109 122.799
 Approx polarizability: 208.117 -19.490 186.547 -12.232   2.570 197.385

                      1                      2                      3
                      A                      A                      A
 Frequencies --     16.1901                25.6801                52.3188
 Red. masses --      4.1458                 4.5201                 2.7494
 Frc consts  --      0.0006                 0.0018                 0.0044
 IR Inten    --      0.0482                 0.0909                 0.1956

                      4                      5                      6
                      A                      A                      A
 Frequencies --     68.2728                82.3293               102.5381
 Red. masses --      3.4283                 2.8128                 2.7510
 Frc consts  --      0.0094                 0.0112                 0.0170
 IR Inten    --      0.5649                 0.0520                 4.4619

                      7                      8                      9
                      A                      A                      A
 Frequencies --    113.9789               158.6691               165.1915
 Red. masses --      2.4497                 2.2385                 2.7446
 Frc consts  --      0.0188                 0.0332                 0.0441
 IR Inten    --      0.7628                 0.6202                 0.3562

                     10                     11                     12
                      A                      A                      A
 Frequencies --    182.1678               211.3018               217.1258
 Red. masses --      2.1334                 4.9111                 2.9358
 Frc consts  --      0.0417                 0.1292                 0.0815
 IR Inten    --      1.3319                 0.5067                 5.3936

                     13                     14                     15
                      A                      A                      A
 Frequencies --    243.2247               257.1215               262.6334
 Red. masses --      1.3581                 1.7072                 2.6320
 Frc consts  --      0.0473                 0.0665                 0.1070
 IR Inten    --      4.4604                 1.6785                17.0473

                     16                     17                     18
                      A                      A                      A
 Frequencies --    303.5797               329.3591               340.1252
 Red. masses --      2.7415                 1.4710                 1.9253
 Frc consts  --      0.1489                 0.0940                 0.1312
 IR Inten    --      3.0204                88.3704                19.5170

                     19                     20                     21
                      A                      A                      A
 Frequencies --    367.2301               373.8833               391.1504
 Red. masses --      2.5898                 2.5337                 3.2293
 Frc consts  --      0.2058                 0.2087                 0.2911
 IR Inten    --     12.1272                 7.3460                 4.5728

                     22                     23                     24
                      A                      A                      A
 Frequencies --    426.4980               444.8527               482.3105
 Red. masses --      3.1857                 2.5920                 2.2933
 Frc consts  --      0.3414                 0.3022                 0.3143
 IR Inten    --      9.9410                 0.2317                 1.2047

                     25                     26                     27
                      A                      A                      A
 Frequencies --    500.1803               580.9635               600.2515
 Red. masses --      1.7009                 4.0614                 1.6576
 Frc consts  --      0.2507                 0.8077                 0.3519
 IR Inten    --     24.7403                10.5831                42.7179

                     28                     29                     30
                      A                      A                      A
 Frequencies --    633.3934               661.9210               673.1544
 Red. masses --      2.9107                 2.4164                 3.0954
 Frc consts  --      0.6880                 0.6238                 0.8264
 IR Inten    --      2.6106                18.2431                 2.6170

                     31                     32                     33
                      A                      A                      A
 Frequencies --    766.8467               798.3099               816.0592
 Red. masses --      1.4901                 2.5388                 1.6336
 Frc consts  --      0.5163                 0.9533                 0.6410
 IR Inten    --    173.4908                14.7890                13.1470

                     34                     35                     36
                      A                      A                      A
 Frequencies --    840.5862               866.5697               886.6747
 Red. masses --      2.0084                 2.8510                 2.0259
 Frc consts  --      0.8361                 1.2614                 0.9384
 IR Inten    --      7.1487                 4.5690                 9.6016

                     37                     38                     39
                      A                      A                      A
 Frequencies --    921.9064               950.7802               967.3566
 Red. masses --      2.0838                 1.4461                 2.2788
 Frc consts  --      1.0435                 0.7702                 1.2564
 IR Inten    --     14.7105                 2.5910                 4.6875

                     40                     41                     42
                      A                      A                      A
 Frequencies --    969.2905               984.5969               999.1156
 Red. masses --      5.3159                 2.5269                 2.1792
 Frc consts  --      2.9426                 1.4433                 1.2817
 IR Inten    --    129.5737                 8.8840                 6.6343

                     43                     44                     45
                      A                      A                      A
 Frequencies --   1008.3429              1047.4380              1055.9670
 Red. masses --      1.8487                 2.3995                 1.6202
 Frc consts  --      1.1075                 1.5511                 1.0645
 IR Inten    --      4.7366                 6.3917                 7.2485

                     46                     47                     48
                      A                      A                      A
 Frequencies --   1077.8677              1104.8830              1128.8284
 Red. masses --      2.1935                 1.9655                 2.0852
 Frc consts  --      1.5015                 1.4137                 1.5655
 IR Inten    --      3.9321                 6.6078                 2.7591

                     49                     50                     51
                      A                      A                      A
 Frequencies --   1136.7725              1151.8668              1168.2269
 Red. masses --      1.9820                 1.9415                 3.0305
 Frc consts  --      1.5090                 1.5177                 2.4368
 IR Inten    --     16.2194                36.5613                56.8962

                     52                     53                     54
                      A                      A                      A
 Frequencies --   1173.4041              1192.5805              1197.2251
 Red. masses --      3.1913                 1.3316                 2.0456
 Frc consts  --      2.5889                 1.1158                 1.7275
 IR Inten    --    137.8868                14.4641                25.5436

                     55                     56                     57
                      A                      A                      A
 Frequencies --   1214.4611              1230.3563              1244.7581
 Red. masses --      1.6100                 1.4946                 1.4957
 Frc consts  --      1.3991                 1.3330                 1.3654
 IR Inten    --     39.1294                26.6952                30.8731

                     58                     59                     60
                      A                      A                      A
 Frequencies --   1258.7561              1268.1827              1273.0554
 Red. masses --      1.4314                 1.2775                 1.3441
 Frc consts  --      1.3363                 1.2106                 1.2835
 IR Inten    --     13.1446                 1.6014                 5.1536

                     61                     62                     63
                      A                      A                      A
 Frequencies --   1284.3796              1305.4180              1332.0245
 Red. masses --      1.1939                 1.3800                 1.3177
 Frc consts  --      1.1604                 1.3856                 1.3774
 IR Inten    --      5.5492                 7.0781                 2.6715

                     64                     65                     66
                      A                      A                      A
 Frequencies --   1337.3777              1349.2866              1352.8176
 Red. masses --      1.3277                 1.3239                 1.3429
 Frc consts  --      1.3991                 1.4201                 1.4480
 IR Inten    --     32.5319                21.4931                29.6970

                     67                     68                     69
                      A                      A                      A
 Frequencies --   1368.9070              1379.4841              1391.3815
 Red. masses --      1.3164                 1.3724                 1.6419
 Frc consts  --      1.4534                 1.5387                 1.8728
 IR Inten    --      8.1946                 6.0768                 1.9806

                     70                     71                     72
                      A                      A                      A
 Frequencies --   1409.7944              1416.5841              1428.8037
 Red. masses --      1.4100                 1.4265                 1.5001
 Frc consts  --      1.6511                 1.6866                 1.8043
 IR Inten    --     33.4742                 9.8129                 3.0650

                     73                     74                     75
                      A                      A                      A
 Frequencies --   1442.3194              1443.3512              1451.4691
 Red. masses --      1.2901                 1.4241                 1.9340
 Frc consts  --      1.5813                 1.7480                 2.4006
 IR Inten    --      3.1860                33.9288                 7.1843

                     76                     77                     78
                      A                      A                      A
 Frequencies --   1504.1797              1506.9082              1515.1567
 Red. masses --      1.1693                 1.0815                 1.0478
 Frc consts  --      1.5588                 1.4469                 1.4173
 IR Inten    --      2.4533                11.1967                 5.0574

                     79                     80                     81
                      A                      A                      A
 Frequencies --   1524.3263              1525.3738              1532.3745
 Red. masses --      1.0632                 1.0875                 1.0650
 Frc consts  --      1.4555                 1.4908                 1.4735
 IR Inten    --      1.1077                 4.1709                 7.5863

                     82                     83                     84
                      A                      A                      A
 Frequencies --   1532.5758              1539.8241              1545.7122
 Red. masses --      1.0633                 1.0851                 1.0547
 Frc consts  --      1.4714                 1.5158                 1.4847
 IR Inten    --     14.2409                 2.3367                 3.6428

                     85                     86                     87
                      A                      A                      A
 Frequencies --   1551.6219              1557.2364              1656.2998
 Red. masses --      1.0928                 1.0959                 1.1774
 Frc consts  --      1.5501                 1.5657                 1.9031
 IR Inten    --      1.2052                 1.1893                87.5726

                     88                     89                     90
                      A                      A                      A
 Frequencies --   1725.7116              2894.1789              2923.6245
 Red. masses --      6.7049                 1.0815                 1.0734
 Frc consts  --     11.7646                 5.3375                 5.4059
 IR Inten    --    114.1740                51.3143                38.6894

                     91                     92                     93
                      A                      A                      A
 Frequencies --   2936.4520              2957.8646              2985.9775
 Red. masses --      1.0728                 1.0560                 1.0995
 Frc consts  --      5.4504                 5.4433                 5.7761
 IR Inten    --     72.4260                52.7557                62.2734

                     94                     95                     96
                      A                      A                      A
 Frequencies --   2990.3112              3031.6263              3046.8175
 Red. masses --      1.0426                 1.1050                 1.0390
 Frc consts  --      5.4929                 5.9834                 5.6827
 IR Inten    --     90.0468                64.9253                27.7915

                     97                     98                     99
                      A                      A                      A
 Frequencies --   3062.8472              3075.6286              3079.8666
 Red. masses --      1.0638                 1.0721                 1.0713
 Frc consts  --      5.8800                 5.9750                 5.9873
 IR Inten    --     26.9876                 9.2724                 8.0423

                    100                    101                    102
                      A                      A                      A
 Frequencies --   3088.7620              3102.7471              3111.6107
 Red. masses --      1.0783                 1.0977                 1.0880
 Frc consts  --      6.0612                 6.2264                 6.2068
 IR Inten    --     28.8396                 2.7161                44.1015

                    103                    104                    105
                      A                      A                      A
 Frequencies --   3114.8758              3117.8251              3119.3188
 Red. masses --      1.0929                 1.0935                 1.0937
 Frc consts  --      6.2475                 6.2631                 6.2702
 IR Inten    --     27.1886                17.4086                24.1147

                    106                    107                    108
                      A                      A                      A
 Frequencies --   3131.8247              3133.6337              3137.9937
 Red. masses --      1.1011                 1.1028                 1.0965
 Frc consts  --      6.3629                 6.3803                 6.3614
 IR Inten    --     37.1385                24.1202                34.6888

                    109                    110                    111
                      A                      A                      A
 Frequencies --   3437.2709              3612.1822              3777.5016
 Red. masses --      1.0568                 1.0909                 1.0677
 Frc consts  --      7.3563                 8.3867                 8.9769
 IR Inten    --    225.8595                53.1421                55.7588

 - Thermochemistry -
 -------------------
 Temperature   298.150 Kelvin.  Pressure   1.00000 Atm.
 Atom     1 has atomic number  6 and mass  12.00000

 Molecular mass:   229.17903 amu.
 Principal axes and moments of inertia in atomic units:
                           1         2         3
     Eigenvalues --  1774.186598122.705509012.99175
           X            0.99994   0.01040   0.00359
           Y           -0.01038   0.99993  -0.00517
           Z           -0.00364   0.00513   0.99998
 This molecule is an asymmetric top.
 Rotational symmetry number  1.
 Warning -- assumption of classical behavior for rotation
           may cause significant error
 Rotational temperatures (Kelvin)      0.04882     0.01066     0.00961
 Rotational constants (GHZ):           1.01722     0.22218     0.20024
 Zero-point vibrational energy     919629.8 (Joules/Mol)
                                  219.79681 (Kcal/Mol)
 Warning -- explicit consideration of  27 degrees of freedom as
           vibrations may cause significant error
 Vibrational temperatures:     23.29    36.95    75.28    98.23   118.45
          (Kelvin)            147.53   163.99   228.29   237.67   262.10
                              304.02   312.40   349.95   369.94   377.87
                              436.78   473.87   489.36   528.36   537.93
                              562.78   613.64   640.04   693.94   719.65
                              835.88   863.63   911.31   952.36   968.52
                             1103.32  1148.59  1174.13  1209.42  1246.80
                             1275.73  1326.42  1367.96  1391.81  1394.59
                             1416.62  1437.50  1450.78  1507.03  1519.30
                             1550.81  1589.68  1624.13  1635.56  1657.28
                             1680.82  1688.27  1715.86  1722.54  1747.34
                             1770.21  1790.93  1811.07  1824.63  1831.64
                             1847.94  1878.21  1916.49  1924.19  1941.32
                             1946.40  1969.55  1984.77  2001.89  2028.38
                             2038.15  2055.73  2075.18  2076.66  2088.34
                             2164.18  2168.10  2179.97  2193.17  2194.67
                             2204.75  2205.03  2215.46  2223.94  2232.44
                             2240.52  2383.05  2482.91  4164.08  4206.44
                             4224.90  4255.71  4296.16  4302.39  4361.83
                             4383.69  4406.75  4425.14  4431.24  4444.04
                             4464.16  4476.91  4481.61  4485.85  4488.00
                             4506.00  4508.60  4514.87  4945.47  5197.12
                             5434.98

 Zero-point correction=                           0.350269 (Hartree/Particle)
 Thermal correction to Energy=                    0.368216
 Thermal correction to Enthalpy=                  0.369161
 Thermal correction to Gibbs Free Energy=         0.302804
 Sum of electronic and zero-point Energies=           -747.358932
 Sum of electronic and thermal Energies=              -747.340984
 Sum of electronic and thermal Enthalpies=            -747.340039
 Sum of electronic and thermal Free Energies=         -747.406396

                     E (Thermal)             CV                S
                      KCal/Mol        Cal/Mol-Kelvin    Cal/Mol-Kelvin
 Total                  231.059             66.823            139.659
 Electronic               0.000              0.000              0.000
 Translational            0.889              2.981             42.190
 Rotational               0.889              2.981             33.229
 Vibrational            229.282             60.862             64.240
 Vibration     1          0.593              1.986              7.054
 Vibration     2          0.593              1.985              6.138
 Vibration     3          0.596              1.977              4.728
 Vibration     4          0.598              1.969              4.203
 Vibration     5          0.600              1.961              3.835
 Vibration     6          0.605              1.947              3.405
 Vibration     7          0.607              1.938              3.200
 Vibration     8          0.621              1.893              2.566
 Vibration     9          0.624              1.885              2.489
 Vibration    10          0.630              1.864              2.306
 Vibration    11          0.643              1.824              2.032
 Vibration    12          0.646              1.815              1.983
 Vibration    13          0.659              1.774              1.779
 Vibration    14          0.667              1.751              1.681
 Vibration    15          0.670              1.741              1.644
 Vibration    16          0.695              1.667              1.397
 Vibration    17          0.712              1.617              1.263
 Vibration    18          0.720              1.595              1.212
 Vibration    19          0.740              1.540              1.091
 Vibration    20          0.745              1.526              1.064
 Vibration    21          0.759              1.489              0.996
 Vibration    22          0.788              1.413              0.870
 Vibration    23          0.804              1.372              0.811
 Vibration    24          0.839              1.289              0.704
 Vibration    25          0.856              1.250              0.658
 Vibration    26          0.938              1.072              0.484
 Vibration    27          0.958              1.031              0.449

 Optimization completed.
    -- Stationary point found.
 Normal termination of Gaussian 16 at Thu Dec 10 22:35:23 2020.

 ----------------------------------------------------------------------
 # B3LYP/6-311++G(d,p) empiricaldispersion=gd3bj scf=xqc pop=npa geom=c
 heck
 ----------------------------------------------------------------------

 --------------------------------------
 CID_77048331_JID_6267_Energie_neutraal
 --------------------------------------
 Structure from the checkpoint file:  "JID_6267.chk"
 Charge =  0 Multiplicity = 1

 SCF Done:  E(RB3LYP) =  -747.938449484     A.U. after   15 cycles
 Normal termination of Gaussian 16 at Thu Dec 10 22:42:13 2020.

 ----------------------------------------------------------------------
 # B3LYP/6-311++G(d,p) empiricaldispersion=gd3bj scf=xqc pop=npa geom=c
 heck
 ----------------------------------------------------------------------

 ------------------------------------
 CID_77048331_JID_6267_Energie_kation
 ------------------------------------
 Structure from the checkpoint file:  "JID_6267.chk"
 Charge =  1 Multiplicity = 2

 SCF Done:  E(UB3LYP) =  -747.657441609     A.U. after   24 cycles
 Normal termination of Gaussian 16 at Thu Dec 10 22:57:23 2020.
 Gaussian 16:  ES64L-G16RevA.03 25-Dec-2016

 ----------------------------------------------------------------------
 # B3LYP/6-311++G(d,p) empiricaldispersion=gd3bj scf=xqc pop=npa geom=c
 heck
 ----------------------------------------------------------------------

 -----------------------------------
 CID_77048331_JID_6267_Energie_anion
 -----------------------------------
 Structure from the checkpoint file:  "JID_6267.chk"
 Charge = -1 Multiplicity = 2

                         Standard orientation:
 ---------------------------------------------------------------------
 Center     Atomic      Atomic             Coordinates (Angstroms)
 Number     Number       Type             X           Y           Z
 ---------------------------------------------------------------------
      1          6           0        2.636445    2.891174   -0.307390
      2          6           0        1.478146    2.117380    0.328669
      3          6           0        1.046314    0.873259   -0.472761
      4          6           0        2.215548   -0.077018   -0.782240
      5          6           0        2.849358   -0.812802    0.379934
      6          7           0        3.898829   -1.552575    0.261572
      7          8           0        4.381023   -1.512366   -1.086327
      8          7           0        2.294939   -0.665119    1.641411
      9          7           0       -0.045785    0.162215    0.215607
     10          6           0       -0.553035   -1.023534   -0.488533
     11          6           0       -1.809211   -1.381395    0.303794
     12          6           0       -2.400471   -0.006109    0.695780
     13          6           0       -1.234237    0.988201    0.478982
     14          6           0       -3.605380    0.373753   -0.154794
     15          8           0       -4.659562   -0.523910    0.125896
     16          6           0       -5.808844   -0.271786   -0.651530
     17          1           0        3.577211    2.334573   -0.255235
     18          1           0        2.790297    3.842507    0.212900
     19          1           0        2.436447    3.118521   -1.362189
     20          1           0        1.751225    1.810609    1.343168
     21          1           0        0.617919    2.790539    0.414473
     22          1           0        0.675396    1.231222   -1.456120
     23          1           0        1.906242   -0.829454   -1.515878
     24          1           0        3.005310    0.480548   -1.292811
     25          1           0        5.165386   -2.075632   -1.017686
     26          1           0        1.283983   -0.530198    1.619733
     27          1           0        2.632633   -1.345676    2.312387
     28          1           0        0.189192   -1.825543   -0.490203
     29          1           0       -0.801130   -0.790673   -1.542542
     30          1           0       -2.521124   -1.986629   -0.263038
     31          1           0       -1.530736   -1.944939    1.199689
     32          1           0       -2.723105   -0.009812    1.741386
     33          1           0       -1.450054    1.645928   -0.386066
     34          1           0       -1.072059    1.635278    1.344238
     35          1           0       -3.916204    1.411693    0.059115
     36          1           0       -3.339024    0.331248   -1.226813
     37          1           0       -6.211066    0.737835   -0.468654
     38          1           0       -5.600399   -0.369084   -1.729396
     39          1           0       -6.561719   -1.011038   -0.366612
 ---------------------------------------------------------------------

 SCF Done:  E(UB3LYP) =  -747.925590208     A.U. after   33 cycles
 SCF Done:  E(UB3LYP) =  -747.925590208     a.u. after    1 cycles

 The electronic state is 2-A.
 Alpha  occ. eigenvalues --  -19.06675 -19.03065 -14.24545 -14.22587 -14.21993
 Alpha  occ. eigenvalues --  -10.15019 -10.11780 -10.11600 -10.11439 -10.10073
 Alpha  occ. eigenvalues --  -10.10030 -10.08909 -10.08183 -10.07326 -10.07278
 Alpha  occ. eigenvalues --  -10.07100  -0.97859  -0.94478  -0.85548  -0.83881
 Alpha  occ. eigenvalues --   -0.73090  -0.72666  -0.68348  -0.64885  -0.64363
 Alpha  occ. eigenvalues --   -0.60624  -0.56647  -0.54398  -0.50901  -0.49300
 Alpha  occ. eigenvalues --   -0.47697  -0.47207  -0.44189  -0.41669  -0.40746
 Alpha  occ. eigenvalues --   -0.39408  -0.38803  -0.37990  -0.37217  -0.37052
 Alpha  occ. eigenvalues --   -0.35445  -0.34646  -0.33703  -0.33278  -0.32179
 Alpha  occ. eigenvalues --   -0.31305  -0.30741  -0.29919  -0.28719  -0.28532
 Alpha  occ. eigenvalues --   -0.28130  -0.25772  -0.25027  -0.24593  -0.24326
 Alpha  occ. eigenvalues --   -0.23810  -0.23301  -0.22903  -0.22266  -0.19008
 Alpha  occ. eigenvalues --   -0.16776  -0.14078  -0.12802   0.04194
 Alpha virt. eigenvalues --    0.06016   0.06462   0.06657   0.07449   0.07889
 Alpha virt. eigenvalues --    0.08872   0.09054   0.09657   0.09817   0.10126
 Alpha virt. eigenvalues --    0.10607   0.11040   0.11435   0.11915   0.12523

  Beta  occ. eigenvalues --  -19.06670 -19.03055 -14.24539 -14.22581 -14.21983
  Beta  occ. eigenvalues --  -10.15019 -10.11752 -10.11591 -10.11397 -10.10056
  Beta  occ. eigenvalues --  -10.10013 -10.08900 -10.08177 -10.07315 -10.07270
  Beta  occ. eigenvalues --  -10.07079  -0.97851  -0.94459  -0.85531  -0.83867
  Beta  occ. eigenvalues --   -0.73075  -0.72646  -0.68321  -0.64860  -0.64333
  Beta  occ. eigenvalues --   -0.60575  -0.56608  -0.54318  -0.50851  -0.49269
  Beta  occ. eigenvalues --   -0.47674  -0.47165  -0.44161  -0.41636  -0.40718
  Beta  occ. eigenvalues --   -0.39365  -0.38767  -0.37966  -0.37205  -0.37027
  Beta  occ. eigenvalues --   -0.35414  -0.34616  -0.33682  -0.33255  -0.32153
  Beta  occ. eigenvalues --   -0.31275  -0.30713  -0.29883  -0.28687  -0.28516
  Beta  occ. eigenvalues --   -0.28100  -0.25744  -0.25008  -0.24569  -0.24288
  Beta  occ. eigenvalues --   -0.23782  -0.23273  -0.22887  -0.22211  -0.18985
  Beta  occ. eigenvalues --   -0.16750  -0.14022  -0.12789
  Beta virt. eigenvalues --    0.06044   0.06565   0.07002   0.07040   0.07976
  Beta virt. eigenvalues --    0.08488   0.09059   0.09422   0.09986   0.10288
  Beta virt. eigenvalues --    0.10474   0.10845   0.11249   0.11836   0.12087

 Mulliken charges and spin densities:
               1          2
     1  C    0.171447  -0.887962
     2  C   -0.571688   0.423508
     3  C   -0.075757  -0.122417
     4  C    0.614512  -0.659374
     5  C   -0.665816   0.290709
     6  N   -0.248185   0.012730
     7  O   -0.138180  -0.010876
     8  N   -0.374226   0.029205
     9  N    0.061889   0.032951
    10  C    0.642192  -0.829994
    11  C   -0.366767  -0.345540
    12  C   -0.252232   0.845552
    13  C   -0.101738  -0.567216
    14  C    0.397266  -1.174455
    15  O   -0.190833   0.070969
    16  C    0.999496  -1.263601
    17  H    0.103090   0.051819
    18  H   -0.252633   0.392945
    19  H   -0.091604   0.241216
    20  H    0.086077   0.068341
    21  H   -0.118988   0.295184
    22  H   -0.071557   0.266129
    23  H    0.118153   0.111067
    24  H    0.153162   0.065139
    25  H    0.203336   0.055606
    26  H    0.382641  -0.049880
    27  H    0.155117   0.112962
    28  H    0.135675   0.034984
    29  H   -0.218312   0.375175
    30  H    0.030378   0.162664
    31  H   -0.026530   0.162504
    32  H    0.029524   0.197082
    33  H   -0.192335   0.382490
    34  H   -0.270265   0.454814
    35  H   -0.163172   0.321916
    36  H    0.031404   0.135933
    37  H   -0.347288   0.475547
    38  H   -0.397823   0.529136
    39  H   -0.179431   0.313036
 Sum of Mulliken charges =  -1.00000   1.00000

 Dipole moment (field-independent basis, Debye):
    X=              6.6923    Y=             -3.3513    Z=              2.0180  Tot=              7.7518
 Quadrupole moment (field-independent basis, Debye-Ang):
   XX=           -205.0681   YY=           -148.4744   ZZ=           -135.1785
   XY=              0.1463   XZ=             -8.3810   YZ=             -0.9026

 Summary of Natural Population Analysis:

                                       Natural Population
                Natural  -----------------------------------------------
    Atom  No    Charge         Core      Valence    Rydberg      Total
 -----------------------------------------------------------------------
      C    1   -0.28693      0.99967     2.28202    0.00525     3.28693
      C    2   -0.20008      0.99961     2.19158    0.00888     3.20008
      C    3    0.00227      0.99959     1.98505    0.01310     2.99773
      C    4   -0.23328      0.99956     2.22386    0.00987     3.23328
      C    5    0.20980      0.99962     1.77344    0.01713     2.79020
      N    6   -0.14444      0.99959     2.63052    0.01433     3.64444
      O    7   -0.29755      0.99990     3.29166    0.00598     4.29755
      N    8   -0.40674      0.99970     2.89841    0.00863     3.90674
      N    9   -0.29764      0.99971     2.78549    0.01245     3.79764
      C   10   -0.08858      0.99962     2.07798    0.01098     3.08858
      C   11   -0.18981      0.99961     2.18218    0.00802     3.18981
      C   12   -0.12342      0.99959     2.11133    0.01250     3.12342
      C   13   -0.08198      0.99961     2.07085    0.01152     3.08198
      C   14   -0.00365      0.99955     1.99147    0.01263     3.00365
      O   15   -0.29927      0.99988     3.28969    0.00970     4.29927
      C   16   -0.09669      0.99962     2.08785    0.00921     3.09669
      H   17    0.09639      0.00000     0.40260    0.00101     0.40361
      H   18    0.10139      0.00000     0.39786    0.00075     0.39861
      H   19    0.09723      0.00000     0.40185    0.00091     0.40277
      H   20    0.10380      0.00000     0.39449    0.00171     0.39620
      H   21    0.10109      0.00000     0.39744    0.00147     0.39891
      H   22    0.08813      0.00000     0.40996    0.00192     0.41187
      H   23    0.11819      0.00000     0.38026    0.00156     0.38181
      H   24    0.12205      0.00000     0.37649    0.00145     0.37795
      H   25    0.23072      0.00000     0.26621    0.00307     0.26928
      H   26    0.20390      0.00000     0.29335    0.00275     0.29610
      H   27    0.18595      0.00000     0.31174    0.00231     0.31405
      H   28    0.09772      0.00000     0.40076    0.00152     0.40228
      H   29    0.08489      0.00000     0.41368    0.00143     0.41511
      H   30    0.10774      0.00000     0.39094    0.00133     0.39226
      H   31    0.09823      0.00000     0.40047    0.00130     0.40177
      H   32    0.10253      0.00000     0.39602    0.00145     0.39747
      H   33    0.08628      0.00000     0.41184    0.00188     0.41372
      H   34    0.10089      0.00000     0.39739    0.00172     0.39911
      H   35    0.08340      0.00000     0.41451    0.00209     0.41660
      H   36    0.07913      0.00000     0.41859    0.00228     0.42087
      H   37    0.07972      0.00000     0.41837    0.00192     0.42028
      H   38    0.07990      0.00000     0.41820    0.00190     0.42010
      H   39    0.08873      0.00000     0.41013    0.00114     0.41127
 =======================================================================
   * Total *   -0.00000     15.99443    46.79653    0.20905    63.00000

 Normal termination of Gaussian 16 at Thu Dec 10 23:16:56 2020.
