 Gaussian 16, Revision A.03,

 -----------------------------------------------------------
 # opt freq B3LYP/6-31G(d) empiricaldispersion=gd3bj scf=xqc
 -----------------------------------------------------------

 ------------------------------
 CID_11345876_JID_8883_neutraal
 ------------------------------
 Symbolic Z-matrix:
 Charge =  0 Multiplicity = 1

 SCF Done:  E(RB3LYP) =  -883.587412553     A.U. after   14 cycles
 SCF Done:  E(RB3LYP) =  -883.594291599     A.U. after   11 cycles
 SCF Done:  E(RB3LYP) =  -883.594864951     A.U. after   12 cycles
 SCF Done:  E(RB3LYP) =  -883.594995184     A.U. after   12 cycles
 SCF Done:  E(RB3LYP) =  -883.595213389     A.U. after   11 cycles
 SCF Done:  E(RB3LYP) =  -883.595259499     A.U. after   10 cycles
 SCF Done:  E(RB3LYP) =  -883.595267086     A.U. after   10 cycles
 SCF Done:  E(RB3LYP) =  -883.595274085     A.U. after    9 cycles
 SCF Done:  E(RB3LYP) =  -883.595279676     A.U. after   10 cycles
 SCF Done:  E(RB3LYP) =  -883.595282446     A.U. after   10 cycles
 SCF Done:  E(RB3LYP) =  -883.595285220     A.U. after    9 cycles
 SCF Done:  E(RB3LYP) =  -883.595286493     A.U. after    8 cycles
 SCF Done:  E(RB3LYP) =  -883.595286814     A.U. after    7 cycles
 SCF Done:  E(RB3LYP) =  -883.595286917     A.U. after    7 cycles
 Optimization completed.
    -- Stationary point found.
 Normal termination of Gaussian 16 at Fri Dec 11 22:26:07 2020.

 --------------------------------------------------------------------
 #N Geom=AllCheck Guess=TCheck SCRF=Check GenChk RB3LYP/6-31G(d) Freq
 --------------------------------------------------------------------

 Structure from the checkpoint file:  "JID_8883.chk"
 ------------------------------
 CID_11345876_JID_8883_neutraal
 ------------------------------
 Charge =  0 Multiplicity = 1

 SCF Done:  E(RB3LYP) =  -883.595286916     A.U. after    1 cycles

  Exact polarizability: 146.062  -0.604 169.029  -0.104   0.415 118.592
 Approx polarizability: 190.776   0.660 242.849   0.150   8.497 181.156

                      1                      2                      3
                      A                      A                      A
 Frequencies --     34.8503                42.1327                52.7682
 Red. masses --      5.7585                 6.9555                 3.6755
 Frc consts  --      0.0041                 0.0073                 0.0060
 IR Inten    --      1.2247                 0.8846                 0.4914

                      4                      5                      6
                      A                      A                      A
 Frequencies --     82.8541                90.6399               127.0179
 Red. masses --      5.0195                 3.3642                 3.7487
 Frc consts  --      0.0203                 0.0163                 0.0356
 IR Inten    --      2.6448                 3.1928                 1.3946

                      7                      8                      9
                      A                      A                      A
 Frequencies --    148.9083               164.7595               197.1364
 Red. masses --      3.7196                 3.0502                 3.2840
 Frc consts  --      0.0486                 0.0488                 0.0752
 IR Inten    --      0.2741                 0.4024                 1.3562

                     10                     11                     12
                      A                      A                      A
 Frequencies --    221.5664               228.0470               267.6350
 Red. masses --      3.2453                 1.0567                 1.0980
 Frc consts  --      0.0939                 0.0324                 0.0463
 IR Inten    --      3.1394                 0.0165                 0.0499

                     13                     14                     15
                      A                      A                      A
 Frequencies --    279.0216               290.8626               302.5936
 Red. masses --      2.6475                 3.1595                 2.1549
 Frc consts  --      0.1214                 0.1575                 0.1163
 IR Inten    --      0.5448                 1.7893                 1.3471

                     16                     17                     18
                      A                      A                      A
 Frequencies --    304.8577               320.1732               336.7171
 Red. masses --      3.2089                 1.2841                 2.1817
 Frc consts  --      0.1757                 0.0776                 0.1457
 IR Inten    --      3.1639                 0.6359                 0.3288

                     19                     20                     21
                      A                      A                      A
 Frequencies --    349.6680               378.4297               412.3504
 Red. masses --      2.8231                 2.9405                 2.8846
 Frc consts  --      0.2034                 0.2481                 0.2890
 IR Inten    --      0.9462                 3.2423                 1.0255

                     22                     23                     24
                      A                      A                      A
 Frequencies --    454.2529               465.9513               487.5935
 Red. masses --      3.6239                 3.1194                 3.4170
 Frc consts  --      0.4406                 0.3990                 0.4786
 IR Inten    --      1.1110                18.1984                 9.8926

                     25                     26                     27
                      A                      A                      A
 Frequencies --    523.0887               540.3506               562.4545
 Red. masses --      2.9481                 3.1041                 3.8007
 Frc consts  --      0.4753                 0.5340                 0.7084
 IR Inten    --     15.3525                21.8964                 9.7459

                     28                     29                     30
                      A                      A                      A
 Frequencies --    590.3845               630.3850               647.7077
 Red. masses --      3.4540                 2.5976                 3.5008
 Frc consts  --      0.7093                 0.6082                 0.8653
 IR Inten    --      3.2715                21.1780                 4.6073

                     31                     32                     33
                      A                      A                      A
 Frequencies --    656.5054               670.4021               714.5406
 Red. masses --      2.2690                 3.5714                 1.7132
 Frc consts  --      0.5762                 0.9457                 0.5154
 IR Inten    --      6.0286                 6.6826                97.8549

                     34                     35                     36
                      A                      A                      A
 Frequencies --    761.5671               774.5228               800.8314
 Red. masses --      1.6500                 5.9615                 3.3696
 Frc consts  --      0.5638                 2.1070                 1.2733
 IR Inten    --     15.0083                 6.8025                 4.8958

                     37                     38                     39
                      A                      A                      A
 Frequencies --    838.8629               871.1600               916.4302
 Red. masses --      3.1495                 2.4944                 1.8682
 Frc consts  --      1.3058                 1.1153                 0.9244
 IR Inten    --      2.9884                 0.9833                 2.8122

                     40                     41                     42
                      A                      A                      A
 Frequencies --    920.9471               934.7556               940.6099
 Red. masses --      1.8659                 2.1415                 1.5738
 Frc consts  --      0.9324                 1.1025                 0.8204
 IR Inten    --      5.6356                11.7167                 2.3089

                     43                     44                     45
                      A                      A                      A
 Frequencies --    958.5437               960.5888               986.5639
 Red. masses --      2.2110                 2.3040                 1.2965
 Frc consts  --      1.1969                 1.2526                 0.7435
 IR Inten    --     15.7036                15.0852                 1.9134

                     46                     47                     48
                      A                      A                      A
 Frequencies --    998.8739              1007.2128              1033.5676
 Red. masses --      1.7873                 3.0656                 1.3553
 Frc consts  --      1.0507                 1.8324                 0.8530
 IR Inten    --     10.2688                36.6536                 5.8564

                     49                     50                     51
                      A                      A                      A
 Frequencies --   1041.9011              1054.6997              1076.6914
 Red. masses --      3.0965                 3.6727                 3.1503
 Frc consts  --      1.9805                 2.4071                 2.1517
 IR Inten    --     69.9778                34.0454                13.3269

                     52                     53                     54
                      A                      A                      A
 Frequencies --   1079.9942              1104.9193              1135.2331
 Red. masses --      4.4963                 2.2522                 2.0641
 Frc consts  --      3.0900                 1.6200                 1.5673
 IR Inten    --     15.0087                89.2671               148.1377

                     55                     56                     57
                      A                      A                      A
 Frequencies --   1161.2041              1162.8478              1181.9497
 Red. masses --      1.9147                 1.7235                 2.7253
 Frc consts  --      1.5211                 1.3731                 2.2432
 IR Inten    --     52.5026                45.1296               116.6931

                     58                     59                     60
                      A                      A                      A
 Frequencies --   1185.8942              1204.4977              1227.3863
 Red. masses --      3.1662                 3.3088                 1.6063
 Frc consts  --      2.6235                 2.8283                 1.4257
 IR Inten    --    288.3175                39.1355                87.3154

                     61                     62                     63
                      A                      A                      A
 Frequencies --   1234.7079              1240.3638              1254.5708
 Red. masses --      2.1927                 1.1990                 1.9253
 Frc consts  --      1.9695                 1.0868                 1.7854
 IR Inten    --     21.1466                 0.5765                 1.0827

                     64                     65                     66
                      A                      A                      A
 Frequencies --   1263.4993              1285.9836              1298.8320
 Red. masses --      1.3268                 2.1009                 2.3217
 Frc consts  --      1.2480                 2.0470                 2.3076
 IR Inten    --      3.1284                21.4437                 4.2016

                     67                     68                     69
                      A                      A                      A
 Frequencies --   1309.7620              1336.7574              1380.7345
 Red. masses --      1.6906                 1.4841                 1.3347
 Frc consts  --      1.7087                 1.5625                 1.4992
 IR Inten    --     10.1427                 4.4090                 1.6796

                     70                     71                     72
                      A                      A                      A
 Frequencies --   1396.8071              1402.3800              1418.2613
 Red. masses --      1.5255                 1.3805                 1.2500
 Frc consts  --      1.7536                 1.5996                 1.4814
 IR Inten    --     13.7444                 4.2390                 5.2485

                     73                     74                     75
                      A                      A                      A
 Frequencies --   1426.0241              1427.6165              1435.7320
 Red. masses --      1.6471                 1.8222                 1.2745
 Frc consts  --      1.9734                 2.1881                 1.5479
 IR Inten    --     18.3566                40.8213                32.1905

                     76                     77                     78
                      A                      A                      A
 Frequencies --   1443.1761              1500.6604              1507.3452
 Red. masses --      1.3265                 1.1075                 1.0501
 Frc consts  --      1.6278                 1.4694                 1.4058
 IR Inten    --      0.7428                10.2068                 1.3016

                     79                     80                     81
                      A                      A                      A
 Frequencies --   1512.7661              1514.4446              1524.5082
 Red. masses --      1.0557                 1.0717                 1.0596
 Frc consts  --      1.4234                 1.4482                 1.4510
 IR Inten    --      1.1686                 5.2007                 1.2612

                     82                     83                     84
                      A                      A                      A
 Frequencies --   1526.7687              1537.9212              1539.9283
 Red. masses --      1.0668                 1.0563                 1.0910
 Frc consts  --      1.4651                 1.4720                 1.5244
 IR Inten    --     10.6114                 3.3122                 0.7824

                     85                     86                     87
                      A                      A                      A
 Frequencies --   1546.9990              1550.9344              1742.0599
 Red. masses --      1.0547                 1.0979                 7.7506
 Frc consts  --      1.4872                 1.5560                13.8584
 IR Inten    --      5.7030                 2.6799                 2.7240

                     88                     89                     90
                      A                      A                      A
 Frequencies --   1842.7507              3021.7312              3038.1183
 Red. masses --      9.2862                 1.0720                 1.0655
 Frc consts  --     18.5789                 5.7671                 5.7943
 IR Inten    --    206.2763                53.2143                61.3249

                     91                     92                     93
                      A                      A                      A
 Frequencies --   3051.7031              3055.1040              3061.2784
 Red. masses --      1.0708                 1.0353                 1.0368
 Frc consts  --      5.8755                 5.6933                 5.7244
 IR Inten    --     15.5219                12.9527                31.1691

                     94                     95                     96
                      A                      A                      A
 Frequencies --   3076.6004              3095.8558              3117.3117
 Red. masses --      1.0371                 1.0595                 1.0980
 Frc consts  --      5.7837                 5.9831                 6.2865
 IR Inten    --     15.3488                12.9603                42.1264

                     97                     98                     99
                      A                      A                      A
 Frequencies --   3123.1337              3130.1822              3133.5919
 Red. masses --      1.1021                 1.1019                 1.0976
 Frc consts  --      6.3338                 6.3608                 6.3501
 IR Inten    --      0.3328                41.6547                32.5667

                    100                    101                    102
                      A                      A                      A
 Frequencies --   3138.5706              3145.9066              3148.1079
 Red. masses --      1.0935                 1.1015                 1.1029
 Frc consts  --      6.3466                 6.4225                 6.4398
 IR Inten    --      3.6593                17.3479                16.8051

                    103                    104                    105
                      A                      A                      A
 Frequencies --   3148.6261              3154.8092              3166.5366
 Red. masses --      1.1019                 1.1008                 1.0859
 Frc consts  --      6.4365                 6.4549                 6.4151
 IR Inten    --      6.9845                26.4282                16.4003

                    106                    107                    108
                      A                      A                      A
 Frequencies --   3168.8843              3193.7562              3678.6327
 Red. masses --      1.1019                 1.0972                 1.0638
 Frc consts  --      6.5194                 6.5938                 8.4816
 IR Inten    --      8.7378                19.9140                42.6108

 - Thermochemistry -
 -------------------
 Temperature   298.150 Kelvin.  Pressure   1.00000 Atm.
 Atom     1 has atomic number  6 and mass  12.00000

 Molecular mass:   256.13107 amu.
 Principal axes and moments of inertia in atomic units:
                           1         2         3
     Eigenvalues --  3460.414104780.821006847.90470
           X            0.99997   0.00788  -0.00063
           Y           -0.00789   0.99993  -0.00834
           Z            0.00057   0.00835   0.99997
 This molecule is an asymmetric top.
 Rotational symmetry number  1.
 Warning -- assumption of classical behavior for rotation
           may cause significant error
 Rotational temperatures (Kelvin)      0.02503     0.01812     0.01265
 Rotational constants (GHZ):           0.52154     0.37750     0.26355
 Zero-point vibrational energy     850243.4 (Joules/Mol)
                                  203.21305 (Kcal/Mol)
 Warning -- explicit consideration of  28 degrees of freedom as
           vibrations may cause significant error
 Vibrational temperatures:     50.14    60.62    75.92   119.21   130.41
          (Kelvin)            182.75   214.25   237.05   283.64   318.78
                              328.11   385.07   401.45   418.49   435.36
                              438.62   460.66   484.46   503.09   544.48
                              593.28   653.57   670.40   701.54   752.61
                              777.44   809.25   849.43   906.98   931.91
                              944.56   964.56  1028.06  1095.73  1114.37
                             1152.22  1206.94  1253.40  1318.54  1325.04
                             1344.90  1353.33  1379.13  1382.07  1419.45
                             1437.16  1449.15  1487.07  1499.06  1517.48
                             1549.12  1553.87  1589.73  1633.35  1670.71
                             1673.08  1700.56  1706.24  1733.00  1765.94
                             1776.47  1784.61  1805.05  1817.89  1850.24
                             1868.73  1884.46  1923.30  1986.57  2009.69
                             2017.71  2040.56  2051.73  2054.02  2065.70
                             2076.41  2159.12  2168.73  2176.53  2178.95
                             2193.43  2196.68  2212.73  2215.61  2225.79
                             2231.45  2506.44  2651.31  4347.60  4371.17
                             4390.72  4395.61  4404.50  4426.54  4454.25
                             4485.12  4493.49  4503.63  4508.54  4515.70
                             4526.26  4529.43  4530.17  4539.07  4555.94
                             4559.32  4595.10  5292.73

 Zero-point correction=                           0.323841 (Hartree/Particle)
 Thermal correction to Energy=                    0.341648
 Thermal correction to Enthalpy=                  0.342592
 Thermal correction to Gibbs Free Energy=         0.278387
 Sum of electronic and zero-point Energies=           -883.271446
 Sum of electronic and thermal Energies=              -883.253639
 Sum of electronic and thermal Enthalpies=            -883.252695
 Sum of electronic and thermal Free Energies=         -883.316900

                     E (Thermal)             CV                S
                      KCal/Mol        Cal/Mol-Kelvin    Cal/Mol-Kelvin
 Total                  214.387             69.462            135.131
 Electronic               0.000              0.000              0.000
 Translational            0.889              2.981             42.522
 Rotational               0.889              2.981             33.093
 Vibrational            212.610             63.500             59.517
 Vibration     1          0.594              1.983              5.532
 Vibration     2          0.595              1.980              5.156
 Vibration     3          0.596              1.977              4.711
 Vibration     4          0.600              1.961              3.822
 Vibration     5          0.602              1.956              3.646
 Vibration     6          0.611              1.926              2.991
 Vibration     7          0.618              1.904              2.686
 Vibration     8          0.623              1.886              2.494
 Vibration     9          0.637              1.844              2.160
 Vibration    10          0.648              1.808              1.946
 Vibration    11          0.651              1.798              1.894
 Vibration    12          0.673              1.733              1.611
 Vibration    13          0.679              1.712              1.540
 Vibration    14          0.687              1.691              1.469
 Vibration    15          0.694              1.669              1.403
 Vibration    16          0.696              1.664              1.390
 Vibration    17          0.706              1.635              1.309
 Vibration    18          0.717              1.602              1.228
 Vibration    19          0.727              1.576              1.168
 Vibration    20          0.749              1.516              1.045
 Vibration    21          0.776              1.443              0.918
 Vibration    22          0.813              1.351              0.783
 Vibration    23          0.823              1.326              0.749
 Vibration    24          0.844              1.278              0.690
 Vibration    25          0.878              1.199              0.603
 Vibration    26          0.895              1.161              0.565
 Vibration    27          0.918              1.113              0.519
 Vibration    28          0.948              1.052              0.466

 Optimization completed.
    -- Stationary point found.
 Normal termination of Gaussian 16 at Fri Dec 11 22:46:08 2020.

 ----------------------------------------------------------------------
 # B3LYP/6-311++G(d,p) empiricaldispersion=gd3bj scf=xqc pop=npa geom=c
 heck
 ----------------------------------------------------------------------

 --------------------------------------
 CID_11345876_JID_8883_Energie_neutraal
 --------------------------------------
 Structure from the checkpoint file:  "JID_8883.chk"
 Charge =  0 Multiplicity = 1

 SCF Done:  E(RB3LYP) =  -883.855465356     A.U. after   16 cycles
 Normal termination of Gaussian 16 at Fri Dec 11 22:55:34 2020.

 ----------------------------------------------------------------------
 # B3LYP/6-311++G(d,p) empiricaldispersion=gd3bj scf=xqc pop=npa geom=c
 heck
 ----------------------------------------------------------------------

 ------------------------------------
 CID_11345876_JID_8883_Energie_kation
 ------------------------------------
 Structure from the checkpoint file:  "JID_8883.chk"
 Charge =  1 Multiplicity = 2

 SCF Done:  E(UB3LYP) =  -883.543940584     A.U. after   28 cycles
 Normal termination of Gaussian 16 at Fri Dec 11 23:18:57 2020.
 Gaussian 16:  ES64L-G16RevA.03 25-Dec-2016

 ----------------------------------------------------------------------
 # B3LYP/6-311++G(d,p) empiricaldispersion=gd3bj scf=xqc pop=npa geom=c
 heck
 ----------------------------------------------------------------------

 -----------------------------------
 CID_11345876_JID_8883_Energie_anion
 -----------------------------------
 Structure from the checkpoint file:  "JID_8883.chk"
 Charge = -1 Multiplicity = 2

                         Standard orientation:
 ---------------------------------------------------------------------
 Center     Atomic      Atomic             Coordinates (Angstroms)
 Number     Number       Type             X           Y           Z
 ---------------------------------------------------------------------
      1          6           0       -0.730428    0.249390   -1.444992
      2          6           0       -0.077948    0.006144   -0.076423
      3          6           0        1.211449   -0.838562   -0.242968
      4          6           0        2.305653   -0.013266   -0.861925
      5          6           0        2.331327    1.310537   -0.731666
      6          6           0        1.309962    2.076652    0.067767
      7          8           0        0.271776    1.229535    0.586906
      8          6           0        0.689832    3.209799   -0.769080
      9          6           0        1.986073    2.654441    1.320996
     10          8           0        1.694764   -1.342931    1.015207
     11          6           0        1.574624   -2.762159    1.006277
     12          6           0        1.595235   -3.089009   -0.482615
     13          8           0        0.905694   -1.977327   -1.043378
     14          6           0       -1.040336   -0.684562    0.900867
     15          6           0       -2.333463    0.099540    1.146342
     16          6           0       -3.400446   -0.168901    0.109642
     17          8           0       -3.579244   -1.217083   -0.472370
     18          8           0       -4.196408    0.912386   -0.091946
     19          1           0       -0.002378    0.612774   -2.173531
     20          1           0       -1.521095    0.999281   -1.348711
     21          1           0       -1.164274   -0.676458   -1.826866
     22          1           0        3.067855   -0.554197   -1.416733
     23          1           0        3.123494    1.903156   -1.185503
     24          1           0       -0.068058    3.727861   -0.173270
     25          1           0        1.455688    3.936320   -1.063629
     26          1           0        0.215934    2.826388   -1.675369
     27          1           0        2.401059    1.839598    1.919879
     28          1           0        2.789594    3.348690    1.052403
     29          1           0        1.244952    3.191679    1.922218
     30          1           0        0.630556   -3.078269    1.470492
     31          1           0        2.413846   -3.185227    1.565463
     32          1           0        1.053804   -3.998011   -0.754724
     33          1           0        2.624981   -3.148839   -0.864470
     34          1           0       -1.288232   -1.677826    0.516540
     35          1           0       -0.505993   -0.801376    1.845782
     36          1           0       -2.768695   -0.203977    2.108124
     37          1           0       -2.137008    1.171591    1.214810
     38          1           0       -4.867885    0.629928   -0.741592
 ---------------------------------------------------------------------

 SCF Done:  E(UB3LYP) =  -883.842201753     A.U. after   33 cycles
 SCF Done:  E(UB3LYP) =  -883.842201753     a.u. after    1 cycles

 The electronic state is 2-A.
 Alpha  occ. eigenvalues --  -19.07922 -19.04838 -19.04258 -19.02878 -19.02372
 Alpha  occ. eigenvalues --  -10.21492 -10.18840 -10.14734 -10.14130 -10.13543
 Alpha  occ. eigenvalues --  -10.13318 -10.09127 -10.08606 -10.08136 -10.07516
 Alpha  occ. eigenvalues --  -10.07202 -10.07084 -10.06230  -1.01892  -1.00853
 Alpha  occ. eigenvalues --   -0.94578  -0.92916  -0.91182  -0.73869  -0.72612
 Alpha  occ. eigenvalues --   -0.69278  -0.65350  -0.64412  -0.60340  -0.59109
 Alpha  occ. eigenvalues --   -0.55971  -0.54889  -0.52487  -0.50975  -0.48488
 Alpha  occ. eigenvalues --   -0.44235  -0.43289  -0.41400  -0.40568  -0.40112
 Alpha  occ. eigenvalues --   -0.39247  -0.39040  -0.38148  -0.36342  -0.35574
 Alpha  occ. eigenvalues --   -0.34643  -0.33909  -0.33487  -0.32414  -0.31805
 Alpha  occ. eigenvalues --   -0.31313  -0.30657  -0.30094  -0.29937  -0.29229
 Alpha  occ. eigenvalues --   -0.27760  -0.27377  -0.27011  -0.26388  -0.26007
 Alpha  occ. eigenvalues --   -0.25326  -0.24213  -0.23351  -0.22354  -0.20120
 Alpha  occ. eigenvalues --   -0.19322  -0.18387  -0.16758  -0.15673   0.04019
 Alpha virt. eigenvalues --    0.05468   0.05879   0.06939   0.07703   0.07945
 Alpha virt. eigenvalues --    0.08498   0.08625   0.09174   0.09278   0.09877
 Alpha virt. eigenvalues --    0.10605   0.11049   0.11807   0.11869   0.12043

  Beta  occ. eigenvalues --  -19.07881 -19.04836 -19.04256 -19.02872 -19.02362
  Beta  occ. eigenvalues --  -10.21486 -10.18840 -10.14733 -10.14129 -10.13516
  Beta  occ. eigenvalues --  -10.13297 -10.09109 -10.08591 -10.08126 -10.07511
  Beta  occ. eigenvalues --  -10.07184 -10.07069 -10.06220  -1.01837  -1.00846
  Beta  occ. eigenvalues --   -0.94567  -0.92873  -0.91175  -0.73855  -0.72591
  Beta  occ. eigenvalues --   -0.69252  -0.65318  -0.64386  -0.60308  -0.59072
  Beta  occ. eigenvalues --   -0.55939  -0.54838  -0.52439  -0.50947  -0.48437
  Beta  occ. eigenvalues --   -0.44212  -0.43268  -0.41372  -0.40536  -0.40084
  Beta  occ. eigenvalues --   -0.39214  -0.39006  -0.38116  -0.36313  -0.35547
  Beta  occ. eigenvalues --   -0.34622  -0.33885  -0.33457  -0.32388  -0.31775
  Beta  occ. eigenvalues --   -0.31294  -0.30630  -0.30073  -0.29918  -0.29209
  Beta  occ. eigenvalues --   -0.27741  -0.27355  -0.26997  -0.26368  -0.25981
  Beta  occ. eigenvalues --   -0.25317  -0.24193  -0.23324  -0.22339  -0.20104
  Beta  occ. eigenvalues --   -0.19291  -0.18375  -0.16744  -0.15661
  Beta virt. eigenvalues --    0.06077   0.06727   0.06768   0.07415   0.08014
  Beta virt. eigenvalues --    0.08147   0.08928   0.09074   0.09412   0.09460
  Beta virt. eigenvalues --    0.09949   0.10944   0.11401   0.11939   0.12022

 Mulliken charges and spin densities:
               1          2
     1  C   -0.524740  -0.029904
     2  C   -0.185152   0.218711
     3  C   -1.606095   0.068378
     4  C    0.419566  -0.212933
     5  C   -0.216959  -0.302326
     6  C    0.033732   0.545487
     7  O    0.117331   0.007877
     8  C    0.351184  -0.893662
     9  C   -0.015902  -0.526840
    10  O    0.083521   0.002186
    11  C    0.411913  -0.447541
    12  C    0.897662  -0.899603
    13  O    0.073713  -0.012824
    14  C   -1.206900   0.834768
    15  C    1.714987  -1.824982
    16  C   -0.157053  -0.134826
    17  O   -0.242105   0.005029
    18  O   -0.139661   0.056709
    19  H    0.093004   0.114679
    20  H    0.136751   0.047898
    21  H    0.193388   0.022367
    22  H   -0.325309   0.509810
    23  H   -0.548095   0.738920
    24  H   -0.012155   0.163257
    25  H   -0.092908   0.250194
    26  H    0.075469   0.068092
    27  H    0.140957   0.036447
    28  H   -0.102009   0.246102
    29  H    0.061913   0.084209
    30  H    0.033785   0.084406
    31  H   -0.491702   0.669469
    32  H   -0.313236   0.487878
    33  H   -0.062780   0.199069
    34  H    0.388913  -0.156869
    35  H    0.172312   0.070039
    36  H   -0.251788   0.447701
    37  H    0.442870  -0.175938
    38  H   -0.348419   0.638567
 Sum of Mulliken charges =  -1.00000   1.00000

 Dipole moment (field-independent basis, Debye):
    X=              0.0171    Y=              1.1055    Z=              1.2921  Tot=              1.7006
 Quadrupole moment (field-independent basis, Debye-Ang):
   XX=           -193.8930   YY=           -166.3394   ZZ=           -140.6832
   XY=              2.7347   XZ=             -1.4292   YZ=              2.4443

 Summary of Natural Population Analysis:

                                       Natural Population
                Natural  -----------------------------------------------
    Atom  No    Charge         Core      Valence    Rydberg      Total
 -----------------------------------------------------------------------
      C    1   -0.30806      0.99961     2.30159    0.00686     3.30806
      C    2    0.13769      0.99944     1.84647    0.01641     2.86231
      C    3    0.27818      0.99942     1.69912    0.02328     2.72182
      C    4   -0.10807      0.99944     2.09475    0.01388     3.10807
      C    5   -0.09048      0.99948     2.07989    0.01111     3.09048
      C    6    0.11926      0.99950     1.86573    0.01550     2.88074
      O    7   -0.32153      0.99986     3.30988    0.01179     4.32153
      C    8   -0.29116      0.99961     2.28492    0.00663     3.29116
      C    9   -0.28281      0.99961     2.27663    0.00658     3.28281
      O   10   -0.30216      0.99988     3.29384    0.00844     4.30216
      C   11   -0.02288      0.99958     2.01185    0.01145     3.02288
      C   12   -0.02350      0.99959     2.01202    0.01189     3.02350
      O   13   -0.30146      0.99987     3.29344    0.00814     4.30146
      C   14   -0.20077      0.99956     2.18941    0.01179     3.20077
      C   15   -0.24255      0.99957     2.23387    0.00911     3.24255
      C   16    0.40841      0.99971     1.56634    0.02554     2.59159
      O   17   -0.30974      0.99987     3.30372    0.00615     4.30974
      O   18   -0.34485      0.99988     3.33852    0.00645     4.34485
      H   19    0.10554      0.00000     0.39352    0.00095     0.39446
      H   20    0.10286      0.00000     0.39595    0.00119     0.39714
      H   21    0.11566      0.00000     0.38322    0.00112     0.38434
      H   22    0.10633      0.00000     0.39235    0.00132     0.39367
      H   23    0.10515      0.00000     0.39322    0.00163     0.39485
      H   24    0.10300      0.00000     0.39610    0.00090     0.39700
      H   25    0.10033      0.00000     0.39867    0.00099     0.39967
      H   26    0.10337      0.00000     0.39564    0.00099     0.39663
      H   27    0.10800      0.00000     0.39100    0.00100     0.39200
      H   28    0.09875      0.00000     0.40039    0.00086     0.40125
      H   29    0.10125      0.00000     0.39789    0.00086     0.39875
      H   30    0.08168      0.00000     0.41695    0.00137     0.41832
      H   31    0.09433      0.00000     0.40403    0.00164     0.40567
      H   32    0.09566      0.00000     0.40311    0.00123     0.40434
      H   33    0.08332      0.00000     0.41490    0.00178     0.41668
      H   34    0.11288      0.00000     0.38542    0.00170     0.38712
      H   35    0.11139      0.00000     0.38726    0.00135     0.38861
      H   36    0.11664      0.00000     0.38249    0.00088     0.38336
      H   37    0.11862      0.00000     0.37981    0.00157     0.38138
      H   38    0.24172      0.00000     0.24747    0.01080     0.25828
 =======================================================================
   * Total *   -0.00000     17.99347    50.76138    0.24516    69.00000

 Normal termination of Gaussian 16 at Fri Dec 11 23:46:08 2020.
