 Gaussian 16, Revision A.03,

 -----------------------------------------------------------
 # opt freq B3LYP/6-31G(d) empiricaldispersion=gd3bj scf=xqc
 -----------------------------------------------------------

 -------------------------------
 CID_113852229_JID_8528_neutraal
 -------------------------------
 Symbolic Z-matrix:
 Charge =  0 Multiplicity = 1

 SCF Done:  E(RB3LYP) =  -750.943192776     A.U. after   14 cycles
 SCF Done:  E(RB3LYP) =  -750.947579707     A.U. after   11 cycles
 SCF Done:  E(RB3LYP) =  -750.946807151     A.U. after   12 cycles
 SCF Done:  E(RB3LYP) =  -750.945035780     A.U. after   12 cycles
 SCF Done:  E(RB3LYP) =  -750.938244890     A.U. after   12 cycles
 SCF Done:  E(RB3LYP) =  -750.947611568     A.U. after    8 cycles
 SCF Done:  E(RB3LYP) =  -750.949402360     A.U. after   12 cycles
 SCF Done:  E(RB3LYP) =  -750.949678451     A.U. after   11 cycles
 SCF Done:  E(RB3LYP) =  -750.949951677     A.U. after   11 cycles
 SCF Done:  E(RB3LYP) =  -750.950161156     A.U. after   11 cycles
 SCF Done:  E(RB3LYP) =  -750.965991865     A.U. after    9 cycles
 SCF Done:  E(RB3LYP) =  -750.965993441     A.U. after    9 cycles
 SCF Done:  E(RB3LYP) =  -750.965994343     A.U. after    9 cycles
 SCF Done:  E(RB3LYP) =  -750.965994530     A.U. after    9 cycles
 SCF Done:  E(RB3LYP) =  -750.965994549     A.U. after    7 cycles
 Optimization completed.
    -- Stationary point found.
 Normal termination of Gaussian 16 at Mon Dec 14 14:10:54 2020.

 --------------------------------------------------------------------
 #N Geom=AllCheck Guess=TCheck SCRF=Check GenChk RB3LYP/6-31G(d) Freq
 --------------------------------------------------------------------

 Structure from the checkpoint file:  "JID_8528.chk"
 -------------------------------
 CID_113852229_JID_8528_neutraal
 -------------------------------
 Charge =  0 Multiplicity = 1

 SCF Done:  E(RB3LYP) =  -750.965994549     A.U. after    1 cycles

  Exact polarizability: 189.338  10.240 172.973  12.187  -3.995 143.148
 Approx polarizability: 243.738  12.115 256.653  23.951 -17.014 222.486

                      1                      2                      3
                      A                      A                      A
 Frequencies --     24.3331                42.1170                56.6569
 Red. masses --      3.6341                 3.4847                 3.4410
 Frc consts  --      0.0013                 0.0036                 0.0065
 IR Inten    --      0.2569                 0.2923                 0.0978

                      4                      5                      6
                      A                      A                      A
 Frequencies --     74.4807               105.2323               123.1430
 Red. masses --      2.5136                 1.9151                 1.4391
 Frc consts  --      0.0082                 0.0125                 0.0129
 IR Inten    --      1.1317                 0.1234                 0.1032

                      7                      8                      9
                      A                      A                      A
 Frequencies --    131.2752               153.4580               185.6043
 Red. masses --      3.1214                 2.4213                 2.9936
 Frc consts  --      0.0317                 0.0336                 0.0608
 IR Inten    --      1.3199                 0.2541                 1.6094

                     10                     11                     12
                      A                      A                      A
 Frequencies --    190.9021               222.3608               223.2997
 Red. masses --      3.2608                 1.8330                 1.6361
 Frc consts  --      0.0700                 0.0534                 0.0481
 IR Inten    --      3.6963                 0.8086                 1.4928

                     13                     14                     15
                      A                      A                      A
 Frequencies --    255.9364               277.8334               289.5333
 Red. masses --      1.6259                 1.5912                 2.1633
 Frc consts  --      0.0627                 0.0724                 0.1068
 IR Inten    --      1.9859                 0.7209                 0.5603

                     16                     17                     18
                      A                      A                      A
 Frequencies --    309.5367               326.9615               346.6539
 Red. masses --      2.1643                 2.6060                 2.5658
 Frc consts  --      0.1222                 0.1641                 0.1817
 IR Inten    --      0.7326                 0.2148                 4.0380

                     19                     20                     21
                      A                      A                      A
 Frequencies --    357.8596               397.9404               413.9780
 Red. masses --      3.3270                 2.8659                 2.3454
 Frc consts  --      0.2510                 0.2674                 0.2368
 IR Inten    --      4.6601                 0.1046                 0.8463

                     22                     23                     24
                      A                      A                      A
 Frequencies --    435.7083               440.3972               469.4313
 Red. masses --      2.5136                 2.0643                 2.7673
 Frc consts  --      0.2811                 0.2359                 0.3593
 IR Inten    --      0.2095                 1.4418                 0.1464

                     25                     26                     27
                      A                      A                      A
 Frequencies --    506.0419               530.2695               565.3466
 Red. masses --      2.4722                 2.5191                 3.2351
 Frc consts  --      0.3730                 0.4173                 0.6092
 IR Inten    --     13.4917                 4.7263                 3.3421

                     28                     29                     30
                      A                      A                      A
 Frequencies --    583.3232               642.7958               659.8557
 Red. masses --      2.7747                 3.4015                 3.8943
 Frc consts  --      0.5563                 0.8281                 0.9990
 IR Inten    --      1.8943                 6.3801                 7.2778

                     31                     32                     33
                      A                      A                      A
 Frequencies --    680.7137               730.9011               740.0081
 Red. masses --      1.4247                 2.6188                 3.6903
 Frc consts  --      0.3890                 0.8243                 1.1906
 IR Inten    --     19.6235                20.2213                 6.7751

                     34                     35                     36
                      A                      A                      A
 Frequencies --    774.4683               803.0999               819.4553
 Red. masses --      1.6252                 1.7347                 2.2887
 Frc consts  --      0.5743                 0.6592                 0.9055
 IR Inten    --     10.0265                15.6206                 6.3210

                     37                     38                     39
                      A                      A                      A
 Frequencies --    830.2814               833.2582               870.0117
 Red. masses --      1.7172                 1.6494                 1.4981
 Frc consts  --      0.6975                 0.6748                 0.6681
 IR Inten    --      7.6031                13.5064                 2.5984

                     40                     41                     42
                      A                      A                      A
 Frequencies --    891.7589               918.0228               933.6805
 Red. masses --      2.1643                 2.8124                 1.7859
 Frc consts  --      1.0141                 1.3965                 0.9173
 IR Inten    --      1.1538                 6.3127                 4.7484

                     43                     44                     45
                      A                      A                      A
 Frequencies --    945.2921               960.0575               961.5134
 Red. masses --      2.1849                 1.6446                 2.9937
 Frc consts  --      1.1503                 0.8931                 1.6307
 IR Inten    --      1.1290                 1.6566                10.3202

                     46                     47                     48
                      A                      A                      A
 Frequencies --    967.2351               997.6956              1010.6531
 Red. masses --      1.7772                 1.7929                 2.0891
 Frc consts  --      0.9796                 1.0515                 1.2572
 IR Inten    --      3.4457                 1.7636                 8.4305

                     49                     50                     51
                      A                      A                      A
 Frequencies --   1036.5534              1039.9650              1048.4274
 Red. masses --      1.3189                 2.9195                 2.0973
 Frc consts  --      0.8349                 1.8604                 1.3583
 IR Inten    --      0.4922                 9.8563                 6.9652

                     52                     53                     54
                      A                      A                      A
 Frequencies --   1065.0903              1067.6319              1079.7538
 Red. masses --      1.3771                 1.7045                 1.4744
 Frc consts  --      0.9204                 1.1447                 1.0128
 IR Inten    --     15.2126                 0.4344                 1.8674

                     55                     56                     57
                      A                      A                      A
 Frequencies --   1087.3516              1094.7169              1105.6323
 Red. masses --      1.3834                 1.8576                 1.6623
 Frc consts  --      0.9637                 1.3116                 1.1972
 IR Inten    --      4.4613                 6.4759                13.6290

                     58                     59                     60
                      A                      A                      A
 Frequencies --   1124.8465              1145.2361              1147.8634
 Red. masses --      1.6792                 1.4278                 1.3407
 Frc consts  --      1.2518                 1.1033                 1.0408
 IR Inten    --      2.1562                 0.2704                 2.8217

                     61                     62                     63
                      A                      A                      A
 Frequencies --   1179.8786              1197.4185              1206.8718
 Red. masses --      3.9647                 1.9186                 1.3802
 Frc consts  --      3.2519                 1.6208                 1.1845
 IR Inten    --      8.1374                 2.2360                 2.9419

                     64                     65                     66
                      A                      A                      A
 Frequencies --   1218.3253              1230.8458              1245.7945
 Red. masses --      1.7819                 1.9705                 1.8752
 Frc consts  --      1.5583                 1.7589                 1.7147
 IR Inten    --     20.0999                 6.7999                 0.1969

                     67                     68                     69
                      A                      A                      A
 Frequencies --   1247.8147              1283.9792              1319.3804
 Red. masses --      1.7530                 1.8768                 1.4235
 Frc consts  --      1.6082                 1.8230                 1.4600
 IR Inten    --      8.0436                 9.5131                 4.9315

                     70                     71                     72
                      A                      A                      A
 Frequencies --   1332.9329              1343.5069              1349.6877
 Red. masses --      1.6303                 4.1572                 1.5159
 Frc consts  --      1.7066                 4.4211                 1.6270
 IR Inten    --      3.9759                25.5241                 6.3008

                     73                     74                     75
                      A                      A                      A
 Frequencies --   1362.5919              1382.0277              1394.0178
 Red. masses --      1.3179                 2.7533                 1.5035
 Frc consts  --      1.4416                 3.0984                 1.7214
 IR Inten    --      9.5959                14.8571                 2.4328

                     76                     77                     78
                      A                      A                      A
 Frequencies --   1394.6045              1406.2849              1418.3579
 Red. masses --      1.4434                 1.4843                 1.5746
 Frc consts  --      1.6540                 1.7295                 1.8663
 IR Inten    --      3.6783                 6.2206                39.7171

                     79                     80                     81
                      A                      A                      A
 Frequencies --   1428.6857              1436.5114              1445.0668
 Red. masses --      1.2620                 1.4620                 1.4157
 Frc consts  --      1.5177                 1.7775                 1.7418
 IR Inten    --      9.3724                19.1744                13.9965

                     82                     83                     84
                      A                      A                      A
 Frequencies --   1450.8825              1452.3853              1488.3276
 Red. masses --      1.2359                 1.8166                 1.0945
 Frc consts  --      1.5329                 2.2577                 1.4285
 IR Inten    --      3.0157                48.7315                 1.9343

                     85                     86                     87
                      A                      A                      A
 Frequencies --   1506.1132              1508.1645              1510.8968
 Red. masses --      1.0452                 1.0786                 1.1600
 Frc consts  --      1.3969                 1.4454                 1.5602
 IR Inten    --      4.6808                 0.2458                 9.0754

                     88                     89                     90
                      A                      A                      A
 Frequencies --   1515.0184              1516.3454              1519.9265
 Red. masses --      1.2377                 1.2155                 1.0732
 Frc consts  --      1.6738                 1.6467                 1.4607
 IR Inten    --     21.7919                 7.8680                 1.9751

                     91                     92                     93
                      A                      A                      A
 Frequencies --   1525.2056              1528.2779              1535.2548
 Red. masses --      1.2688                 1.0856                 1.1762
 Frc consts  --      1.7390                 1.4939                 1.6334
 IR Inten    --      4.0766                11.5893                23.0977

                     94                     95                     96
                      A                      A                      A
 Frequencies --   1536.7451              1540.0599              1546.0552
 Red. masses --      1.0928                 1.5036                 1.0646
 Frc consts  --      1.5206                 2.1011                 1.4993
 IR Inten    --     10.2678                17.8535                 5.1031

                     97                     98                     99
                      A                      A                      A
 Frequencies --   1587.7967              1623.0600              3017.9752
 Red. masses --      3.8194                 5.1576                 1.0630
 Frc consts  --      5.6734                 8.0051                 5.7047
 IR Inten    --    111.5308                11.9788                23.2838

                    100                    101                    102
                      A                      A                      A
 Frequencies --   3034.4368              3035.7500              3038.0089
 Red. masses --      1.0809                 1.0377                 1.0610
 Frc consts  --      5.8637                 5.6346                 5.7696
 IR Inten    --     10.5219                20.8774                26.7094

                    103                    104                    105
                      A                      A                      A
 Frequencies --   3044.1459              3047.1750              3053.5909
 Red. masses --      1.0363                 1.0444                 1.0580
 Frc consts  --      5.6579                 5.7135                 5.8123
 IR Inten    --     49.5873                35.0739                28.0235

                    106                    107                    108
                      A                      A                      A
 Frequencies --   3056.8087              3064.2547              3076.4836
 Red. masses --      1.0636                 1.0934                 1.0994
 Frc consts  --      5.8558                 6.0488                 6.1310
 IR Inten    --     23.6267                51.2928                52.0341

                    109                    110                    111
                      A                      A                      A
 Frequencies --   3093.5539              3096.4509              3100.7862
 Red. masses --      1.1036                 1.1012                 1.1031
 Frc consts  --      6.2227                 6.2208                 6.2490
 IR Inten    --      2.9137                22.4589                21.1967

                    112                    113                    114
                      A                      A                      A
 Frequencies --   3103.2347              3105.3987              3109.9630
 Red. masses --      1.1025                 1.1018                 1.1016
 Frc consts  --      6.2554                 6.2603                 6.2774
 IR Inten    --     15.5865                80.2349                62.9690

                    115                    116                    117
                      A                      A                      A
 Frequencies --   3122.8276              3124.4748              3150.7503
 Red. masses --      1.1016                 1.0991                 1.0533
 Frc consts  --      6.3293                 6.3218                 6.1609
 IR Inten    --     22.4228                39.0309                12.6156

                    118                    119                    120
                      A                      A                      A
 Frequencies --   3162.0748              3199.0161              3231.2490
 Red. masses --      1.0566                 1.0899                 1.1197
 Frc consts  --      6.2244                 6.5719                 6.8883
 IR Inten    --     10.0314                 2.7235                 0.8438

                    121                    122                    123
                      A                      A                      A
 Frequencies --   3246.1667              3293.5435              3555.5994
 Red. masses --      1.1151                 1.0968                 1.0740
 Frc consts  --      6.9234                 7.0095                 7.9999
 IR Inten    --     14.2051                 2.6690                12.2448

 - Thermochemistry -
 -------------------
 Temperature   298.150 Kelvin.  Pressure   1.00000 Atm.
 Atom     1 has atomic number  6 and mass  12.00000

 Molecular mass:   247.20485 amu.
 Principal axes and moments of inertia in atomic units:
                           1         2         3
     Eigenvalues --  2975.320536229.485747227.03307
           X            0.99998  -0.00360   0.00548
           Y            0.00351   0.99986   0.01659
           Z           -0.00554  -0.01657   0.99985
 This molecule is an asymmetric top.
 Rotational symmetry number  1.
 Warning -- assumption of classical behavior for rotation
           may cause significant error
 Rotational temperatures (Kelvin)      0.02911     0.01390     0.01198
 Rotational constants (GHZ):           0.60657     0.28971     0.24972
 Zero-point vibrational energy    1016420.6 (Joules/Mol)
                                  242.93036 (Kcal/Mol)
 Warning -- explicit consideration of  28 degrees of freedom as
           vibrations may cause significant error
 Vibrational temperatures:     35.01    60.60    81.52   107.16   151.41
          (Kelvin)            177.18   188.88   220.79   267.04   274.67
                              319.93   321.28   368.24   399.74   416.57
                              445.35   470.42   498.76   514.88   572.55
                              595.62   626.89   633.63   675.41   728.08
                              762.94   813.41   839.27   924.84   949.39
                              979.40  1051.60  1064.71  1114.29  1155.48
                             1179.01  1194.59  1198.87  1251.75  1283.04
                             1320.83  1343.36  1360.06  1381.31  1383.40
                             1391.64  1435.46  1454.10  1491.37  1496.28
                             1508.45  1532.43  1536.08  1553.52  1564.46
                             1575.05  1590.76  1618.40  1647.74  1651.52
                             1697.58  1722.82  1736.42  1752.90  1770.91
                             1792.42  1795.33  1847.36  1898.29  1917.79
                             1933.01  1941.90  1960.47  1988.43  2005.68
                             2006.52  2023.33  2040.70  2055.56  2066.82
                             2079.13  2087.50  2089.66  2141.37  2166.96
                             2169.91  2173.84  2179.77  2181.68  2186.84
                             2194.43  2198.85  2208.89  2211.03  2215.80
                             2224.43  2284.49  2335.22  4342.19  4365.88
                             4367.77  4371.02  4379.85  4384.21  4393.44
                             4398.07  4408.78  4426.37  4450.93  4455.10
                             4461.34  4464.86  4467.98  4474.54  4493.05
                             4495.42  4533.23  4549.52  4602.67  4649.05
                             4670.51  4738.67  5115.71

 Zero-point correction=                           0.387134 (Hartree/Particle)
 Thermal correction to Energy=                    0.405346
 Thermal correction to Enthalpy=                  0.406290
 Thermal correction to Gibbs Free Energy=         0.340966
 Sum of electronic and zero-point Energies=           -750.578860
 Sum of electronic and thermal Energies=              -750.560649
 Sum of electronic and thermal Enthalpies=            -750.559705
 Sum of electronic and thermal Free Energies=         -750.625028

                     E (Thermal)             CV                S
                      KCal/Mol        Cal/Mol-Kelvin    Cal/Mol-Kelvin
 Total                  254.358             71.571            137.485
 Electronic               0.000              0.000              0.000
 Translational            0.889              2.981             42.416
 Rotational               0.889              2.981             33.260
 Vibrational            252.581             65.609             61.809
 Vibration     1          0.593              1.985              6.245
 Vibration     2          0.595              1.980              5.157
 Vibration     3          0.596              1.975              4.570
 Vibration     4          0.599              1.966              4.031
 Vibration     5          0.605              1.945              3.355
 Vibration     6          0.610              1.930              3.050
 Vibration     7          0.612              1.922              2.927
 Vibration     8          0.619              1.899              2.629
 Vibration     9          0.632              1.860              2.271
 Vibration    10          0.634              1.852              2.219
 Vibration    11          0.648              1.807              1.940
 Vibration    12          0.649              1.806              1.932
 Vibration    13          0.666              1.753              1.689
 Vibration    14          0.679              1.714              1.547
 Vibration    15          0.686              1.693              1.477
 Vibration    16          0.699              1.656              1.365
 Vibration    17          0.711              1.622              1.275
 Vibration    18          0.725              1.582              1.181
 Vibration    19          0.733              1.559              1.131
 Vibration    20          0.764              1.475              0.970
 Vibration    21          0.778              1.440              0.913
 Vibration    22          0.796              1.392              0.840
 Vibration    23          0.800              1.382              0.825
 Vibration    24          0.827              1.318              0.739
 Vibration    25          0.861              1.237              0.643
 Vibration    26          0.885              1.183              0.587
 Vibration    27          0.921              1.106              0.513
 Vibration    28          0.940              1.067              0.479

 Optimization completed.
    -- Stationary point found.
 Normal termination of Gaussian 16 at Mon Dec 14 14:34:22 2020.

 ----------------------------------------------------------------------
 # B3LYP/6-311++G(d,p) empiricaldispersion=gd3bj scf=xqc pop=npa geom=c
 heck
 ----------------------------------------------------------------------

 ---------------------------------------
 CID_113852229_JID_8528_Energie_neutraal
 ---------------------------------------
 Structure from the checkpoint file:  "JID_8528.chk"
 Charge =  0 Multiplicity = 1

 SCF Done:  E(RB3LYP) =  -751.168030904     A.U. after   14 cycles
 Normal termination of Gaussian 16 at Mon Dec 14 14:45:12 2020.

 ----------------------------------------------------------------------
 # B3LYP/6-311++G(d,p) empiricaldispersion=gd3bj scf=xqc pop=npa geom=c
 heck
 ----------------------------------------------------------------------

 -------------------------------------
 CID_113852229_JID_8528_Energie_kation
 -------------------------------------
 Structure from the checkpoint file:  "JID_8528.chk"
 Charge =  1 Multiplicity = 2

 SCF Done:  E(UB3LYP) =  -750.900070331     A.U. after   21 cycles
 Normal termination of Gaussian 16 at Mon Dec 14 15:06:50 2020.
 Gaussian 16:  ES64L-G16RevA.03 25-Dec-2016

 ----------------------------------------------------------------------
 # B3LYP/6-311++G(d,p) empiricaldispersion=gd3bj scf=xqc pop=npa geom=c
 heck
 ----------------------------------------------------------------------

 ------------------------------------
 CID_113852229_JID_8528_Energie_anion
 ------------------------------------
 Structure from the checkpoint file:  "JID_8528.chk"
 Charge = -1 Multiplicity = 2

                         Standard orientation:
 ---------------------------------------------------------------------
 Center     Atomic      Atomic             Coordinates (Angstroms)
 Number     Number       Type             X           Y           Z
 ---------------------------------------------------------------------
      1          6           0       -4.086220   -2.357115   -0.437555
      2          6           0       -3.103594   -1.294756   -0.063283
      3          6           0       -3.025505   -0.004853   -0.523675
      4          7           0       -1.949302    0.577095    0.137719
      5          6           0       -1.419934   -0.400553    0.946490
      6          7           0       -2.092919   -1.532939    0.850983
      7          7           0       -0.344718   -0.152969    1.806736
      8          6           0        1.052667   -0.211916    1.271909
      9          6           0        1.749904    1.147121    1.403466
     10          6           0        3.198035    1.078928    0.903862
     11          6           0        3.258233    0.561478   -0.538855
     12          6           0        2.563508   -0.805813   -0.730844
     13          6           0        1.124643   -0.725677   -0.171253
     14          6           0        3.360311   -1.925093   -0.035843
     15          6           0        2.487277   -1.126249   -2.231685
     16          6           0       -1.480164    1.930695    0.070561
     17          6           0       -0.774443    2.448011   -1.161928
     18          6           0       -2.157055    2.944038   -0.804043
     19          1           0       -3.579755   -3.234655   -0.857205
     20          1           0       -4.801031   -1.987655   -1.180041
     21          1           0       -4.649620   -2.699803    0.438697
     22          1           0       -3.625559    0.539706   -1.234962
     23          1           0       -0.438020   -0.805695    2.577626
     24          1           0        1.588571   -0.920884    1.915916
     25          1           0        1.706901    1.478638    2.447630
     26          1           0        1.195227    1.884624    0.810996
     27          1           0        3.785633    0.425973    1.563032
     28          1           0        3.663212    2.070504    0.963273
     29          1           0        4.300395    0.493471   -0.877988
     30          1           0        2.764361    1.294711   -1.193499
     31          1           0        0.544544   -0.047803   -0.809499
     32          1           0        0.639294   -1.706533   -0.237408
     33          1           0        3.469392   -1.761313    1.040460
     34          1           0        2.864237   -2.893014   -0.173814
     35          1           0        4.368314   -2.000563   -0.461063
     36          1           0        1.985982   -2.086137   -2.404343
     37          1           0        1.926810   -0.352931   -2.770921
     38          1           0        3.489639   -1.185427   -2.673086
     39          1           0       -1.106736    2.258200    1.035235
     40          1           0        0.077181    3.109736   -1.031693
     41          1           0       -0.695863    1.764518   -2.002313
     42          1           0       -2.983728    2.625947   -1.430490
     43          1           0       -2.266788    3.948611   -0.406547
 ---------------------------------------------------------------------

 SCF Done:  E(UB3LYP) =  -751.154841545     A.U. after   33 cycles
 SCF Done:  E(UB3LYP) =  -751.154841545     a.u. after    1 cycles

 The electronic state is 2-A.
 Alpha  occ. eigenvalues --  -14.27450 -14.22587 -14.19301 -10.15642 -10.13181
 Alpha  occ. eigenvalues --  -10.11374 -10.09719 -10.09632 -10.09144 -10.09069
 Alpha  occ. eigenvalues --  -10.08751 -10.07879 -10.07001 -10.06967 -10.06807
 Alpha  occ. eigenvalues --  -10.06700 -10.06677 -10.06514  -0.93163  -0.82883
 Alpha  occ. eigenvalues --   -0.80874  -0.74958  -0.74834  -0.68628  -0.66635
 Alpha  occ. eigenvalues --   -0.64070  -0.60870  -0.59626  -0.58511  -0.54823
 Alpha  occ. eigenvalues --   -0.52449  -0.51912  -0.49580  -0.49025  -0.46000
 Alpha  occ. eigenvalues --   -0.44916  -0.43040  -0.40796  -0.39802  -0.38840
 Alpha  occ. eigenvalues --   -0.36662  -0.36176  -0.35589  -0.35278  -0.34032
 Alpha  occ. eigenvalues --   -0.33821  -0.32978  -0.32606  -0.31475  -0.30251
 Alpha  occ. eigenvalues --   -0.29763  -0.29369  -0.29063  -0.28550  -0.27920
 Alpha  occ. eigenvalues --   -0.26698  -0.26304  -0.25021  -0.24659  -0.23686
 Alpha  occ. eigenvalues --   -0.22923  -0.22387  -0.21303  -0.21163  -0.18414
 Alpha  occ. eigenvalues --   -0.17455  -0.16099  -0.11537   0.04078
 Alpha virt. eigenvalues --    0.05766   0.06305   0.06823   0.07508   0.07934
 Alpha virt. eigenvalues --    0.08177   0.08849   0.09209   0.09952   0.10034
 Alpha virt. eigenvalues --    0.10361   0.10690   0.10863   0.11433   0.11996

  Beta  occ. eigenvalues --  -14.27449 -14.22584 -14.19298 -10.15642 -10.13175
  Beta  occ. eigenvalues --  -10.11370 -10.09708 -10.09629 -10.09111 -10.09069
  Beta  occ. eigenvalues --  -10.08727 -10.07869 -10.06982 -10.06962 -10.06789
  Beta  occ. eigenvalues --  -10.06689 -10.06654 -10.06496  -0.93159  -0.82874
  Beta  occ. eigenvalues --   -0.80863  -0.74942  -0.74820  -0.68609  -0.66618
  Beta  occ. eigenvalues --   -0.64050  -0.60850  -0.59586  -0.58480  -0.54802
  Beta  occ. eigenvalues --   -0.52382  -0.51866  -0.49551  -0.49000  -0.45973
  Beta  occ. eigenvalues --   -0.44890  -0.43015  -0.40733  -0.39770  -0.38816
  Beta  occ. eigenvalues --   -0.36639  -0.36157  -0.35566  -0.35263  -0.34008
  Beta  occ. eigenvalues --   -0.33798  -0.32959  -0.32587  -0.31459  -0.30235
  Beta  occ. eigenvalues --   -0.29735  -0.29349  -0.29046  -0.28516  -0.27897
  Beta  occ. eigenvalues --   -0.26680  -0.26278  -0.24996  -0.24635  -0.23669
  Beta  occ. eigenvalues --   -0.22891  -0.22361  -0.21280  -0.21139  -0.18405
  Beta  occ. eigenvalues --   -0.17445  -0.16088  -0.11528
  Beta virt. eigenvalues --    0.06002   0.06444   0.07079   0.07144   0.08022
  Beta virt. eigenvalues --    0.08397   0.08648   0.09045   0.09492   0.10251
  Beta virt. eigenvalues --    0.10315   0.10446   0.10874   0.11166   0.11569

 Mulliken charges and spin densities:
               1          2
     1  C    0.491905  -0.986923
     2  C    0.482476  -0.365561
     3  C   -0.530891   0.372128
     4  N    0.525815  -0.077051
     5  C   -0.070264  -0.676007
     6  N   -0.080134   0.078372
     7  N    0.027009   0.089021
     8  C    0.005359  -0.842502
     9  C   -0.590871   0.660359
    10  C    0.646357  -1.273528
    11  C   -0.260601  -0.061322
    12  C   -1.342929   1.894235
    13  C    0.516539  -0.622534
    14  C    0.185023  -0.841862
    15  C    0.255122  -0.726912
    16  C   -1.651844   1.699968
    17  C    1.302163  -1.719628
    18  C    0.388963  -0.885314
    19  H    0.042272   0.107983
    20  H    0.009773   0.125125
    21  H    0.095958   0.047633
    22  H   -0.392063   0.538613
    23  H    0.252654   0.028600
    24  H    0.141686   0.033600
    25  H   -0.133698   0.317610
    26  H    0.193022  -0.111814
    27  H    0.117793   0.012571
    28  H   -0.525568   0.727494
    29  H   -0.150096   0.323434
    30  H    0.017210   0.118025
    31  H    0.138411  -0.134070
    32  H    0.360931  -0.139060
    33  H   -0.055992   0.163125
    34  H    0.037525   0.111892
    35  H   -0.204978   0.372688
    36  H   -0.003679   0.139168
    37  H   -0.098396   0.229131
    38  H   -0.157260   0.315290
    39  H   -0.139864   0.439744
    40  H   -0.061611   0.215396
    41  H   -0.056371   0.264043
    42  H   -0.236621   0.366572
    43  H   -0.490235   0.672268
 Sum of Mulliken charges =  -1.00000   1.00000

 Dipole moment (field-independent basis, Debye):
    X=             -1.6962    Y=             -4.0479    Z=              2.1675  Tot=              4.8950
 Quadrupole moment (field-independent basis, Debye-Ang):
   XX=           -193.1668   YY=           -176.0260   ZZ=           -152.3033
   XY=              1.7174   XZ=             -0.3150   YZ=              1.6909

 Summary of Natural Population Analysis:

                                       Natural Population
                Natural  -----------------------------------------------
    Atom  No    Charge         Core      Valence    Rydberg      Total
 -----------------------------------------------------------------------
      C    1   -0.29404      0.99963     2.28941    0.00500     3.29404
      C    2    0.05264      0.99955     1.93538    0.01243     2.94736
      C    3   -0.04196      0.99948     2.03140    0.01108     3.04196
      N    4   -0.21025      0.99959     2.70046    0.01020     3.71025
      C    5    0.28595      0.99959     1.69670    0.01776     2.71405
      N    6   -0.27939      0.99967     2.77071    0.00902     3.77939
      N    7   -0.33997      0.99968     2.83021    0.01008     3.83997
      C    8   -0.00151      0.99955     1.99062    0.01134     3.00151
      C    9   -0.19309      0.99960     2.18357    0.00992     3.19309
      C   10   -0.19021      0.99962     2.18178    0.00881     3.19021
      C   11   -0.18732      0.99959     2.17759    0.01015     3.18732
      C   12   -0.04307      0.99957     2.03246    0.01104     3.04307
      C   13   -0.20277      0.99957     2.19398    0.00923     3.20277
      C   14   -0.28688      0.99962     2.28009    0.00717     3.28688
      C   15   -0.28094      0.99963     2.27413    0.00719     3.28094
      C   16   -0.01848      0.99956     2.00594    0.01298     3.01848
      C   17   -0.19982      0.99962     2.19075    0.00946     3.19982
      C   18   -0.19583      0.99963     2.18685    0.00936     3.19583
      H   19    0.10269      0.00000     0.39583    0.00148     0.39731
      H   20    0.10112      0.00000     0.39808    0.00081     0.39888
      H   21    0.10131      0.00000     0.39723    0.00146     0.39869
      H   22    0.10400      0.00000     0.39485    0.00115     0.39600
      H   23    0.18903      0.00000     0.30881    0.00216     0.31097
      H   24    0.08923      0.00000     0.40934    0.00143     0.41077
      H   25    0.10014      0.00000     0.39861    0.00125     0.39986
      H   26    0.09766      0.00000     0.40021    0.00213     0.40234
      H   27    0.09263      0.00000     0.40601    0.00136     0.40737
      H   28    0.10206      0.00000     0.39687    0.00107     0.39794
      H   29    0.10049      0.00000     0.39830    0.00121     0.39951
      H   30    0.09734      0.00000     0.40077    0.00189     0.40266
      H   31    0.10244      0.00000     0.39489    0.00267     0.39756
      H   32    0.10741      0.00000     0.39128    0.00131     0.39259
      H   33    0.09856      0.00000     0.40038    0.00105     0.40144
      H   34    0.09917      0.00000     0.40003    0.00081     0.40083
      H   35    0.10071      0.00000     0.39844    0.00085     0.39929
      H   36    0.09871      0.00000     0.40048    0.00081     0.40129
      H   37    0.10025      0.00000     0.39870    0.00105     0.39975
      H   38    0.09961      0.00000     0.39952    0.00087     0.40039
      H   39    0.11417      0.00000     0.38397    0.00186     0.38583
      H   40    0.10738      0.00000     0.39095    0.00167     0.39262
      H   41    0.10618      0.00000     0.39231    0.00151     0.39382
      H   42    0.10571      0.00000     0.39289    0.00139     0.39429
      H   43    0.10895      0.00000     0.38954    0.00151     0.39105
 =======================================================================
   * Total *   -0.00000     17.99275    49.79030    0.21695    68.00000

 Normal termination of Gaussian 16 at Mon Dec 14 15:40:00 2020.
