 Gaussian 16, Revision A.03,

 -----------------------------------------------------------
 # opt freq B3LYP/6-31G(d) empiricaldispersion=gd3bj scf=xqc
 -----------------------------------------------------------

 ------------------------------
 CID_65959326_JID_5871_neutraal
 ------------------------------
 Symbolic Z-matrix:
 Charge =  0 Multiplicity = 1

 SCF Done:  E(RB3LYP) =  -687.565976483     A.U. after   15 cycles
 SCF Done:  E(RB3LYP) =  -687.576041140     A.U. after   12 cycles
 SCF Done:  E(RB3LYP) =  -687.576667151     A.U. after   12 cycles
 SCF Done:  E(RB3LYP) =  -687.576967509     A.U. after   12 cycles
 SCF Done:  E(RB3LYP) =  -687.577627125     A.U. after   12 cycles
 SCF Done:  E(RB3LYP) =  -687.578924781     A.U. after   13 cycles
 SCF Done:  E(RB3LYP) =  -687.579665333     A.U. after   12 cycles
 SCF Done:  E(RB3LYP) =  -687.579939591     A.U. after   12 cycles
 SCF Done:  E(RB3LYP) =  -687.579735717     A.U. after   12 cycles
 SCF Done:  E(RB3LYP) =  -687.580098019     A.U. after   12 cycles
 SCF Done:  E(RB3LYP) =  -687.580184481     A.U. after   11 cycles
 SCF Done:  E(RB3LYP) =  -687.580188365     A.U. after    9 cycles
 SCF Done:  E(RB3LYP) =  -687.580191359     A.U. after    9 cycles
 SCF Done:  E(RB3LYP) =  -687.580193359     A.U. after    8 cycles
 SCF Done:  E(RB3LYP) =  -687.580193925     A.U. after    8 cycles
 SCF Done:  E(RB3LYP) =  -687.580194272     A.U. after    8 cycles
 Optimization completed.
    -- Stationary point found.
 Normal termination of Gaussian 16 at Thu Dec 10 17:27:37 2020.

 --------------------------------------------------------------------
 #N Geom=AllCheck Guess=TCheck SCRF=Check GenChk RB3LYP/6-31G(d) Freq
 --------------------------------------------------------------------

 Structure from the checkpoint file:  "JID_5871.chk"
 ------------------------------
 CID_65959326_JID_5871_neutraal
 ------------------------------
 Charge =  0 Multiplicity = 1

 SCF Done:  E(RB3LYP) =  -687.580194272     A.U. after    1 cycles

  Exact polarizability: 167.028  -0.764 159.157   0.991   1.520  75.251
 Approx polarizability: 249.989   0.392 246.559   3.561   3.416 112.062

                      1                      2                      3
                      A                      A                      A
 Frequencies --     42.6457                64.5606                85.7127
 Red. masses --      7.3239                 4.6796                 3.0504
 Frc consts  --      0.0078                 0.0115                 0.0132
 IR Inten    --      1.8197                 0.2927                 2.5480

                      4                      5                      6
                      A                      A                      A
 Frequencies --    100.8933               104.5111               156.7773
 Red. masses --      5.7431                 3.7010                 3.1744
 Frc consts  --      0.0344                 0.0238                 0.0460
 IR Inten    --      2.6575                 0.1273                 8.0615

                      7                      8                      9
                      A                      A                      A
 Frequencies --    201.1692               214.7225               227.2886
 Red. masses --      1.7556                 2.7816                 1.9093
 Frc consts  --      0.0419                 0.0756                 0.0581
 IR Inten    --      8.0654                 3.5368                 0.2123

                     10                     11                     12
                      A                      A                      A
 Frequencies --    248.1914               297.0423               352.1373
 Red. masses --      2.7789                 3.5609                 5.5866
 Frc consts  --      0.1009                 0.1851                 0.4081
 IR Inten    --      1.3922                 1.9841                12.6098

                     13                     14                     15
                      A                      A                      A
 Frequencies --    354.5944               380.9702               407.0556
 Red. masses --      1.6716                 3.3098                 2.2151
 Frc consts  --      0.1238                 0.2830                 0.2162
 IR Inten    --     75.8788                 3.1359                 3.5746

                     16                     17                     18
                      A                      A                      A
 Frequencies --    465.6991               506.2270               518.9617
 Red. masses --      3.2048                 3.9074                 4.9606
 Frc consts  --      0.4095                 0.5900                 0.7871
 IR Inten    --      3.8133                 4.1182                 9.6446

                     19                     20                     21
                      A                      A                      A
 Frequencies --    548.2209               601.9464               628.3162
 Red. masses --      2.3659                 4.0073                 2.0215
 Frc consts  --      0.4189                 0.8555                 0.4702
 IR Inten    --     31.8087                32.0589                37.8396

                     22                     23                     24
                      A                      A                      A
 Frequencies --    639.4562               650.9090               719.1388
 Red. masses --      1.6344                 3.6243                 4.3161
 Frc consts  --      0.3938                 0.9047                 1.3151
 IR Inten    --     53.5531                25.4911                51.7711

                     25                     26                     27
                      A                      A                      A
 Frequencies --    729.9962               770.9630               790.3973
 Red. masses --      4.6236                 2.7946                 3.9349
 Frc consts  --      1.4517                 0.9787                 1.4483
 IR Inten    --     15.3283                55.3244                 7.1176

                     28                     29                     30
                      A                      A                      A
 Frequencies --    824.0830               838.1702               857.1118
 Red. masses --      3.0024                 1.6682                 1.4301
 Frc consts  --      1.2013                 0.6905                 0.6190
 IR Inten    --      3.1097                 2.6665                 2.3640

                     31                     32                     33
                      A                      A                      A
 Frequencies --    923.4708               945.6548               955.8212
 Red. masses --      2.1876                 1.2914                 3.0658
 Frc consts  --      1.0992                 0.6804                 1.6502
 IR Inten    --      9.0400                 0.3894                30.6465

                     34                     35                     36
                      A                      A                      A
 Frequencies --    987.5360               999.0880              1017.0498
 Red. masses --      1.2938                 3.0966                 2.7520
 Frc consts  --      0.7434                 1.8212                 1.6772
 IR Inten    --     10.0840                 2.8471                10.6236

                     37                     38                     39
                      A                      A                      A
 Frequencies --   1027.0602              1051.6305              1072.1020
 Red. masses --      1.6167                 2.3746                 1.4936
 Frc consts  --      1.0048                 1.5473                 1.0115
 IR Inten    --     22.6562                 8.3803                 2.7817

                     40                     41                     42
                      A                      A                      A
 Frequencies --   1111.9934              1139.2016              1143.3064
 Red. masses --      2.5880                 1.3441                 2.4573
 Frc consts  --      1.8855                 1.0277                 1.8925
 IR Inten    --      6.7584                16.5701                42.2832

                     43                     44                     45
                      A                      A                      A
 Frequencies --   1156.4205              1182.7845              1203.2131
 Red. masses --      2.4989                 1.3620                 1.6171
 Frc consts  --      1.9690                 1.1226                 1.3794
 IR Inten    --    100.0191                 9.9264               137.0120

                     46                     47                     48
                      A                      A                      A
 Frequencies --   1220.4357              1234.6983              1242.4514
 Red. masses --      1.7106                 1.7592                 1.4465
 Frc consts  --      1.5012                 1.5801                 1.3156
 IR Inten    --    127.8401                 4.6250                 2.7078

                     49                     50                     51
                      A                      A                      A
 Frequencies --   1288.0281              1316.0016              1337.3407
 Red. masses --      1.2929                 2.3704                 1.5393
 Frc consts  --      1.2637                 2.4187                 1.6220
 IR Inten    --      9.0152                39.5340                40.1635

                     52                     53                     54
                      A                      A                      A
 Frequencies --   1367.4031              1375.5106              1390.2755
 Red. masses --      1.6210                 3.4341                 1.3202
 Frc consts  --      1.7858                 3.8282                 1.5034
 IR Inten    --      0.9515                71.4419                13.6144

                     55                     56                     57
                      A                      A                      A
 Frequencies --   1391.4587              1425.0526              1439.4067
 Red. masses --      2.5699                 1.6544                 1.2920
 Frc consts  --      2.9316                 1.9795                 1.5771
 IR Inten    --    107.4630                69.5421                 4.5893

                     58                     59                     60
                      A                      A                      A
 Frequencies --   1488.7789              1515.1609              1518.8144
 Red. masses --      2.5360                 1.0975                 1.4940
 Frc consts  --      3.3118                 1.4845                 2.0305
 IR Inten    --    122.9537                 8.9461                17.7629

                     61                     62                     63
                      A                      A                      A
 Frequencies --   1531.6590              1539.2467              1555.8331
 Red. masses --      1.0807                 1.2866                 1.1399
 Frc consts  --      1.4937                 1.7960                 1.6257
 IR Inten    --      0.0778                14.3456                14.5611

                     64                     65                     66
                      A                      A                      A
 Frequencies --   1585.6648              1636.1934              1671.6448
 Red. masses --      1.9294                 4.4506                 5.4238
 Frc consts  --      2.8581                 7.0201                 8.9298
 IR Inten    --     50.5377                69.9005                59.4842

                     67                     68                     69
                      A                      A                      A
 Frequencies --   1820.8087              3014.3727              3022.1000
 Red. masses --      9.6265                 1.0462                 1.0623
 Frc consts  --     18.8039                 5.6012                 5.7162
 IR Inten    --    275.3658                36.3639                94.7755

                     70                     71                     72
                      A                      A                      A
 Frequencies --   3028.0244              3064.3141              3084.3773
 Red. masses --      1.0680                 1.0942                 1.1004
 Frc consts  --      5.7693                 6.0538                 6.1680
 IR Inten    --     59.0201                23.4288                25.8279

                     73                     74                     75
                      A                      A                      A
 Frequencies --   3088.5374              3109.4004              3132.6632
 Red. masses --      1.1002                 1.0895                 1.0966
 Frc consts  --      6.1834                 6.2062                 6.3403
 IR Inten    --     20.1879                68.1238                14.5350

                     76                     77                     78
                      A                      A                      A
 Frequencies --   3181.8003              3198.2098              3241.1062
 Red. masses --      1.0895                 1.0929                 1.0923
 Frc consts  --      6.4987                 6.5864                 6.7607
 IR Inten    --     22.8575                39.2613                 2.6368

                     79                     80                     81
                      A                      A                      A
 Frequencies --   3534.8023              3637.6275              3702.8261
 Red. masses --      1.0766                 1.0757                 1.0641
 Frc consts  --      7.9253                 8.3867                 8.5961
 IR Inten    --      0.7497                13.7145                66.8368

 - Thermochemistry -
 -------------------
 Temperature   298.150 Kelvin.  Pressure   1.00000 Atm.
 Atom     1 has atomic number  6 and mass  12.00000

 Molecular mass:   206.10553 amu.
 Principal axes and moments of inertia in atomic units:
                           1         2         3
     Eigenvalues --  2475.357743540.622725721.75703
           X            0.99940   0.03465  -0.00052
           Y           -0.03465   0.99940   0.00065
           Z            0.00054  -0.00063   1.00000
 This molecule is an asymmetric top.
 Rotational symmetry number  1.
 Warning -- assumption of classical behavior for rotation
           may cause significant error
 Rotational temperatures (Kelvin)      0.03499     0.02446     0.01514
 Rotational constants (GHZ):           0.72908     0.50972     0.31542
 Zero-point vibrational energy     635074.9 (Joules/Mol)
                                  151.78654 (Kcal/Mol)
 Warning -- explicit consideration of  20 degrees of freedom as
           vibrations may cause significant error
 Vibrational temperatures:     61.36    92.89   123.32   145.16   150.37
          (Kelvin)            225.57   289.44   308.94   327.02   357.09
                              427.38   506.65   510.18   548.13   585.66
                              670.04   728.35   746.67   788.77   866.07
                              904.01   920.03   936.51  1034.68  1050.30
                             1109.24  1137.21  1185.67  1205.94  1233.19
                             1328.67  1360.59  1375.21  1420.84  1437.46
                             1463.31  1477.71  1513.06  1542.52  1599.91
                             1639.06  1644.96  1663.83  1701.76  1731.16
                             1755.93  1776.46  1787.61  1853.19  1893.43
                             1924.14  1967.39  1979.05  2000.30  2002.00
                             2050.33  2070.99  2142.02  2179.98  2185.24
                             2203.72  2214.63  2238.50  2281.42  2354.12
                             2405.12  2619.74  4337.01  4348.13  4356.65
                             4408.86  4437.73  4443.72  4473.73  4507.20
                             4577.90  4601.51  4663.23  5085.79  5233.73
                             5327.54

 Zero-point correction=                           0.241887 (Hartree/Particle)
 Thermal correction to Energy=                    0.255748
 Thermal correction to Enthalpy=                  0.256692
 Thermal correction to Gibbs Free Energy=         0.200878
 Sum of electronic and zero-point Energies=           -687.338307
 Sum of electronic and thermal Energies=              -687.324446
 Sum of electronic and thermal Enthalpies=            -687.323502
 Sum of electronic and thermal Free Energies=         -687.379316

                     E (Thermal)             CV                S
                      KCal/Mol        Cal/Mol-Kelvin    Cal/Mol-Kelvin
 Total                  160.484             53.210            117.471
 Electronic               0.000              0.000              0.000
 Translational            0.889              2.981             41.874
 Rotational               0.889              2.981             32.283
 Vibrational            158.707             47.248             43.314
 Vibration     1          0.595              1.980              5.132
 Vibration     2          0.597              1.971              4.313
 Vibration     3          0.601              1.959              3.756
 Vibration     4          0.604              1.948              3.437
 Vibration     5          0.605              1.946              3.368
 Vibration     6          0.620              1.895              2.588
 Vibration     7          0.638              1.838              2.122
 Vibration     8          0.645              1.819              2.003
 Vibration     9          0.651              1.799              1.900
 Vibration    10          0.662              1.766              1.743
 Vibration    11          0.691              1.679              1.434
 Vibration    12          0.729              1.571              1.157
 Vibration    13          0.730              1.566              1.146
 Vibration    14          0.751              1.511              1.035
 Vibration    15          0.772              1.455              0.937
 Vibration    16          0.823              1.326              0.750
 Vibration    17          0.861              1.236              0.643
 Vibration    18          0.874              1.208              0.612
 Vibration    19          0.903              1.144              0.548
 Vibration    20          0.960              1.028              0.446

                           ! Non-Optimized Parameters !
 Normal termination of Gaussian 16 at Thu Dec 10 17:36:49 2020.

 ----------------------------------------------------------------------
 # B3LYP/6-311++G(d,p) empiricaldispersion=gd3bj scf=xqc pop=npa geom=c
 heck
 ----------------------------------------------------------------------

 --------------------------------------
 CID_65959326_JID_5871_Energie_neutraal
 --------------------------------------
 Structure from the checkpoint file:  "JID_5871.chk"
 Charge =  0 Multiplicity = 1

 SCF Done:  E(RB3LYP) =  -687.782897596     A.U. after   15 cycles
 Normal termination of Gaussian 16 at Thu Dec 10 17:40:16 2020.

 ----------------------------------------------------------------------
 # B3LYP/6-311++G(d,p) empiricaldispersion=gd3bj scf=xqc pop=npa geom=c
 heck
 ----------------------------------------------------------------------

 ------------------------------------
 CID_65959326_JID_5871_Energie_kation
 ------------------------------------
 Structure from the checkpoint file:  "JID_5871.chk"
 Charge =  1 Multiplicity = 2

 SCF Done:  E(UB3LYP) =  -687.512273978     A.U. after   25 cycles
 Normal termination of Gaussian 16 at Thu Dec 10 17:47:45 2020.
 Gaussian 16:  ES64L-G16RevA.03 25-Dec-2016

 ----------------------------------------------------------------------
 # B3LYP/6-311++G(d,p) empiricaldispersion=gd3bj scf=xqc pop=npa geom=c
 heck
 ----------------------------------------------------------------------

 -----------------------------------
 CID_65959326_JID_5871_Energie_anion
 -----------------------------------
 Structure from the checkpoint file:  "JID_5871.chk"
 Charge = -1 Multiplicity = 2

                         Standard orientation:
 ---------------------------------------------------------------------
 Center     Atomic      Atomic             Coordinates (Angstroms)
 Number     Number       Type             X           Y           Z
 ---------------------------------------------------------------------
      1          6           0       -0.676261    3.494853   -0.012269
      2          6           0        0.131967    2.223323   -0.000703
      3          6           0       -0.516054    0.960037   -0.047904
      4          6           0        0.262499   -0.205982   -0.050806
      5          6           0        1.659007   -0.121692   -0.010233
      6          6           0        2.302689    1.117874    0.040431
      7          6           0        1.524758    2.271996    0.045245
      8          6           0        2.420306   -1.394688   -0.020003
      9          8           0        1.936486   -2.508176   -0.073800
     10          8           0        3.768867   -1.209412    0.038120
     11          7           0       -1.908180    0.944352   -0.128089
     12          6           0       -2.768639   -0.207913   -0.010101
     13          6           0       -2.586233   -1.374742   -1.023473
     14          7           0       -2.142943   -2.259591    0.077026
     15          6           0       -2.534538   -1.273956    1.108787
     16          1           0       -1.329261    3.549519   -0.893810
     17          1           0       -1.322297    3.583307    0.874473
     18          1           0       -0.024189    4.372205   -0.023344
     19          1           0       -0.189537   -1.192609   -0.073701
     20          1           0        3.383631    1.174045    0.072850
     21          1           0        2.008523    3.245003    0.081344
     22          1           0        4.148130   -2.106932    0.022992
     23          1           0       -2.344792    1.805295    0.161588
     24          1           0       -3.787117    0.186074   -0.007145
     25          1           0       -3.528875   -1.662651   -1.509482
     26          1           0       -1.826835   -1.215739   -1.797149
     27          1           0       -2.599214   -3.165234    0.130670
     28          1           0       -1.737190   -1.047786    1.825956
     29          1           0       -3.452961   -1.511786    1.663805
 ---------------------------------------------------------------------

 SCF Done:  E(UB3LYP) =  -687.778711324     A.U. after   32 cycles

 The electronic state is 2-A.
 Alpha  occ. eigenvalues --  -19.04830 -18.97762 -14.21079 -14.18844 -10.16528
 Alpha  occ. eigenvalues --  -10.10147 -10.09363 -10.08512 -10.08244 -10.06481
 Alpha  occ. eigenvalues --  -10.05775 -10.05385 -10.05290 -10.04657 -10.03718
 Alpha  occ. eigenvalues --   -0.98410  -0.88928  -0.83910  -0.80207  -0.73046
 Alpha  occ. eigenvalues --   -0.66687  -0.62960  -0.59518  -0.58758  -0.57086
 Alpha  occ. eigenvalues --   -0.51989  -0.49635  -0.47193  -0.44792  -0.41940
 Alpha  occ. eigenvalues --   -0.39873  -0.39356  -0.37263  -0.35882  -0.33788
 Alpha  occ. eigenvalues --   -0.33047  -0.32587  -0.31938  -0.30801  -0.30328
 Alpha  occ. eigenvalues --   -0.29578  -0.29123  -0.28412  -0.27524  -0.25381
 Alpha  occ. eigenvalues --   -0.24811  -0.23608  -0.23151  -0.22155  -0.20561
 Alpha  occ. eigenvalues --   -0.17921  -0.15621  -0.13325  -0.12036  -0.08800
 Alpha  occ. eigenvalues --    0.04241
 Alpha virt. eigenvalues --    0.05894   0.07206   0.07969   0.08653   0.09022
 Alpha virt. eigenvalues --    0.09799   0.10957   0.11196   0.11437   0.11906
 Alpha virt. eigenvalues --    0.12566   0.13413   0.13760   0.14487   0.15073

  Beta  occ. eigenvalues --  -19.04794 -18.97608 -14.21073 -14.18838 -10.16360
  Beta  occ. eigenvalues --  -10.10123 -10.09399 -10.08501 -10.08226 -10.06476
  Beta  occ. eigenvalues --  -10.05603 -10.05406 -10.05217 -10.04605 -10.03609
  Beta  occ. eigenvalues --   -0.98238  -0.88698  -0.83881  -0.80179  -0.72882
  Beta  occ. eigenvalues --   -0.66443  -0.62857  -0.59376  -0.58609  -0.57047
  Beta  occ. eigenvalues --   -0.51765  -0.49545  -0.47074  -0.44724  -0.41832
  Beta  occ. eigenvalues --   -0.39799  -0.39288  -0.37140  -0.35734  -0.33670
  Beta  occ. eigenvalues --   -0.32651  -0.32191  -0.31725  -0.30746  -0.30270
  Beta  occ. eigenvalues --   -0.29528  -0.29038  -0.28362  -0.27419  -0.25291
  Beta  occ. eigenvalues --   -0.24726  -0.23445  -0.23011  -0.22079  -0.19937
  Beta  occ. eigenvalues --   -0.17760  -0.15471  -0.12597  -0.12010  -0.08351
  Beta virt. eigenvalues --    0.06942   0.07618   0.07983   0.08033   0.09056
  Beta virt. eigenvalues --    0.09438   0.10042   0.11128   0.11357   0.11685
  Beta virt. eigenvalues --    0.12023   0.12757   0.13415   0.14057   0.14688

 Mulliken charges and spin densities:
               1          2
     1  C    0.359999  -1.050693
     2  C    0.335437   0.547511
     3  C   -0.535086   0.285058
     4  C   -0.101458  -0.276946
     5  C    0.583041  -0.286175
     6  C   -0.925488   0.295829
     7  C   -0.254305  -0.413776
     8  C    0.316127   0.055761
     9  O   -0.357119   0.054944
    10  O   -0.218962   0.008117
    11  N   -0.043229   0.056567
    12  C   -0.464096   0.274483
    13  C    0.260484  -0.517647
    14  N   -0.210985  -0.069499
    15  C    0.894170  -1.203976
    16  H    0.056872   0.103199
    17  H   -0.230840   0.399087
    18  H    0.083906   0.056409
    19  H    0.334415  -0.090703
    20  H    0.149830   0.008172
    21  H    0.091143   0.000442
    22  H    0.274182  -0.000837
    23  H    0.107109   0.157155
    24  H   -1.165741   1.402536
    25  H   -0.383983   0.509548
    26  H    0.180850  -0.006030
    27  H    0.223753   0.047829
    28  H    0.125968   0.047622
    29  H   -0.485993   0.606012
 Sum of Mulliken charges =  -1.00000   1.00000

 Dipole moment (field-independent basis, Debye):
    X=              5.8601    Y=              0.5751    Z=             -0.9736  Tot=              5.9682
 Quadrupole moment (field-independent basis, Debye-Ang):
   XX=           -152.9812   YY=           -123.8202   ZZ=           -108.3778
   XY=              3.5889   XZ=              3.6095   YZ=             -2.2591

 Summary of Natural Population Analysis:

                                       Natural Population
                Natural  -----------------------------------------------
    Atom  No    Charge         Core      Valence    Rydberg      Total
 -----------------------------------------------------------------------
      C    1   -0.30072      0.99964     2.29544    0.00564     3.30072
      C    2   -0.00110      0.99949     1.99207    0.00954     3.00110
      C    3    0.08137      0.99945     1.90780    0.01137     2.91863
      C    4   -0.09455      0.99949     2.08605    0.00900     3.09455
      C    5   -0.06866      0.99946     2.05864    0.01056     3.06866
      C    6   -0.09377      0.99954     2.08545    0.00878     3.09377
      C    7   -0.10964      0.99953     2.10122    0.00889     3.10964
      C    8    0.41615      0.99965     1.56024    0.02395     2.58385
      O    9   -0.30577      0.99987     3.29846    0.00744     4.30577
      O   10   -0.35368      0.99988     3.34806    0.00574     4.35368
      N   11   -0.31816      0.99966     2.80657    0.01193     3.81816
      C   12   -0.01387      0.99959     1.99832    0.01597     3.01387
      C   13   -0.08858      0.99965     2.07831    0.01062     3.08858
      N   14   -0.34625      0.99976     2.83513    0.01135     3.84625
      C   15   -0.09135      0.99965     2.08123    0.01048     3.09135
      H   16    0.10288      0.00000     0.39598    0.00115     0.39712
      H   17    0.10313      0.00000     0.39504    0.00183     0.39687
      H   18    0.10065      0.00000     0.39859    0.00076     0.39935
      H   19    0.12426      0.00000     0.37343    0.00232     0.37574
      H   20    0.10289      0.00000     0.39615    0.00096     0.39711
      H   21    0.09236      0.00000     0.40668    0.00097     0.40764
      H   22    0.23336      0.00000     0.26368    0.00295     0.26664
      H   23    0.19105      0.00000     0.30591    0.00305     0.30895
      H   24    0.10285      0.00000     0.39163    0.00552     0.39715
      H   25    0.08712      0.00000     0.41132    0.00156     0.41288
      H   26    0.09255      0.00000     0.40622    0.00123     0.40745
      H   27    0.17393      0.00000     0.32442    0.00165     0.32607
      H   28    0.09319      0.00000     0.40552    0.00129     0.40681
      H   29    0.08837      0.00000     0.40950    0.00213     0.41163
 =======================================================================
   * Total *   -0.00000     14.99432    39.81705    0.18863    55.00000

 Normal termination of Gaussian 16 at Thu Dec 10 17:57:18 2020.
