 Gaussian 16, Revision A.03,

 -----------------------------------------------------------
 # opt freq B3LYP/6-31G(d) empiricaldispersion=gd3bj scf=xqc
 -----------------------------------------------------------

 ------------------------------
 CID_81059007_JID_7263_neutraal
 ------------------------------
 Symbolic Z-matrix:
 Charge =  0 Multiplicity = 1

 SCF Done:  E(RB3LYP) =  -771.051859457     A.U. after   15 cycles
 SCF Done:  E(RB3LYP) =  -771.049697830     A.U. after   13 cycles
 SCF Done:  E(RB3LYP) =  -771.055821274     A.U. after   12 cycles
 SCF Done:  E(RB3LYP) =  -771.045059963     A.U. after   13 cycles
 SCF Done:  E(RB3LYP) =  -771.055843207     A.U. after   11 cycles
 SCF Done:  E(RB3LYP) =  -771.057061029     A.U. after   11 cycles
 SCF Done:  E(RB3LYP) =  -771.057264978     A.U. after   11 cycles
 SCF Done:  E(RB3LYP) =  -771.057477694     A.U. after   11 cycles
 SCF Done:  E(RB3LYP) =  -771.057669602     A.U. after   10 cycles
 SCF Done:  E(RB3LYP) =  -771.057763718     A.U. after   10 cycles
 SCF Done:  E(RB3LYP) =  -771.057815371     A.U. after    9 cycles
 SCF Done:  E(RB3LYP) =  -771.057820186     A.U. after    9 cycles
 SCF Done:  E(RB3LYP) =  -771.057823449     A.U. after    9 cycles
 SCF Done:  E(RB3LYP) =  -771.057824109     A.U. after    8 cycles
 SCF Done:  E(RB3LYP) =  -771.057824291     A.U. after    7 cycles
 SCF Done:  E(RB3LYP) =  -771.057824385     A.U. after    7 cycles
 Optimization completed.
    -- Stationary point found.
 Normal termination of Gaussian 16 at Sun Dec 13 20:32:05 2020.

 --------------------------------------------------------------------
 #N Geom=AllCheck Guess=TCheck SCRF=Check GenChk RB3LYP/6-31G(d) Freq
 --------------------------------------------------------------------

 Structure from the checkpoint file:  "JID_7263.chk"
 ------------------------------
 CID_81059007_JID_7263_neutraal
 ------------------------------
 Charge =  0 Multiplicity = 1

 SCF Done:  E(RB3LYP) =  -771.057824385     A.U. after    1 cycles

  Exact polarizability: 161.652   6.559 153.767  -1.963  -5.777 137.517
 Approx polarizability: 217.429   9.901 206.348   0.123 -12.423 222.718

                      1                      2                      3
                      A                      A                      A
 Frequencies --     27.9193                39.2024                65.2700
 Red. masses --      3.2525                 3.7181                 4.1272
 Frc consts  --      0.0015                 0.0034                 0.0104
 IR Inten    --      0.2390                 0.3187                 1.7073

                      4                      5                      6
                      A                      A                      A
 Frequencies --     85.2785                97.1431                98.9642
 Red. masses --      3.0733                 4.9119                 3.3801
 Frc consts  --      0.0132                 0.0273                 0.0195
 IR Inten    --      1.2211                 1.9895                 0.2843

                      7                      8                      9
                      A                      A                      A
 Frequencies --    137.3569               158.5409               166.9563
 Red. masses --      3.2616                 2.1656                 2.9170
 Frc consts  --      0.0363                 0.0321                 0.0479
 IR Inten    --      0.6102                 0.6145                 1.1792

                     10                     11                     12
                      A                      A                      A
 Frequencies --    188.4867               207.0184               218.7410
 Red. masses --      1.9430                 1.2920                 2.5819
 Frc consts  --      0.0407                 0.0326                 0.0728
 IR Inten    --      7.8752                 0.6203                 3.2426

                     13                     14                     15
                      A                      A                      A
 Frequencies --    255.2997               264.1466               277.8279
 Red. masses --      1.9812                 3.1300                 1.6209
 Frc consts  --      0.0761                 0.1287                 0.0737
 IR Inten    --      1.4006                 2.9205                 5.7135

                     16                     17                     18
                      A                      A                      A
 Frequencies --    285.4679               291.1430               334.4430
 Red. masses --      2.2138                 2.1693                 2.2217
 Frc consts  --      0.1063                 0.1083                 0.1464
 IR Inten    --      1.4250                 1.2920                 0.4106

                     19                     20                     21
                      A                      A                      A
 Frequencies --    348.5704               383.9105               389.1649
 Red. masses --      2.3065                 1.3504                 2.6800
 Frc consts  --      0.1651                 0.1173                 0.2391
 IR Inten    --      2.1105                28.7639                13.6937

                     22                     23                     24
                      A                      A                      A
 Frequencies --    400.6231               446.8322               454.7972
 Red. masses --      2.6794                 3.0239                 2.7333
 Frc consts  --      0.2534                 0.3557                 0.3331
 IR Inten    --      4.0080                 3.2542                 6.6185

                     25                     26                     27
                      A                      A                      A
 Frequencies --    462.2216               495.7079               507.5754
 Red. masses --      2.4748                 2.4463                 2.0589
 Frc consts  --      0.3115                 0.3542                 0.3125
 IR Inten    --      5.5430                 7.9522                 7.5764

                     28                     29                     30
                      A                      A                      A
 Frequencies --    550.2935               563.7838               571.1309
 Red. masses --      3.1044                 3.0480                 1.9048
 Frc consts  --      0.5539                 0.5708                 0.3661
 IR Inten    --     10.7537                 2.7600                 2.3736

                     31                     32                     33
                      A                      A                      A
 Frequencies --    687.4320               747.0335               789.7743
 Red. masses --      4.1407                 4.5201                 2.2880
 Frc consts  --      1.1529                 1.4862                 0.8408
 IR Inten    --      3.1338                40.6949                23.3538

                     34                     35                     36
                      A                      A                      A
 Frequencies --    805.2822               807.9975               821.2156
 Red. masses --      1.5635                 1.4279                 1.5861
 Frc consts  --      0.5974                 0.5493                 0.6302
 IR Inten    --      7.8872                 7.8599                 3.4902

                     37                     38                     39
                      A                      A                      A
 Frequencies --    847.7798               857.0519               875.9928
 Red. masses --      2.0233                 1.6697                 1.6306
 Frc consts  --      0.8568                 0.7226                 0.7372
 IR Inten    --    146.1422                19.5857                70.2748

                     40                     41                     42
                      A                      A                      A
 Frequencies --    881.8742               908.3733               924.5713
 Red. masses --      2.6626                 2.2098                 2.3240
 Frc consts  --      1.2200                 1.0743                 1.1705
 IR Inten    --     20.5656                10.1648                 7.0981

                     43                     44                     45
                      A                      A                      A
 Frequencies --    953.8225               964.6087               973.0973
 Red. masses --      1.7205                 1.7225                 1.9544
 Frc consts  --      0.9222                 0.9443                 1.0904
 IR Inten    --      2.1014                 6.1442                29.4626

                     46                     47                     48
                      A                      A                      A
 Frequencies --   1019.3116              1042.1021              1056.8608
 Red. masses --      2.5914                 2.0882                 1.9306
 Frc consts  --      1.5864                 1.3361                 1.2705
 IR Inten    --     16.7263                14.8655                 5.5852

                     49                     50                     51
                      A                      A                      A
 Frequencies --   1074.1799              1075.8835              1096.9631
 Red. masses --      2.3070                 2.4723                 2.0912
 Frc consts  --      1.5684                 1.6861                 1.4826
 IR Inten    --      7.0890                 9.6437                 6.0616

                     52                     53                     54
                      A                      A                      A
 Frequencies --   1108.6199              1114.7507              1121.9962
 Red. masses --      2.0579                 1.8460                 2.6041
 Frc consts  --      1.4902                 1.3516                 1.9315
 IR Inten    --      5.6465                17.2780                15.2419

                     55                     56                     57
                      A                      A                      A
 Frequencies --   1133.7872              1149.7194              1159.5664
 Red. masses --      2.1280                 1.2942                 1.3774
 Frc consts  --      1.6117                 1.0080                 1.0912
 IR Inten    --     41.8920                 2.2306                 1.1728

                     58                     59                     60
                      A                      A                      A
 Frequencies --   1172.2963              1179.2574              1209.3563
 Red. masses --      2.4821                 1.7591                 1.7293
 Frc consts  --      2.0098                 1.4413                 1.4902
 IR Inten    --     88.1707                21.1131                28.9392

                     61                     62                     63
                      A                      A                      A
 Frequencies --   1220.1450              1243.4255              1253.8276
 Red. masses --      1.9384                 1.8523                 1.6837
 Frc consts  --      1.7003                 1.6873                 1.5596
 IR Inten    --     15.8635                14.7746                16.4111

                     64                     65                     66
                      A                      A                      A
 Frequencies --   1290.9893              1306.7159              1317.1197
 Red. masses --      2.0807                 1.3063                 1.2206
 Frc consts  --      2.0432                 1.3142                 1.2476
 IR Inten    --     74.4447                 6.3568                 3.2873

                     67                     68                     69
                      A                      A                      A
 Frequencies --   1334.6312              1340.8934              1361.5680
 Red. masses --      1.3171                 1.3976                 1.1699
 Frc consts  --      1.3823                 1.4805                 1.2779
 IR Inten    --      5.0978                12.4872                 3.3085

                     70                     71                     72
                      A                      A                      A
 Frequencies --   1370.0228              1382.0362              1389.8940
 Red. masses --      1.3619                 1.3675                 1.3879
 Frc consts  --      1.5061                 1.5389                 1.5797
 IR Inten    --      1.3747                 4.4645                 1.6557

                     73                     74                     75
                      A                      A                      A
 Frequencies --   1393.3995              1398.8225              1405.2669
 Red. masses --      1.3734                 1.4362                 1.4065
 Frc consts  --      1.5711                 1.6557                 1.6365
 IR Inten    --     20.8547                 1.6994                 7.9144

                     76                     77                     78
                      A                      A                      A
 Frequencies --   1409.8891              1415.2618              1423.6543
 Red. masses --      1.4680                 1.2223                 1.2862
 Frc consts  --      1.7192                 1.4424                 1.5360
 IR Inten    --     10.7610                 5.6811                 7.5146

                     79                     80                     81
                      A                      A                      A
 Frequencies --   1431.5859              1435.7630              1449.9918
 Red. masses --      1.6369                 1.2530                 1.3092
 Frc consts  --      1.9766                 1.5218                 1.6218
 IR Inten    --     45.2584                16.6722                15.4326

                     82                     83                     84
                      A                      A                      A
 Frequencies --   1493.6264              1502.4495              1507.2882
 Red. masses --      1.1547                 1.0868                 1.1216
 Frc consts  --      1.5178                 1.4454                 1.5014
 IR Inten    --     13.3377                 0.7249                14.9894

                     85                     86                     87
                      A                      A                      A
 Frequencies --   1510.0377              1513.3610              1516.6670
 Red. masses --      1.0636                 1.1019                 1.0870
 Frc consts  --      1.4289                 1.4868                 1.4732
 IR Inten    --      9.3497                 9.4449                 1.2218

                     88                     89                     90
                      A                      A                      A
 Frequencies --   1517.7445              1524.7556              1528.3062
 Red. masses --      1.0933                 1.0617                 1.0859
 Frc consts  --      1.4838                 1.4542                 1.4943
 IR Inten    --      4.7037                 7.1104                 3.6901

                     91                     92                     93
                      A                      A                      A
 Frequencies --   1531.1293              1537.3208              1542.2328
 Red. masses --      1.0540                 1.0706                 1.1099
 Frc consts  --      1.4558                 1.4907                 1.5554
 IR Inten    --      4.8763                 6.8711                37.8316

                     94                     95                     96
                      A                      A                      A
 Frequencies --   1554.9279              1565.9276              1696.8520
 Red. masses --      1.0890                 1.0657                 1.1200
 Frc consts  --      1.5513                 1.5397                 1.9001
 IR Inten    --      3.6300                13.5188                11.1227

                     97                     98                     99
                      A                      A                      A
 Frequencies --   1704.1768              3002.0496              3023.9738
 Red. masses --      7.7262                 1.0696                 1.0708
 Frc consts  --     13.2204                 5.6794                 5.7690
 IR Inten    --    175.3802                42.7621                 8.4256

                    100                    101                    102
                      A                      A                      A
 Frequencies --   3025.0005              3034.3050              3035.9919
 Red. masses --      1.0693                 1.0719                 1.0736
 Frc consts  --      5.7652                 5.8148                 5.8306
 IR Inten    --     20.8591                32.7620                34.0458

                    103                    104                    105
                      A                      A                      A
 Frequencies --   3047.3842              3049.9509              3052.5137
 Red. masses --      1.0610                 1.0622                 1.0627
 Frc consts  --      5.8051                 5.8219                 5.8343
 IR Inten    --     15.1089                29.3164                52.9218

                    106                    107                    108
                      A                      A                      A
 Frequencies --   3054.8558              3070.4443              3071.5178
 Red. masses --      1.0378                 1.0592                 1.0940
 Frc consts  --      5.7059                 5.8837                 6.0812
 IR Inten    --     26.1990                31.7885                53.3007

                    109                    110                    111
                      A                      A                      A
 Frequencies --   3076.2262              3086.4205              3092.8699
 Red. masses --      1.0363                 1.1023                 1.0929
 Frc consts  --      5.7779                 6.1868                 6.1596
 IR Inten    --     32.5547                14.9827                85.5511

                    112                    113                    114
                      A                      A                      A
 Frequencies --   3093.8185              3104.7108              3105.1210
 Red. masses --      1.1008                 1.1034                 1.1057
 Frc consts  --      6.2081                 6.2665                 6.2811
 IR Inten    --     77.8509                19.4377                 4.0570

                    115                    116                    117
                      A                      A                      A
 Frequencies --   3121.1632              3132.6517              3132.9180
 Red. masses --      1.1002                 1.1041                 1.0878
 Frc consts  --      6.3146                 6.3836                 6.2906
 IR Inten    --     29.1031                55.6105                43.8178

                    118                    119                    120
                      A                      A                      A
 Frequencies --   3141.6155              3141.7817              3158.5021
 Red. masses --      1.0998                 1.0939                 1.1009
 Frc consts  --      6.3952                 6.3617                 6.4707
 IR Inten    --     17.4631                15.5546                20.6104

                    121                    122                    123
                      A                      A                      A
 Frequencies --   3180.6842              3482.9697              3576.4290
 Red. masses --      1.0906                 1.0480                 1.0940
 Frc consts  --      6.5007                 7.4907                 8.2445
 IR Inten    --      4.4341                 1.7288                 0.2246

 - Thermochemistry -
 -------------------
 Temperature   298.150 Kelvin.  Pressure   1.00000 Atm.
 Atom     1 has atomic number  6 and mass  12.00000

 Molecular mass:   242.19943 amu.
 Principal axes and moments of inertia in atomic units:
                           1         2         3
     Eigenvalues --  2962.269944663.278105898.37674
           X            0.99998   0.00240  -0.00658
           Y           -0.00250   0.99989  -0.01474
           Z            0.00655   0.01475   0.99987
 This molecule is an asymmetric top.
 Rotational symmetry number  1.
 Warning -- assumption of classical behavior for rotation
           may cause significant error
 Rotational temperatures (Kelvin)      0.02924     0.01857     0.01468
 Rotational constants (GHZ):           0.60924     0.38701     0.30597
 Zero-point vibrational energy    1033286.1 (Joules/Mol)
                                  246.96131 (Kcal/Mol)
 Warning -- explicit consideration of  30 degrees of freedom as
           vibrations may cause significant error
 Vibrational temperatures:     40.17    56.40    93.91   122.70   139.77
          (Kelvin)            142.39   197.63   228.10   240.21   271.19
                              297.85   314.72   367.32   380.05   399.73
                              410.72   418.89   481.19   501.52   552.36
                              559.92   576.41   642.89   654.35   665.03
                              713.21   730.29   791.75   811.16   821.73
                              989.06  1074.81  1136.31  1158.62  1162.53
                             1181.55  1219.77  1233.11  1260.36  1268.82
                             1306.95  1330.25  1372.34  1387.86  1400.07
                             1466.56  1499.35  1520.59  1545.51  1547.96
                             1578.29  1595.06  1603.88  1614.30  1631.27
                             1654.19  1668.36  1686.67  1696.69  1739.99
                             1755.52  1789.01  1803.98  1857.45  1880.07
                             1895.04  1920.24  1929.25  1958.99  1971.16
                             1988.44  1999.75  2004.79  2012.59  2021.87
                             2028.52  2036.25  2048.32  2059.73  2065.74
                             2086.21  2149.00  2161.69  2168.65  2172.61
                             2177.39  2182.15  2183.70  2193.78  2198.89
                             2202.95  2211.86  2218.93  2237.19  2253.02
                             2441.39  2451.93  4319.28  4350.82  4352.30
                             4365.69  4368.12  4384.51  4388.20  4391.89
                             4395.26  4417.68  4419.23  4426.00  4440.67
                             4449.95  4451.31  4466.99  4467.58  4490.66
                             4507.19  4507.57  4520.08  4520.32  4544.38
                             4576.30  5011.22  5145.68

 Zero-point correction=                           0.393558 (Hartree/Particle)
 Thermal correction to Energy=                    0.412088
 Thermal correction to Enthalpy=                  0.413032
 Thermal correction to Gibbs Free Energy=         0.347374
 Sum of electronic and zero-point Energies=           -770.664266
 Sum of electronic and thermal Energies=              -770.645736
 Sum of electronic and thermal Enthalpies=            -770.644792
 Sum of electronic and thermal Free Energies=         -770.710450

                     E (Thermal)             CV                S
                      KCal/Mol        Cal/Mol-Kelvin    Cal/Mol-Kelvin
 Total                  258.589             71.353            138.189
 Electronic               0.000              0.000              0.000
 Translational            0.889              2.981             42.355
 Rotational               0.889              2.981             32.766
 Vibrational            256.812             65.392             63.068
 Vibration     1          0.593              1.984              5.972
 Vibration     2          0.594              1.981              5.299
 Vibration     3          0.597              1.971              4.291
 Vibration     4          0.601              1.959              3.766
 Vibration     5          0.603              1.951              3.511
 Vibration     6          0.604              1.950              3.475
 Vibration     7          0.614              1.916              2.840
 Vibration     8          0.621              1.893              2.567
 Vibration     9          0.624              1.883              2.469
 Vibration    10          0.633              1.856              2.243
 Vibration    11          0.641              1.830              2.070
 Vibration    12          0.647              1.813              1.969
 Vibration    13          0.666              1.754              1.694
 Vibration    14          0.671              1.739              1.634
 Vibration    15          0.679              1.714              1.547
 Vibration    16          0.683              1.701              1.501
 Vibration    17          0.687              1.690              1.467
 Vibration    18          0.716              1.607              1.239
 Vibration    19          0.726              1.578              1.173
 Vibration    20          0.753              1.505              1.024
 Vibration    21          0.757              1.493              1.003
 Vibration    22          0.766              1.469              0.960
 Vibration    23          0.806              1.368              0.805
 Vibration    24          0.813              1.350              0.781
 Vibration    25          0.820              1.334              0.760
 Vibration    26          0.851              1.260              0.669
 Vibration    27          0.863              1.233              0.639
 Vibration    28          0.906              1.139              0.544
 Vibration    29          0.920              1.110              0.516
 Vibration    30          0.927              1.094              0.502

 Optimization completed.
    -- Stationary point found.
 Normal termination of Gaussian 16 at Sun Dec 13 20:58:29 2020.

 ----------------------------------------------------------------------
 # B3LYP/6-311++G(d,p) empiricaldispersion=gd3bj scf=xqc pop=npa geom=c
 heck
 ----------------------------------------------------------------------

 --------------------------------------
 CID_81059007_JID_7263_Energie_neutraal
 --------------------------------------
 Structure from the checkpoint file:  "JID_7263.chk"
 Charge =  0 Multiplicity = 1

 SCF Done:  E(RB3LYP) =  -771.282524515     A.U. after   15 cycles
 Normal termination of Gaussian 16 at Sun Dec 13 21:11:06 2020.

 ----------------------------------------------------------------------
 # B3LYP/6-311++G(d,p) empiricaldispersion=gd3bj scf=xqc pop=npa geom=c
 heck
 ----------------------------------------------------------------------

 ------------------------------------
 CID_81059007_JID_7263_Energie_kation
 ------------------------------------
 Structure from the checkpoint file:  "JID_7263.chk"
 Charge =  1 Multiplicity = 2

 SCF Done:  E(UB3LYP) =  -770.978083191     A.U. after   28 cycles
 Normal termination of Gaussian 16 at Sun Dec 13 21:42:58 2020.
 Gaussian 16:  ES64L-G16RevA.03 25-Dec-2016

 ----------------------------------------------------------------------
 # B3LYP/6-311++G(d,p) empiricaldispersion=gd3bj scf=xqc pop=npa geom=c
 heck
 ----------------------------------------------------------------------

 -----------------------------------
 CID_81059007_JID_7263_Energie_anion
 -----------------------------------
 Structure from the checkpoint file:  "JID_7263.chk"
 Charge = -1 Multiplicity = 2

                         Standard orientation:
 ---------------------------------------------------------------------
 Center     Atomic      Atomic             Coordinates (Angstroms)
 Number     Number       Type             X           Y           Z
 ---------------------------------------------------------------------
      1          6           0       -2.596970    1.902250    0.601458
      2          6           0       -2.800412    1.099272   -0.680043
      3          8           0       -3.623264   -0.053271   -0.507541
      4          6           0       -3.111500   -1.086366    0.308498
      5          6           0       -1.844951   -1.785782   -0.219864
      6          7           0       -0.570374   -1.247801    0.285756
      7          6           0       -0.307167   -1.524647    1.696004
      8          6           0        0.284923   -0.656290   -0.622131
      9          8           0       -0.069102   -0.552207   -1.798955
     10          6           0        1.724165   -0.176302   -0.270747
     11          6           0        2.051126    1.000608   -1.227499
     12          6           0        1.257747    2.271341   -0.901683
     13          6           0        1.481577    2.724370    0.545714
     14          6           0        1.212950    1.579277    1.529544
     15          6           0        2.021413    0.329574    1.157458
     16          6           0        2.675298   -1.354815   -0.652330
     17          7           0        2.584438   -2.608331    0.089027
     18          1           0       -2.021546    2.810263    0.387539
     19          1           0       -2.044023    1.334908    1.357034
     20          1           0       -3.560580    2.194543    1.032196
     21          1           0       -3.340311    1.707578   -1.412720
     22          1           0       -1.842671    0.819581   -1.133356
     23          1           0       -2.947771   -0.740940    1.341769
     24          1           0       -3.917891   -1.826481    0.343208
     25          1           0       -1.889854   -2.844862    0.066874
     26          1           0       -1.824082   -1.726766   -1.306788
     27          1           0       -1.108883   -2.165231    2.068025
     28          1           0        0.631875   -2.062588    1.834678
     29          1           0       -0.296436   -0.620369    2.310538
     30          1           0        3.125598    1.211997   -1.133409
     31          1           0        1.861499    0.692721   -2.256803
     32          1           0        0.190984    2.079091   -1.070385
     33          1           0        1.541716    3.071221   -1.596449
     34          1           0        0.844958    3.585890    0.782717
     35          1           0        2.522360    3.059136    0.664127
     36          1           0        0.141607    1.343965    1.516555
     37          1           0        1.455762    1.889660    2.553430
     38          1           0        1.904916   -0.446456    1.915023
     39          1           0        3.089060    0.592774    1.172614
     40          1           0        2.512953   -1.583391   -1.710992
     41          1           0        3.704844   -0.987645   -0.558026
     42          1           0        1.659563   -3.021260   -0.006189
     43          1           0        2.757649   -2.465527    1.081003
 ---------------------------------------------------------------------

 SCF Done:  E(UB3LYP) =  -771.274301568     A.U. after   31 cycles

 The electronic state is 2-A.
 Alpha  occ. eigenvalues --  -19.02880 -18.98924 -14.25244 -14.20002 -10.17675
 Alpha  occ. eigenvalues --  -10.12378 -10.11842 -10.10604 -10.10367 -10.10305
 Alpha  occ. eigenvalues --  -10.09704 -10.07284 -10.07236 -10.07204 -10.07071
 Alpha  occ. eigenvalues --  -10.07068 -10.07024  -0.94626  -0.93914  -0.83767
 Alpha  occ. eigenvalues --   -0.79479  -0.74293  -0.67895  -0.66941  -0.65132
 Alpha  occ. eigenvalues --   -0.64103  -0.61529  -0.57054  -0.56733  -0.51942
 Alpha  occ. eigenvalues --   -0.51539  -0.49104  -0.47527  -0.44609  -0.41588
 Alpha  occ. eigenvalues --   -0.40364  -0.40257  -0.39286  -0.38256  -0.37570
 Alpha  occ. eigenvalues --   -0.36577  -0.35313  -0.34925  -0.34282  -0.33367
 Alpha  occ. eigenvalues --   -0.32973  -0.32191  -0.31105  -0.30663  -0.30111
 Alpha  occ. eigenvalues --   -0.29054  -0.28482  -0.28283  -0.27632  -0.27218
 Alpha  occ. eigenvalues --   -0.26834  -0.26386  -0.25767  -0.25066  -0.23213
 Alpha  occ. eigenvalues --   -0.22218  -0.21486  -0.20663  -0.17297  -0.16101
 Alpha  occ. eigenvalues --   -0.14891  -0.14552   0.03999
 Alpha virt. eigenvalues --    0.06152   0.06783   0.07318   0.08128   0.08490
 Alpha virt. eigenvalues --    0.08808   0.09367   0.09457   0.09989   0.10458
 Alpha virt. eigenvalues --    0.10968   0.11320   0.11777   0.12029   0.12336

  Beta  occ. eigenvalues --  -19.02880 -18.98915 -14.25242 -14.19965 -10.17663
  Beta  occ. eigenvalues --  -10.12358 -10.11839 -10.10586 -10.10307 -10.10300
  Beta  occ. eigenvalues --  -10.09706 -10.07264 -10.07226 -10.07199 -10.07069
  Beta  occ. eigenvalues --  -10.07050 -10.07005  -0.94611  -0.93907  -0.83749
  Beta  occ. eigenvalues --   -0.79424  -0.74268  -0.67870  -0.66915  -0.65107
  Beta  occ. eigenvalues --   -0.64070  -0.61454  -0.57015  -0.56691  -0.51910
  Beta  occ. eigenvalues --   -0.51507  -0.49068  -0.47492  -0.44558  -0.41556
  Beta  occ. eigenvalues --   -0.40337  -0.40234  -0.39243  -0.38216  -0.37545
  Beta  occ. eigenvalues --   -0.36551  -0.35288  -0.34898  -0.34260  -0.33329
  Beta  occ. eigenvalues --   -0.32936  -0.32161  -0.31066  -0.30621  -0.30085
  Beta  occ. eigenvalues --   -0.29030  -0.28453  -0.28257  -0.27603  -0.27189
  Beta  occ. eigenvalues --   -0.26805  -0.26368  -0.25746  -0.25047  -0.23196
  Beta  occ. eigenvalues --   -0.22193  -0.21474  -0.20640  -0.17284  -0.16086
  Beta  occ. eigenvalues --   -0.14861  -0.14524
  Beta virt. eigenvalues --    0.06200   0.06937   0.07287   0.07884   0.08603
  Beta virt. eigenvalues --    0.08717   0.09267   0.09548   0.09640   0.10280
  Beta virt. eigenvalues --    0.10930   0.11211   0.11488   0.12099   0.12332

 Mulliken charges and spin densities:
               1          2
     1  C    0.202796  -0.563137
     2  C   -0.399036   0.048886
     3  O   -0.091529   0.007016
     4  C   -0.163364  -0.212795
     5  C    0.150352  -0.309909
     6  N   -0.100502   0.186689
     7  C    1.359315  -1.718396
     8  C   -1.034713   0.008258
     9  O   -0.207129   0.009736
    10  C    0.200171   0.679644
    11  C   -0.336002  -0.135642
    12  C   -0.490571   0.248546
    13  C    0.640386  -1.307157
    14  C   -0.323952   0.269614
    15  C   -0.045628  -0.387315
    16  C    0.489551  -0.810455
    17  N   -0.263440  -0.065262
    18  H    0.088690   0.042076
    19  H   -0.210506   0.348760
    20  H   -0.014237   0.182517
    21  H    0.132539   0.041556
    22  H    0.110704   0.077573
    23  H    0.251003  -0.086334
    24  H   -0.239453   0.422326
    25  H   -0.196692   0.354258
    26  H    0.297577  -0.057608
    27  H   -0.743243   0.932600
    28  H   -0.162862   0.328114
    29  H   -0.640230   0.857174
    30  H    0.069431   0.080810
    31  H    0.231281  -0.027560
    32  H    0.151725  -0.030829
    33  H    0.043501   0.137596
    34  H   -0.210364   0.376558
    35  H    0.150972  -0.043080
    36  H    0.789632  -0.775548
    37  H   -0.695508   0.918517
    38  H   -0.023129   0.163460
    39  H   -0.038752   0.217803
    40  H    0.138282   0.053989
    41  H    0.095893   0.067907
    42  H    0.086323   0.170891
    43  H   -0.049280   0.298152
 Sum of Mulliken charges =  -1.00000   1.00000

 Dipole moment (field-independent basis, Debye):
    X=              0.3401    Y=              3.7504    Z=             -5.5718  Tot=              6.7251
 Quadrupole moment (field-independent basis, Debye-Ang):
   XX=           -163.5130   YY=           -164.4583   ZZ=           -162.1017
   XY=              1.6338   XZ=             -3.8442   YZ=              4.1488

 Summary of Natural Population Analysis:

                                       Natural Population
                Natural  -----------------------------------------------
    Atom  No    Charge         Core      Valence    Rydberg      Total
 -----------------------------------------------------------------------
      C    1   -0.30236      0.99966     2.29794    0.00476     3.30236
      C    2   -0.01854      0.99958     2.00691    0.01205     3.01854
      O    3   -0.30044      0.99989     3.29198    0.00857     4.30044
      C    4   -0.01586      0.99957     2.00300    0.01329     3.01586
      C    5   -0.10416      0.99958     2.09325    0.01132     3.10416
      N    6   -0.26494      0.99965     2.75104    0.01425     3.76494
      C    7   -0.18099      0.99961     2.17095    0.01043     3.18099
      C    8    0.35798      0.99957     1.61719    0.02527     2.64202
      O    9   -0.33999      0.99988     3.33535    0.00476     4.33999
      C   10   -0.07774      0.99951     2.06598    0.01225     3.07774
      C   11   -0.18607      0.99960     2.17779    0.00868     3.18607
      C   12   -0.19256      0.99962     2.18456    0.00838     3.19256
      C   13   -0.18646      0.99963     2.17887    0.00796     3.18646
      C   14   -0.19278      0.99962     2.18385    0.00931     3.19278
      C   15   -0.19708      0.99959     2.18533    0.01216     3.19708
      C   16   -0.08172      0.99958     2.06886    0.01328     3.08172
      N   17   -0.41727      0.99977     2.90851    0.00899     3.91727
      H   18    0.10155      0.00000     0.39752    0.00092     0.39845
      H   19    0.09862      0.00000     0.39988    0.00150     0.40138
      H   20    0.09835      0.00000     0.40068    0.00097     0.40165
      H   21    0.08440      0.00000     0.41457    0.00103     0.41560
      H   22    0.09194      0.00000     0.40623    0.00183     0.40806
      H   23    0.08236      0.00000     0.41615    0.00148     0.41764
      H   24    0.09189      0.00000     0.40688    0.00123     0.40811
      H   25    0.09796      0.00000     0.40066    0.00138     0.40204
      H   26    0.12023      0.00000     0.37845    0.00132     0.37977
      H   27    0.10552      0.00000     0.39209    0.00239     0.39448
      H   28    0.10130      0.00000     0.39616    0.00254     0.39870
      H   29    0.09931      0.00000     0.39830    0.00238     0.40069
      H   30    0.09297      0.00000     0.40593    0.00110     0.40703
      H   31    0.11268      0.00000     0.38634    0.00097     0.38732
      H   32    0.09833      0.00000     0.40009    0.00159     0.40167
      H   33    0.09619      0.00000     0.40300    0.00080     0.40381
      H   34    0.09815      0.00000     0.40092    0.00093     0.40185
      H   35    0.09103      0.00000     0.40785    0.00112     0.40897
      H   36    0.09405      0.00000     0.40308    0.00287     0.40595
      H   37    0.10167      0.00000     0.39696    0.00137     0.39833
      H   38    0.10712      0.00000     0.39091    0.00197     0.39288
      H   39    0.09766      0.00000     0.40089    0.00146     0.40234
      H   40    0.09644      0.00000     0.40249    0.00108     0.40356
      H   41    0.09082      0.00000     0.40819    0.00099     0.40918
      H   42    0.17450      0.00000     0.32328    0.00222     0.32550
      H   43    0.17593      0.00000     0.32165    0.00242     0.32407
 =======================================================================
   * Total *    0.00000     16.99392    49.78051    0.22557    67.00000

 Normal termination of Gaussian 16 at Sun Dec 13 22:17:22 2020.
