 Gaussian 16, Revision A.03,

 -----------------------------------------------------------
 # opt freq B3LYP/6-31G(d) empiricaldispersion=gd3bj scf=xqc
 -----------------------------------------------------------

 ------------------------------
 CID_73300839_JID_4383_neutraal
 ------------------------------
 Symbolic Z-matrix:
 Charge =  0 Multiplicity = 1

 SCF Done:  E(RB3LYP) =  -697.633174797     A.U. after   16 cycles
 SCF Done:  E(RB3LYP) =  -697.636602497     A.U. after   15 cycles
 SCF Done:  E(RB3LYP) =  -697.630516546     A.U. after   17 cycles
 SCF Done:  E(RB3LYP) =  -697.637733149     A.U. after   15 cycles
 SCF Done:  E(RB3LYP) =  -697.638738676     A.U. after   14 cycles
 SCF Done:  E(RB3LYP) =  -697.638840327     A.U. after   13 cycles
 SCF Done:  E(RB3LYP) =  -697.638895376     A.U. after   13 cycles
 SCF Done:  E(RB3LYP) =  -697.638913420     A.U. after   12 cycles
 SCF Done:  E(RB3LYP) =  -697.638923728     A.U. after   12 cycles
 SCF Done:  E(RB3LYP) =  -697.638931186     A.U. after   13 cycles
 SCF Done:  E(RB3LYP) =  -697.638935251     A.U. after   12 cycles
 SCF Done:  E(RB3LYP) =  -697.638936670     A.U. after   11 cycles
 Optimization completed.
    -- Stationary point found.
 Normal termination of Gaussian 16 at Thu Dec 10 09:22:10 2020.

 --------------------------------------------------------------------
 #N Geom=AllCheck Guess=TCheck SCRF=Check GenChk RB3LYP/6-31G(d) Freq
 --------------------------------------------------------------------

 Structure from the checkpoint file:  "JID_4383.chk"
 ------------------------------
 CID_73300839_JID_4383_neutraal
 ------------------------------
 Charge =  0 Multiplicity = 1

 SCF Done:  E(RB3LYP) =  -697.638936670     A.U. after    1 cycles

  Exact polarizability: 181.098   5.273 122.901   0.373  -2.688  46.213
 Approx polarizability: 317.073  18.026 211.587  -2.819  -7.347  74.774

                      1                      2                      3
                      A                      A                      A
 Frequencies --     31.1050                65.0434                83.2047
 Red. masses --      8.5054                 8.7106                 7.2105
 Frc consts  --      0.0048                 0.0217                 0.0294
 IR Inten    --      0.5090                 2.2675                 0.4175

                      4                      5                      6
                      A                      A                      A
 Frequencies --    120.6275               141.3686               194.3421
 Red. masses --     11.5487                 6.1730                 6.7332
 Frc consts  --      0.0990                 0.0727                 0.1498
 IR Inten    --      5.5204                 4.0892                 2.1055

                      7                      8                      9
                      A                      A                      A
 Frequencies --    229.2102               262.0759               308.5696
 Red. masses --      8.1643                 7.8070                 8.2955
 Frc consts  --      0.2527                 0.3159                 0.4654
 IR Inten    --      3.8979                 1.5353                 0.7360

                     10                     11                     12
                      A                      A                      A
 Frequencies --    372.4762               402.1252               406.6865
 Red. masses --      7.7280                 4.0176                 5.5084
 Frc consts  --      0.6317                 0.3828                 0.5368
 IR Inten    --      1.5632                10.9898                 8.4520

                     13                     14                     15
                      A                      A                      A
 Frequencies --    436.1527               464.9999               508.8827
 Red. masses --      3.5180                 1.7798                 8.2540
 Frc consts  --      0.3943                 0.2267                 1.2594
 IR Inten    --     14.0919                64.4475                 1.9214

                     16                     17                     18
                      A                      A                      A
 Frequencies --    564.6090               575.4707               623.8189
 Red. masses --      5.3071                 6.6443                 3.5244
 Frc consts  --      0.9968                 1.2964                 0.8081
 IR Inten    --     11.3491                 0.3582                31.9098

                     19                     20                     21
                      A                      A                      A
 Frequencies --    673.0616               703.5757               727.6295
 Red. masses --      6.9815                 6.2242                 4.9213
 Frc consts  --      1.8634                 1.8153                 1.5352
 IR Inten    --      1.8911                 3.5649                 7.6694

                     22                     23                     24
                      A                      A                      A
 Frequencies --    775.8706               805.5756               854.7562
 Red. masses --      6.8601                 7.7546                 2.2547
 Frc consts  --      2.4331                 2.9650                 0.9706
 IR Inten    --      9.7989                20.5117                44.5709

                     25                     26                     27
                      A                      A                      A
 Frequencies --    870.1716               908.0285               938.4322
 Red. masses --      1.6855                 1.6479                 3.2245
 Frc consts  --      0.7520                 0.8005                 1.6731
 IR Inten    --     18.0949                19.7861                 7.7622

                     28                     29                     30
                      A                      A                      A
 Frequencies --    940.2586               962.7260               999.7156
 Red. masses --      1.9527                 5.6286                 1.3720
 Frc consts  --      1.0171                 3.0736                 0.8079
 IR Inten    --     12.9588               165.2302                 7.5934

                     31                     32                     33
                      A                      A                      A
 Frequencies --   1101.2870              1180.0291              1229.7776
 Red. masses --      2.9045                 1.5877                 1.6606
 Frc consts  --      2.0755                 1.3025                 1.4797
 IR Inten    --      8.8812                 7.5831                 9.7676

                     34                     35                     36
                      A                      A                      A
 Frequencies --   1242.4590              1317.6826              1341.8548
 Red. masses --      8.5357                 1.5586                 5.4856
 Frc consts  --      7.7635                 1.5944                 5.8195
 IR Inten    --      5.9068                 1.4243                 5.2468

                     37                     38                     39
                      A                      A                      A
 Frequencies --   1376.8253              1396.4054              1416.0896
 Red. masses --      1.4299                 4.9287                 1.4209
 Frc consts  --      1.5970                 5.6624                 1.6788
 IR Inten    --    142.7812               121.6190                86.3315

                     40                     41                     42
                      A                      A                      A
 Frequencies --   1448.0240              1535.6084              1592.3374
 Red. masses --      3.2350                 2.7813                 6.4244
 Frc consts  --      3.9965                 3.8642                 9.5974
 IR Inten    --      7.2972                 6.2311                 6.4367

                     43                     44                     45
                      A                      A                      A
 Frequencies --   1636.1166              1676.1984              1714.7579
 Red. masses --     10.3641                 7.3174                 6.0050
 Frc consts  --     16.3460                12.1132                10.4032
 IR Inten    --    169.7044                62.4656                 0.3572

                     46                     47                     48
                      A                      A                      A
 Frequencies --   2357.4160              3226.4295              3230.4967
 Red. masses --     12.6780                 1.0917                 1.0890
 Frc consts  --     41.5120                 6.6959                 6.6959
 IR Inten    --     17.1386                 0.8895                 1.1480

                     49                     50                     51
                      A                      A                      A
 Frequencies --   3261.9059              3269.3546              3752.9962
 Red. masses --      1.0921                 1.0927                 1.0678
 Frc consts  --      6.8461                 6.8816                 8.8615
 IR Inten    --      6.4062                 0.4755               125.3052

 - Thermochemistry -
 -------------------
 Temperature   298.150 Kelvin.  Pressure   1.00000 Atm.
 Atom     1 has atomic number  6 and mass  12.00000

 Molecular mass:   191.03309 amu.
 Principal axes and moments of inertia in atomic units:
                           1         2         3
     Eigenvalues --  1878.896403415.061175176.31111
           X            0.99982   0.01909   0.00016
           Y           -0.01909   0.99982  -0.00100
           Z           -0.00018   0.00100   1.00000
 This molecule is an asymmetric top.
 Rotational symmetry number  1.
 Warning -- assumption of classical behavior for rotation
           may cause significant error
 Rotational temperatures (Kelvin)      0.04610     0.02536     0.01673
 Rotational constants (GHZ):           0.96053     0.52847     0.34865
 Zero-point vibrational energy     336477.4 (Joules/Mol)
                                   80.42002 (Kcal/Mol)
 Warning -- explicit consideration of  17 degrees of freedom as
           vibrations may cause significant error
 Vibrational temperatures:     44.75    93.58   119.71   173.56   203.40
          (Kelvin)            279.61   329.78   377.07   443.96   535.91
                              578.57   585.13   627.53   669.03   732.17
                              812.35   827.97   897.54   968.39  1012.29
                             1046.90  1116.30  1159.04  1229.80  1251.98
                             1306.45  1350.19  1352.82  1385.15  1438.37
                             1584.51  1697.80  1769.38  1787.62  1895.85
                             1930.63  1980.94  2009.12  2037.44  2083.38
                             2209.40  2291.02  2354.01  2411.68  2467.15
                             3391.80  4642.11  4647.96  4693.16  4703.87
                             5399.72

 Zero-point correction=                           0.128157 (Hartree/Particle)
 Thermal correction to Energy=                    0.139934
 Thermal correction to Enthalpy=                  0.140878
 Thermal correction to Gibbs Free Energy=         0.088831
 Sum of electronic and zero-point Energies=           -697.510779
 Sum of electronic and thermal Energies=              -697.499003
 Sum of electronic and thermal Enthalpies=            -697.498059
 Sum of electronic and thermal Free Energies=         -697.550106

                     E (Thermal)             CV                S
                      KCal/Mol        Cal/Mol-Kelvin    Cal/Mol-Kelvin
 Total                   87.810             43.228            109.543
 Electronic               0.000              0.000              0.000
 Translational            0.889              2.981             41.647
 Rotational               0.889              2.981             31.874
 Vibrational             86.032             37.267             36.022
 Vibration     1          0.594              1.983              5.758
 Vibration     2          0.597              1.971              4.298
 Vibration     3          0.600              1.961              3.814
 Vibration     4          0.609              1.932              3.090
 Vibration     5          0.615              1.912              2.785
 Vibration     6          0.635              1.848              2.186
 Vibration     7          0.652              1.796              1.885
 Vibration     8          0.669              1.742              1.648
 Vibration     9          0.698              1.657              1.370
 Vibration    10          0.744              1.529              1.070
 Vibration    11          0.768              1.466              0.955
 Vibration    12          0.771              1.456              0.938
 Vibration    13          0.797              1.391              0.839
 Vibration    14          0.822              1.328              0.752
 Vibration    15          0.864              1.230              0.636
 Vibration    16          0.920              1.108              0.515
 Vibration    17          0.932              1.084              0.494

 Optimization completed.
    -- Stationary point found.
 Normal termination of Gaussian 16 at Thu Dec 10 09:27:04 2020.

 ----------------------------------------------------------------------
 # B3LYP/6-311++G(d,p) empiricaldispersion=gd3bj scf=xqc pop=npa geom=c
 heck
 ----------------------------------------------------------------------

 --------------------------------------
 CID_73300839_JID_4383_Energie_neutraal
 --------------------------------------
 Structure from the checkpoint file:  "JID_4383.chk"
 Charge =  0 Multiplicity = 1

 SCF Done:  E(RB3LYP) =  -697.840527552     A.U. after   16 cycles
 Normal termination of Gaussian 16 at Thu Dec 10 09:29:09 2020.

 ----------------------------------------------------------------------
 # B3LYP/6-311++G(d,p) empiricaldispersion=gd3bj scf=xqc pop=npa geom=c
 heck
 ----------------------------------------------------------------------

 ------------------------------------
 CID_73300839_JID_4383_Energie_kation
 ------------------------------------
 Structure from the checkpoint file:  "JID_4383.chk"
 Charge =  1 Multiplicity = 2

 SCF Done:  E(UB3LYP) =  -697.489191174     A.U. after   29 cycles
 Normal termination of Gaussian 16 at Thu Dec 10 09:34:32 2020.
 Gaussian 16:  ES64L-G16RevA.03 25-Dec-2016

 ----------------------------------------------------------------------
 # B3LYP/6-311++G(d,p) empiricaldispersion=gd3bj scf=xqc pop=npa geom=c
 heck
 ----------------------------------------------------------------------

 -----------------------------------
 CID_73300839_JID_4383_Energie_anion
 -----------------------------------
 Structure from the checkpoint file:  "JID_4383.chk"
 Charge = -1 Multiplicity = 2

                         Standard orientation:
 ---------------------------------------------------------------------
 Center     Atomic      Atomic             Coordinates (Angstroms)
 Number     Number       Type             X           Y           Z
 ---------------------------------------------------------------------
      1          6           0        1.245216   -1.705760   -0.198814
      2          6           0       -0.132499   -1.591359   -0.313290
      3          6           0       -0.780971   -0.344543   -0.240773
      4          6           0        0.042801    0.784860   -0.055745
      5          6           0        1.425487    0.695073    0.048404
      6          6           0        2.036398   -0.560113   -0.015722
      7          6           0        3.458753   -0.673752    0.105417
      8          7           0        4.612819   -0.775240    0.202313
      9          7           0       -0.523852    2.141000    0.072729
     10          8           0       -1.706427    2.242901    0.396595
     11          8           0        0.229553    3.089302   -0.135272
     12          6           0       -2.236230   -0.245026   -0.473434
     13          7           0       -3.168221   -1.066758   -0.153747
     14          8           0       -2.726492   -2.166879    0.587319
     15          1           0        1.718707   -2.679768   -0.256274
     16          1           0       -0.733103   -2.476999   -0.465597
     17          1           0        2.007695    1.596844    0.183908
     18          1           0       -2.608482    0.622982   -1.005173
     19          1           0       -3.556832   -2.634957    0.768676
 ---------------------------------------------------------------------

 SCF Done:  E(UB3LYP) =  -697.907952009     A.U. after   25 cycles

 The electronic state is 2-A.
 Alpha  occ. eigenvalues --  -19.05585 -18.98561 -18.98429 -14.36971 -14.23952
 Alpha  occ. eigenvalues --  -14.19801 -10.09927 -10.09425 -10.09277 -10.08828
 Alpha  occ. eigenvalues --  -10.07712 -10.07100 -10.06672 -10.06379  -1.06602
 Alpha  occ. eigenvalues --   -0.97705  -0.89460  -0.79853  -0.76761  -0.74409
 Alpha  occ. eigenvalues --   -0.67769  -0.65642  -0.56985  -0.54839  -0.48779
 Alpha  occ. eigenvalues --   -0.47682  -0.42764  -0.41276  -0.39072  -0.37439
 Alpha  occ. eigenvalues --   -0.37360  -0.35927  -0.34677  -0.32911  -0.31418
 Alpha  occ. eigenvalues --   -0.30180  -0.28591  -0.28047  -0.26110  -0.25511
 Alpha  occ. eigenvalues --   -0.23767  -0.22510  -0.18112  -0.17133  -0.16450
 Alpha  occ. eigenvalues --   -0.16041  -0.15303  -0.13501  -0.13321  -0.00447
 Alpha virt. eigenvalues --    0.05325   0.07721   0.09386   0.11042   0.11158
 Alpha virt. eigenvalues --    0.11530   0.12567   0.12803   0.13809   0.14440
 Alpha virt. eigenvalues --    0.15148   0.15761   0.16449   0.17429   0.17862

  Beta  occ. eigenvalues --  -19.05548 -18.98184 -18.98055 -14.36576 -14.23688
  Beta  occ. eigenvalues --  -14.19731 -10.09932 -10.09303 -10.09215 -10.08879
  Beta  occ. eigenvalues --  -10.07738 -10.06798 -10.06737 -10.06090  -1.05863
  Beta  occ. eigenvalues --   -0.97523  -0.88764  -0.79734  -0.76430  -0.74156
  Beta  occ. eigenvalues --   -0.67189  -0.65329  -0.56123  -0.54580  -0.48546
  Beta  occ. eigenvalues --   -0.47556  -0.42338  -0.41006  -0.38159  -0.37102
  Beta  occ. eigenvalues --   -0.36101  -0.35617  -0.34196  -0.32654  -0.31293
  Beta  occ. eigenvalues --   -0.29588  -0.28059  -0.27793  -0.25969  -0.25392
  Beta  occ. eigenvalues --   -0.23087  -0.22450  -0.17446  -0.16308  -0.15292
  Beta  occ. eigenvalues --   -0.14778  -0.14358  -0.12895  -0.12328
  Beta virt. eigenvalues --    0.05385   0.06891   0.07723   0.09396   0.11196
  Beta virt. eigenvalues --    0.11628   0.12423   0.12898   0.13384   0.13888
  Beta virt. eigenvalues --    0.14484   0.15232   0.15780   0.16537   0.17484

 Mulliken charges and spin densities:
               1          2
     1  C   -0.923173   0.238797
     2  C   -0.226328  -0.080067
     3  C    2.067725   0.273206
     4  C   -1.478413   0.044573
     5  C   -0.699893  -0.010380
     6  C    2.170065   0.054655
     7  C   -1.616539  -0.020464
     8  N   -0.251026   0.036777
     9  N   -0.204272   0.133695
    10  O   -0.136098   0.135063
    11  O   -0.124135   0.134803
    12  C   -0.216258  -0.059373
    13  N   -0.259359   0.113668
    14  O   -0.122201   0.011239
    15  H    0.136711  -0.016986
    16  H    0.144471   0.006659
    17  H    0.231712   0.003022
    18  H    0.241660   0.001268
    19  H    0.265350  -0.000158
 Sum of Mulliken charges =  -1.00000   1.00000

 Dipole moment (field-independent basis, Debye):
    X=             -2.7356    Y=             -4.9073    Z=             -0.6435  Tot=              5.6550
 Quadrupole moment (field-independent basis, Debye-Ang):
   XX=           -131.0805   YY=           -104.6354   ZZ=            -84.5269
   XY=             11.7762   XZ=             -1.1840   YZ=             -1.5715

 Summary of Natural Population Analysis:

                                       Natural Population
                Natural  -----------------------------------------------
    Atom  No    Charge         Core      Valence    Rydberg      Total
 -----------------------------------------------------------------------
      C    1   -0.02254      0.99955     2.01503    0.00797     3.02254
      C    2   -0.10888      0.99954     2.10090    0.00843     3.10888
      C    3    0.02149      0.99946     1.96959    0.00947     2.97851
      C    4    0.07063      0.99937     1.91879    0.01121     2.92937
      C    5   -0.07728      0.99950     2.06901    0.00877     3.07728
      C    6   -0.09442      0.99942     2.08546    0.00953     3.09442
      C    7    0.15781      0.99963     1.82474    0.01782     2.84219
      N    8   -0.18844      0.99979     2.67755    0.01110     3.68844
      N    9    0.28014      0.99972     2.19218    0.02796     3.21986
      O   10   -0.18288      0.99990     3.17488    0.00810     4.18288
      O   11   -0.19151      0.99990     3.18356    0.00805     4.19151
      C   12    0.01736      0.99963     1.96511    0.01791     2.98264
      N   13   -0.05330      0.99964     2.53649    0.01717     3.55330
      O   14   -0.29005      0.99989     3.28119    0.00896     4.29005
      H   15    0.09625      0.00000     0.40283    0.00093     0.40375
      H   16    0.10951      0.00000     0.38938    0.00111     0.39049
      H   17    0.11998      0.00000     0.37878    0.00124     0.38002
      H   18    0.10760      0.00000     0.39088    0.00152     0.39240
      H   19    0.22853      0.00000     0.26876    0.00271     0.27147
 =======================================================================
   * Total *    0.00000     13.99495    34.82510    0.17995    49.00000

 Normal termination of Gaussian 16 at Thu Dec 10 09:39:10 2020.
