 Gaussian 16, Revision A.03,

 -----------------------------------------------------------
 # opt freq B3LYP/6-31G(d) empiricaldispersion=gd3bj scf=xqc
 -----------------------------------------------------------

 ------------------------------
 CID_21251736_JID_4181_neutraal
 ------------------------------
 Symbolic Z-matrix:
 Charge =  0 Multiplicity = 1

 SCF Done:  E(RB3LYP) =  -614.973299927     A.U. after   15 cycles
 SCF Done:  E(RB3LYP) =  -614.977466074     A.U. after   13 cycles
 SCF Done:  E(RB3LYP) =  -614.978037077     A.U. after   13 cycles
 SCF Done:  E(RB3LYP) =  -614.977647835     A.U. after   12 cycles
 SCF Done:  E(RB3LYP) =  -614.978520412     A.U. after   12 cycles
 SCF Done:  E(RB3LYP) =  -614.978603598     A.U. after   13 cycles
 SCF Done:  E(RB3LYP) =  -614.978660311     A.U. after   13 cycles
 SCF Done:  E(RB3LYP) =  -614.978768707     A.U. after   12 cycles
 SCF Done:  E(RB3LYP) =  -614.978872037     A.U. after   14 cycles
 SCF Done:  E(RB3LYP) =  -614.979076017     A.U. after   13 cycles
 SCF Done:  E(RB3LYP) =  -614.979382797     A.U. after   10 cycles
 SCF Done:  E(RB3LYP) =  -614.979376894     A.U. after   11 cycles
 SCF Done:  E(RB3LYP) =  -614.979384292     A.U. after   10 cycles
 SCF Done:  E(RB3LYP) =  -614.979384826     A.U. after   10 cycles
 SCF Done:  E(RB3LYP) =  -614.979384898     A.U. after    6 cycles
 SCF Done:  E(RB3LYP) =  -614.979385047     A.U. after    8 cycles
 Optimization completed.
    -- Stationary point found.
 Normal termination of Gaussian 16 at Thu Dec 10 09:23:19 2020.

 --------------------------------------------------------------------
 #N Geom=AllCheck Guess=TCheck SCRF=Check GenChk RB3LYP/6-31G(d) Freq
 --------------------------------------------------------------------

 Structure from the checkpoint file:  "JID_4181.chk"
 ------------------------------
 CID_21251736_JID_4181_neutraal
 ------------------------------
 Charge =  0 Multiplicity = 1

 SCF Done:  E(RB3LYP) =  -614.979385047     A.U. after    1 cycles

  Exact polarizability: 168.006 -10.223 130.051 -11.374  -5.979  78.718
 Approx polarizability: 225.488 -32.427 248.879 -25.734  -7.370 123.677

                      1                      2                      3
                      A                      A                      A
 Frequencies --     29.5638                48.7415                67.7808
 Red. masses --      4.8441                 4.8752                 4.4108
 Frc consts  --      0.0025                 0.0068                 0.0119
 IR Inten    --      1.0630                 2.2927                 3.7922

                      4                      5                      6
                      A                      A                      A
 Frequencies --     74.1358               132.0498               145.9889
 Red. masses --      5.4801                 4.8670                 2.8530
 Frc consts  --      0.0177                 0.0500                 0.0358
 IR Inten    --      2.7539                 8.5389                 2.2339

                      7                      8                      9
                      A                      A                      A
 Frequencies --    155.6631               192.4626               283.5494
 Red. masses --      1.2466                 4.3971                 4.5720
 Frc consts  --      0.0178                 0.0960                 0.2166
 IR Inten    --      0.4636                 1.0445                 4.2822

                     10                     11                     12
                      A                      A                      A
 Frequencies --    299.2022               350.4792               406.9990
 Red. masses --      4.9774                 3.3642                 2.7863
 Frc consts  --      0.2625                 0.2435                 0.2719
 IR Inten    --      0.0568                 0.5980                 1.7881

                     13                     14                     15
                      A                      A                      A
 Frequencies --    417.5972               453.4821               477.9448
 Red. masses --      3.0137                 3.2147                 4.2434
 Frc consts  --      0.3096                 0.3895                 0.5711
 IR Inten    --      0.1634                 0.3595                 8.2147

                     16                     17                     18
                      A                      A                      A
 Frequencies --    506.8231               553.6656               564.8237
 Red. masses --      3.4464                 2.7628                 3.7646
 Frc consts  --      0.5216                 0.4990                 0.7076
 IR Inten    --      1.1024                20.2320                14.0939

                     19                     20                     21
                      A                      A                      A
 Frequencies --    635.4440               640.3920               701.3326
 Red. masses --      5.5571                 4.1175                 1.9666
 Frc consts  --      1.3221                 0.9949                 0.5699
 IR Inten    --      5.2862                11.5495                 6.2599

                     22                     23                     24
                      A                      A                      A
 Frequencies --    710.7749               719.2915               761.5310
 Red. masses --      2.7374                 1.7928                 2.7249
 Frc consts  --      0.8148                 0.5465                 0.9311
 IR Inten    --     12.7773                13.8245                 1.9465

                     25                     26                     27
                      A                      A                      A
 Frequencies --    797.5197               845.5163               856.9884
 Red. masses --      1.8667                 2.9142                 1.3173
 Frc consts  --      0.6995                 1.2275                 0.5700
 IR Inten    --     21.1527                 5.1037                 2.0617

                     28                     29                     30
                      A                      A                      A
 Frequencies --    859.0592               919.0626               933.2740
 Red. masses --      2.5740                 1.7828                 1.4227
 Frc consts  --      1.1192                 0.8873                 0.7301
 IR Inten    --      4.3010                18.8168                 2.2977

                     31                     32                     33
                      A                      A                      A
 Frequencies --    967.5996               988.8279               995.0734
 Red. masses --      1.3484                 1.3573                 1.2561
 Frc consts  --      0.7438                 0.7819                 0.7328
 IR Inten    --      0.7394                31.2463                 0.4514

                     34                     35                     36
                      A                      A                      A
 Frequencies --   1008.1283              1022.6663              1059.1344
 Red. masses --      1.7840                 5.9120                 1.9629
 Frc consts  --      1.0683                 3.6430                 1.2973
 IR Inten    --     32.5494                 0.9124                10.6477

                     37                     38                     39
                      A                      A                      A
 Frequencies --   1061.4638              1091.3294              1119.5193
 Red. masses --      2.2550                 1.9384                 1.6052
 Frc consts  --      1.4970                 1.3602                 1.1853
 IR Inten    --      2.8658                70.7989                 9.5587

                     40                     41                     42
                      A                      A                      A
 Frequencies --   1150.8713              1193.7567              1195.4189
 Red. masses --      1.7226                 2.5165                 1.0970
 Frc consts  --      1.3443                 2.1129                 0.9236
 IR Inten    --      3.9826               155.3367                 0.7295

                     43                     44                     45
                      A                      A                      A
 Frequencies --   1221.9918              1261.1020              1274.3500
 Red. masses --      1.1393                 1.8739                 1.4834
 Frc consts  --      1.0023                 1.7559                 1.4194
 IR Inten    --      0.2044                26.0185                81.1100

                     46                     47                     48
                      A                      A                      A
 Frequencies --   1338.4510              1364.2875              1373.8094
 Red. masses --      2.9412                 4.3202                 1.7093
 Frc consts  --      3.1045                 4.7376                 1.9007
 IR Inten    --     17.6046                28.0151                 5.5251

                     49                     50                     51
                      A                      A                      A
 Frequencies --   1417.0286              1472.5082              1493.9328
 Red. masses --      1.3109                 1.3301                 1.2672
 Frc consts  --      1.5509                 1.6993                 1.6663
 IR Inten    --     46.4315                26.1760                 3.4939

                     52                     53                     54
                      A                      A                      A
 Frequencies --   1496.2280              1500.9634              1512.5459
 Red. masses --      1.5718                 1.0569                 1.1196
 Frc consts  --      2.0732                 1.4028                 1.5092
 IR Inten    --      6.3578                 6.8316                12.7438

                     55                     56                     57
                      A                      A                      A
 Frequencies --   1548.9727              1637.7658              1665.7857
 Red. masses --      2.2088                 5.0665                 5.5370
 Frc consts  --      3.1225                 8.0069                 9.0523
 IR Inten    --      8.1615                 2.9759                 0.2121

                     58                     59                     60
                      A                      A                      A
 Frequencies --   1682.9700              1760.3724              1817.1292
 Red. masses --      4.1445                11.9326                10.0680
 Frc consts  --      6.9163                21.7869                19.5869
 IR Inten    --     10.8184               193.8835                85.4737

                     61                     62                     63
                      A                      A                      A
 Frequencies --   3052.8359              3098.8193              3115.7671
 Red. masses --      1.0394                 1.0599                 1.0959
 Frc consts  --      5.7074                 5.9968                 6.2681
 IR Inten    --      2.5863                 2.2570                 3.4621

                     64                     65                     66
                      A                      A                      A
 Frequencies --   3167.6330              3172.7523              3182.7185
 Red. masses --      1.1049                 1.1040                 1.0688
 Frc consts  --      6.5317                 6.5475                 6.3786
 IR Inten    --      4.4540                 7.2291                11.0113

                     67                     68                     69
                      A                      A                      A
 Frequencies --   3184.3581              3192.5968              3201.9821
 Red. masses --      1.0775                 1.0877                 1.0922
 Frc consts  --      6.4372                 6.5323                 6.5979
 IR Inten    --      2.0087                 4.6438                27.7797

                     70                     71                     72
                      A                      A                      A
 Frequencies --   3211.3016              3228.6039              3270.5520
 Red. masses --      1.0967                 1.0933                 1.1161
 Frc consts  --      6.6636                 6.7148                 7.0341
 IR Inten    --     27.4911                 7.5486                 1.2377

 - Thermochemistry -
 -------------------
 Temperature   298.150 Kelvin.  Pressure   1.00000 Atm.
 Atom     1 has atomic number  6 and mass  12.00000

 Molecular mass:   188.08373 amu.
 Principal axes and moments of inertia in atomic units:
                           1         2         3
     Eigenvalues --  1047.262565127.540525611.03298
           X            0.99995   0.00969   0.00171
           Y           -0.00968   0.99994  -0.00443
           Z           -0.00176   0.00442   0.99999
 This molecule is an asymmetric top.
 Rotational symmetry number  1.
 Warning -- assumption of classical behavior for rotation
           may cause significant error
 Rotational temperatures (Kelvin)      0.08271     0.01689     0.01544
 Rotational constants (GHZ):           1.72329     0.35197     0.32164
 Zero-point vibrational energy     552166.6 (Joules/Mol)
                                  131.97098 (Kcal/Mol)
 Warning -- explicit consideration of  18 degrees of freedom as
           vibrations may cause significant error
 Vibrational temperatures:     42.54    70.13    97.52   106.66   189.99
          (Kelvin)            210.05   223.96   276.91   407.96   430.49
                              504.26   585.58   600.83   652.46   687.66
                              729.21   796.60   812.66   914.26   921.38
                             1009.06  1022.65  1034.90  1095.67  1147.45
                             1216.51  1233.02  1235.99  1322.33  1342.77
                             1392.16  1422.70  1431.69  1450.47  1471.39
                             1523.86  1527.21  1570.18  1610.74  1655.85
                             1717.55  1719.94  1758.17  1814.44  1833.51
                             1925.73  1962.91  1976.61  2038.79  2118.61
                             2149.44  2152.74  2159.55  2176.22  2228.63
                             2356.38  2396.69  2421.42  2532.78  2614.44
                             4392.35  4458.51  4482.89  4557.52  4564.88
                             4579.22  4581.58  4593.43  4606.94  4620.35
                             4645.24  4705.59

 Zero-point correction=                           0.210309 (Hartree/Particle)
 Thermal correction to Energy=                    0.223409
 Thermal correction to Enthalpy=                  0.224353
 Thermal correction to Gibbs Free Energy=         0.169258
 Sum of electronic and zero-point Energies=           -614.769076
 Sum of electronic and thermal Energies=              -614.755977
 Sum of electronic and thermal Enthalpies=            -614.755032
 Sum of electronic and thermal Free Energies=         -614.810127

                     E (Thermal)             CV                S
                      KCal/Mol        Cal/Mol-Kelvin    Cal/Mol-Kelvin
 Total                  140.191             49.091            115.956
 Electronic               0.000              0.000              0.000
 Translational            0.889              2.981             41.601
 Rotational               0.889              2.981             31.777
 Vibrational            138.414             43.130             42.577
 Vibration     1          0.593              1.984              5.858
 Vibration     2          0.595              1.978              4.868
 Vibration     3          0.598              1.970              4.217
 Vibration     4          0.599              1.966              4.040
 Vibration     5          0.612              1.921              2.916
 Vibration     6          0.617              1.907              2.724
 Vibration     7          0.620              1.896              2.602
 Vibration     8          0.634              1.850              2.204
 Vibration     9          0.682              1.704              1.512
 Vibration    10          0.692              1.675              1.421
 Vibration    11          0.727              1.574              1.164
 Vibration    12          0.772              1.455              0.937
 Vibration    13          0.781              1.432              0.900
 Vibration    14          0.812              1.353              0.785
 Vibration    15          0.834              1.299              0.716
 Vibration    16          0.862              1.235              0.641
 Vibration    17          0.909              1.132              0.537
 Vibration    18          0.921              1.107              0.514

 Optimization completed.
    -- Stationary point found.
 Normal termination of Gaussian 16 at Thu Dec 10 09:29:37 2020.

 ----------------------------------------------------------------------
 # B3LYP/6-311++G(d,p) empiricaldispersion=gd3bj scf=xqc pop=npa geom=c
 heck
 ----------------------------------------------------------------------

 --------------------------------------
 CID_21251736_JID_4181_Energie_neutraal
 --------------------------------------
 Structure from the checkpoint file:  "JID_4181.chk"
 Charge =  0 Multiplicity = 1

 SCF Done:  E(RB3LYP) =  -615.150059199     A.U. after   16 cycles
 Normal termination of Gaussian 16 at Thu Dec 10 09:32:02 2020.

 ----------------------------------------------------------------------
 # B3LYP/6-311++G(d,p) empiricaldispersion=gd3bj scf=xqc pop=npa geom=c
 heck
 ----------------------------------------------------------------------

 ------------------------------------
 CID_21251736_JID_4181_Energie_kation
 ------------------------------------
 Structure from the checkpoint file:  "JID_4181.chk"
 Charge =  1 Multiplicity = 2

 SCF Done:  E(UB3LYP) =  -614.836377691     A.U. after   31 cycles
 Normal termination of Gaussian 16 at Thu Dec 10 09:38:29 2020.
 Gaussian 16:  ES64L-G16RevA.03 25-Dec-2016

 ----------------------------------------------------------------------
 # B3LYP/6-311++G(d,p) empiricaldispersion=gd3bj scf=xqc pop=npa geom=c
 heck
 ----------------------------------------------------------------------

 -----------------------------------
 CID_21251736_JID_4181_Energie_anion
 -----------------------------------
 Structure from the checkpoint file:  "JID_4181.chk"
 Charge = -1 Multiplicity = 2

                         Standard orientation:
 ---------------------------------------------------------------------
 Center     Atomic      Atomic             Coordinates (Angstroms)
 Number     Number       Type             X           Y           Z
 ---------------------------------------------------------------------
      1          6           0        3.797842    0.766503    1.220501
      2          6           0        3.298799   -0.154857    0.131680
      3          8           0        3.578058   -1.336717    0.080892
      4          6           0        2.380278    0.489587   -0.914368
      5          6           0        0.962282    0.648123   -0.344969
      6          8           0        0.669367    1.676378    0.243927
      7          6           0       -0.008941   -0.482923   -0.489805
      8          6           0        0.429516   -1.706451   -0.841039
      9          6           0       -1.434117   -0.222843   -0.162323
     10          6           0       -2.181894   -1.180825    0.538703
     11          6           0       -3.533334   -0.975637    0.808565
     12          6           0       -4.160397    0.196527    0.385327
     13          6           0       -3.424215    1.162107   -0.303219
     14          6           0       -2.072561    0.958668   -0.570246
     15          1           0        4.259570    0.188270    2.022747
     16          1           0        2.974672    1.379377    1.604197
     17          1           0        4.538724    1.458677    0.799695
     18          1           0        2.729815    1.501255   -1.136867
     19          1           0        2.393458   -0.117364   -1.820011
     20          1           0       -0.262775   -2.538596   -0.926479
     21          1           0        1.477319   -1.925553   -1.012138
     22          1           0       -1.691266   -2.082595    0.893184
     23          1           0       -4.092987   -1.727125    1.358371
     24          1           0       -5.212986    0.360719    0.597944
     25          1           0       -3.903562    2.079673   -0.632497
     26          1           0       -1.508933    1.718102   -1.099539
 ---------------------------------------------------------------------

 SCF Done:  E(UB3LYP) =  -615.175181627     A.U. after   24 cycles

 The electronic state is 2-A.
 Alpha  occ. eigenvalues --  -18.97217 -18.92711 -10.11962 -10.07731 -10.05709
 Alpha  occ. eigenvalues --  -10.05510 -10.05456 -10.05235 -10.04872 -10.04688
 Alpha  occ. eigenvalues --  -10.04559 -10.03337 -10.02049  -9.99840  -0.90743
 Alpha  occ. eigenvalues --   -0.87077  -0.73536  -0.65950  -0.63911  -0.62544
 Alpha  occ. eigenvalues --   -0.60242  -0.57438  -0.49334  -0.48167  -0.45308
 Alpha  occ. eigenvalues --   -0.41445  -0.39674  -0.36148  -0.34432  -0.33333
 Alpha  occ. eigenvalues --   -0.32955  -0.32406  -0.31281  -0.30374  -0.29773
 Alpha  occ. eigenvalues --   -0.29036  -0.26565  -0.26184  -0.25224  -0.24028
 Alpha  occ. eigenvalues --   -0.23347  -0.22763  -0.22245  -0.22153  -0.20835
 Alpha  occ. eigenvalues --   -0.15179  -0.13552  -0.11940  -0.10424  -0.08751
 Alpha  occ. eigenvalues --    0.03517
 Alpha virt. eigenvalues --    0.07933   0.08780   0.09560   0.09819   0.10571
 Alpha virt. eigenvalues --    0.10774   0.11401   0.11660   0.12005   0.12725
 Alpha virt. eigenvalues --    0.13415   0.13479   0.14106   0.15006   0.15540

  Beta  occ. eigenvalues --  -18.97102 -18.92208 -10.11803 -10.07429 -10.05720
  Beta  occ. eigenvalues --  -10.05492 -10.05431 -10.05210 -10.04885 -10.04663
  Beta  occ. eigenvalues --  -10.04558 -10.03378 -10.02066  -9.99344  -0.90501
  Beta  occ. eigenvalues --   -0.86178  -0.73482  -0.65618  -0.63721  -0.62512
  Beta  occ. eigenvalues --   -0.59954  -0.57191  -0.48977  -0.48054  -0.44453
  Beta  occ. eigenvalues --   -0.41191  -0.39448  -0.35899  -0.34234  -0.33114
  Beta  occ. eigenvalues --   -0.32857  -0.32307  -0.31035  -0.30316  -0.29475
  Beta  occ. eigenvalues --   -0.28825  -0.26407  -0.25883  -0.25011  -0.23766
  Beta  occ. eigenvalues --   -0.23079  -0.22341  -0.21941  -0.20606  -0.20246
  Beta  occ. eigenvalues --   -0.14318  -0.13461  -0.11737  -0.08726  -0.08296
  Beta virt. eigenvalues --    0.07906   0.08740   0.09300   0.09580   0.10563
  Beta virt. eigenvalues --    0.10576   0.10805   0.11764   0.11918   0.12556
  Beta virt. eigenvalues --    0.13328   0.13452   0.13634   0.14198   0.15000

 Mulliken charges and spin densities:
               1          2
     1  C   -0.576839  -0.010908
     2  C    0.055372   0.087030
     3  O   -0.301198   0.046745
     4  C   -0.018945  -0.118201
     5  C   -0.449417   0.256424
     6  O   -0.346730   0.176290
     7  C    0.969041  -0.130702
     8  C   -1.202586   0.522844
     9  C    1.285114   0.047536
    10  C   -0.637243   0.019565
    11  C   -0.274468  -0.006835
    12  C   -0.417382   0.025044
    13  C   -0.269584   0.014365
    14  C   -0.416340  -0.053088
    15  H    0.125402   0.003977
    16  H    0.190591   0.002664
    17  H    0.109601   0.017377
    18  H    0.115979   0.045419
    19  H    0.121245   0.073653
    20  H    0.060232  -0.005782
    21  H    0.171221  -0.023801
    22  H    0.157765   0.010904
    23  H    0.121471   0.000790
    24  H    0.116852  -0.002186
    25  H    0.126902   0.000685
    26  H    0.183946   0.000190
 Sum of Mulliken charges =  -1.00000   1.00000

 Dipole moment (field-independent basis, Debye):
    X=             -2.5515    Y=              1.1629    Z=              0.3124  Tot=              2.8214
 Quadrupole moment (field-independent basis, Debye-Ang):
   XX=           -116.6959   YY=           -102.0276   ZZ=            -93.3811
   XY=              8.2082   XZ=             -0.7221   YZ=             -5.2026

 Summary of Natural Population Analysis:

                                       Natural Population
                Natural  -----------------------------------------------
    Atom  No    Charge         Core      Valence    Rydberg      Total
 -----------------------------------------------------------------------
      C    1   -0.33686      0.99962     2.33305    0.00419     3.33686
      C    2    0.31200      0.99969     1.66692    0.02139     2.68800
      O    3   -0.28737      0.99987     3.28015    0.00734     4.28737
      C    4   -0.27626      0.99956     2.26731    0.00939     3.27626
      C    5    0.30379      0.99961     1.67180    0.02480     2.69621
      O    6   -0.25566      0.99988     3.24978    0.00600     4.25566
      C    7   -0.09474      0.99945     2.08308    0.01222     3.09474
      C    8   -0.04942      0.99955     2.04283    0.00703     3.04942
      C    9   -0.00406      0.99949     1.99344    0.01113     3.00406
      C   10   -0.09460      0.99953     2.08705    0.00802     3.09460
      C   11   -0.11173      0.99957     2.10305    0.00911     3.11173
      C   12   -0.11291      0.99957     2.10375    0.00959     3.11291
      C   13   -0.10850      0.99957     2.09988    0.00905     3.10850
      C   14   -0.08525      0.99953     2.07780    0.00793     3.08525
      H   15    0.10102      0.00000     0.39783    0.00115     0.39898
      H   16    0.11962      0.00000     0.37948    0.00090     0.38038
      H   17    0.10298      0.00000     0.39617    0.00085     0.39702
      H   18    0.10782      0.00000     0.39039    0.00179     0.39218
      H   19    0.11101      0.00000     0.38713    0.00186     0.38899
      H   20    0.07818      0.00000     0.42085    0.00097     0.42182
      H   21    0.09634      0.00000     0.40252    0.00114     0.40366
      H   22    0.10109      0.00000     0.39760    0.00131     0.39891
      H   23    0.09254      0.00000     0.40649    0.00098     0.40746
      H   24    0.09132      0.00000     0.40766    0.00102     0.40868
      H   25    0.09277      0.00000     0.40626    0.00097     0.40723
      H   26    0.10688      0.00000     0.39192    0.00119     0.39312
 =======================================================================
   * Total *    0.00000     13.99449    35.84418    0.16133    50.00000

 Normal termination of Gaussian 16 at Thu Dec 10 09:43:30 2020.
