 Gaussian 16, Revision A.03,

 -----------------------------------------------------------
 # opt freq B3LYP/6-31G(d) empiricaldispersion=gd3bj scf=xqc
 -----------------------------------------------------------

 ------------------------------
 CID_63954392_JID_6811_neutraal
 ------------------------------
 Symbolic Z-matrix:
 Charge =  0 Multiplicity = 1

 SCF Done:  E(RB3LYP) =  -692.154904256     A.U. after   15 cycles
 SCF Done:  E(RB3LYP) =  -692.157007081     A.U. after   13 cycles
 SCF Done:  E(RB3LYP) =  -692.151982265     A.U. after   15 cycles
 SCF Done:  E(RB3LYP) =  -692.156940069     A.U. after   13 cycles
 SCF Done:  E(RB3LYP) =  -692.158589977     A.U. after   10 cycles
 SCF Done:  E(RB3LYP) =  -692.159049279     A.U. after   12 cycles
 SCF Done:  E(RB3LYP) =  -692.159990235     A.U. after   12 cycles
 SCF Done:  E(RB3LYP) =  -692.160439499     A.U. after   13 cycles
 SCF Done:  E(RB3LYP) =  -692.161103066     A.U. after   12 cycles
 SCF Done:  E(RB3LYP) =  -692.161434412     A.U. after   12 cycles
 SCF Done:  E(RB3LYP) =  -692.161759950     A.U. after    9 cycles
 SCF Done:  E(RB3LYP) =  -692.161761759     A.U. after    9 cycles
 SCF Done:  E(RB3LYP) =  -692.161761703     A.U. after    8 cycles
 SCF Done:  E(RB3LYP) =  -692.161761981     A.U. after    8 cycles
 SCF Done:  E(RB3LYP) =  -692.161762050     A.U. after    7 cycles
 Optimization completed.
    -- Stationary point found.
 Normal termination of Gaussian 16 at Fri Dec 11 00:54:29 2020.

 --------------------------------------------------------------------
 #N Geom=AllCheck Guess=TCheck SCRF=Check GenChk RB3LYP/6-31G(d) Freq
 --------------------------------------------------------------------

 Structure from the checkpoint file:  "JID_6811.chk"
 ------------------------------
 CID_63954392_JID_6811_neutraal
 ------------------------------
 Charge =  0 Multiplicity = 1

 SCF Done:  E(RB3LYP) =  -692.161762050     A.U. after    1 cycles

  Exact polarizability: 191.453  -8.235 123.927  -2.567   4.458 129.279
 Approx polarizability: 252.728 -13.439 164.669  -9.910  12.448 221.928

                      1                      2                      3
                      A                      A                      A
 Frequencies --     22.6149                39.5358                54.7398
 Red. masses --      4.5344                 3.3783                 1.0725
 Frc consts  --      0.0014                 0.0031                 0.0019
 IR Inten    --      1.2972                 0.1565                 0.1158

                      4                      5                      6
                      A                      A                      A
 Frequencies --     62.8655                81.3880               103.4117
 Red. masses --      2.5322                 3.1267                 3.7707
 Frc consts  --      0.0059                 0.0122                 0.0238
 IR Inten    --      0.1269                 0.8033                 0.9190

                      7                      8                      9
                      A                      A                      A
 Frequencies --    111.0523               121.4097               154.8475
 Red. masses --      2.8484                 3.7358                 4.2907
 Frc consts  --      0.0207                 0.0324                 0.0606
 IR Inten    --      1.7481                 2.4049                 0.0560

                     10                     11                     12
                      A                      A                      A
 Frequencies --    178.6704               202.5586               233.2196
 Red. masses --      3.1918                 2.1338                 4.1976
 Frc consts  --      0.0600                 0.0516                 0.1345
 IR Inten    --      2.4195                 3.9870                 2.4719

                     13                     14                     15
                      A                      A                      A
 Frequencies --    248.0288               286.2609               301.1157
 Red. masses --      3.5794                 1.7188                 2.4082
 Frc consts  --      0.1297                 0.0830                 0.1287
 IR Inten    --      4.3041                 2.3416                 1.4375

                     16                     17                     18
                      A                      A                      A
 Frequencies --    339.5328               352.8590               384.0525
 Red. masses --      1.9678                 3.0442                 3.4256
 Frc consts  --      0.1337                 0.2233                 0.2977
 IR Inten    --      2.3590                 1.9612                 1.2107

                     19                     20                     21
                      A                      A                      A
 Frequencies --    416.4299               465.0921               510.0008
 Red. masses --      2.6060                 2.1597                 4.9116
 Frc consts  --      0.2663                 0.2752                 0.7527
 IR Inten    --      4.0918                 2.9948                 5.3099

                     22                     23                     24
                      A                      A                      A
 Frequencies --    536.8252               575.3730               621.4070
 Red. masses --      2.4378                 3.7999                 4.0723
 Frc consts  --      0.4139                 0.7412                 0.9265
 IR Inten    --      1.1035                 6.6795                 5.2666

                     25                     26                     27
                      A                      A                      A
 Frequencies --    656.0510               685.6202               693.5461
 Red. masses --      2.6849                 2.7981                 1.5164
 Frc consts  --      0.6808                 0.7750                 0.4298
 IR Inten    --      8.3216                 2.5271                19.7480

                     28                     29                     30
                      A                      A                      A
 Frequencies --    769.4643               786.1801               810.0291
 Red. masses --      2.0961                 1.4881                 1.6712
 Frc consts  --      0.7312                 0.5419                 0.6461
 IR Inten    --     24.0077                20.4873                 5.9555

                     31                     32                     33
                      A                      A                      A
 Frequencies --    814.9400               822.0913               830.3901
 Red. masses --      1.3672                 1.3365                 1.2642
 Frc consts  --      0.5350                 0.5322                 0.5136
 IR Inten    --     14.2662                 8.4855                 2.7702

                     34                     35                     36
                      A                      A                      A
 Frequencies --    845.5222               857.8560               910.0811
 Red. masses --      1.7726                 2.2019                 1.8399
 Frc consts  --      0.7466                 0.9547                 0.8978
 IR Inten    --     17.8544                 7.3887                 6.5324

                     37                     38                     39
                      A                      A                      A
 Frequencies --    926.1706               950.9238               987.0380
 Red. masses --      4.6176                 2.4237                 2.4352
 Frc consts  --      2.3337                 1.2913                 1.3978
 IR Inten    --     58.6787                 0.1243                32.9162

                     40                     41                     42
                      A                      A                      A
 Frequencies --    999.5255              1025.1697              1038.4121
 Red. masses --      2.5759                 2.6129                 2.2075
 Frc consts  --      1.5162                 1.6179                 1.4025
 IR Inten    --      3.1638                 4.0466                 2.7378

                     43                     44                     45
                      A                      A                      A
 Frequencies --   1062.2885              1068.4205              1083.8325
 Red. masses --      1.9349                 1.9614                 1.3737
 Frc consts  --      1.2864                 1.3192                 0.9507
 IR Inten    --     18.0087                 4.4360                 5.1075

                     46                     47                     48
                      A                      A                      A
 Frequencies --   1095.4957              1103.8746              1120.9531
 Red. masses --      1.5102                 1.9580                 1.2243
 Frc consts  --      1.0678                 1.4057                 0.9064
 IR Inten    --     10.4735                15.2441                17.6615

                     49                     50                     51
                      A                      A                      A
 Frequencies --   1134.1029              1148.4049              1157.8499
 Red. masses --      1.4031                 1.5358                 1.3376
 Frc consts  --      1.0633                 1.1934                 1.0565
 IR Inten    --     22.8563                25.4563                19.5803

                     52                     53                     54
                      A                      A                      A
 Frequencies --   1160.9444              1193.9207              1207.2019
 Red. masses --      1.6705                 1.6980                 1.4037
 Frc consts  --      1.3265                 1.4260                 1.2053
 IR Inten    --     12.4432                13.4011                 4.1257

                     55                     56                     57
                      A                      A                      A
 Frequencies --   1222.8526              1232.0056              1255.4537
 Red. masses --      2.3477                 1.9104                 2.2470
 Frc consts  --      2.0684                 1.7085                 2.0867
 IR Inten    --    204.9890                11.0096                 7.7288

                     58                     59                     60
                      A                      A                      A
 Frequencies --   1268.0680              1308.6025              1352.5403
 Red. masses --      1.5295                 1.2272                 1.2477
 Frc consts  --      1.4491                 1.2382                 1.3448
 IR Inten    --      6.4432                 2.7425                 4.3757

                     61                     62                     63
                      A                      A                      A
 Frequencies --   1365.4420              1376.0729              1393.2295
 Red. masses --      1.6405                 1.9472                 1.8915
 Frc consts  --      1.8021                 2.1724                 2.1633
 IR Inten    --      9.9121                18.5492                11.8571

                     64                     65                     66
                      A                      A                      A
 Frequencies --   1411.8621              1420.8760              1422.8994
 Red. masses --      1.6567                 1.4489                 3.4049
 Frc consts  --      1.9457                 1.7234                 4.0617
 IR Inten    --     12.8726                 1.8973                27.1701

                     67                     68                     69
                      A                      A                      A
 Frequencies --   1439.2947              1442.8294              1450.5957
 Red. masses --      1.5436                 3.6706                 1.4255
 Frc consts  --      1.8840                 4.5021                 1.7673
 IR Inten    --     17.4654                 1.0948                17.9652

                     70                     71                     72
                      A                      A                      A
 Frequencies --   1474.6901              1483.6155              1492.5368
 Red. masses --      1.2719                 1.0937                 1.0891
 Frc consts  --      1.6297                 1.4184                 1.4295
 IR Inten    --     42.2603                10.8702                 3.2083

                     73                     74                     75
                      A                      A                      A
 Frequencies --   1504.8620              1515.2720              1523.7914
 Red. masses --      1.1014                 1.0447                 1.0455
 Frc consts  --      1.4696                 1.4133                 1.4303
 IR Inten    --      5.6121                10.2594                 2.9132

                     76                     77                     78
                      A                      A                      A
 Frequencies --   1534.7290              1535.2793              1536.1362
 Red. masses --      1.2363                 1.1751                 1.1715
 Frc consts  --      1.7157                 1.6319                 1.6287
 IR Inten    --      0.4623                10.1688                10.2147

                     79                     80                     81
                      A                      A                      A
 Frequencies --   1548.0089              1567.0157              1582.9796
 Red. masses --      1.0769                 2.6771                 4.1317
 Frc consts  --      1.5205                 3.8731                 6.0999
 IR Inten    --      1.3414                29.9884               164.6318

                     82                     83                     84
                      A                      A                      A
 Frequencies --   1749.0729              3000.5176              3020.1584
 Red. masses --     10.9653                 1.0653                 1.0580
 Frc consts  --     19.7645                 5.6508                 5.6859
 IR Inten    --    167.6392                49.7955                59.8121

                     85                     86                     87
                      A                      A                      A
 Frequencies --   3029.8340              3047.1487              3054.0506
 Red. masses --      1.0658                 1.0967                 1.0434
 Frc consts  --      5.7647                 5.9994                 5.7339
 IR Inten    --     11.9270                22.1362                34.1345

                     88                     89                     90
                      A                      A                      A
 Frequencies --   3057.7474              3060.8186              3087.1988
 Red. masses --      1.0963                 1.0365                 1.0946
 Frc consts  --      6.0394                 5.7211                 6.1464
 IR Inten    --     62.8926                54.5603                24.8465

                     91                     92                     93
                      A                      A                      A
 Frequencies --   3119.9474              3126.9526              3130.7972
 Red. masses --      1.1021                 1.1024                 1.1022
 Frc consts  --      6.3209                 6.3507                 6.3652
 IR Inten    --     33.5782                17.5548                40.3717

                     94                     95                     96
                      A                      A                      A
 Frequencies --   3136.2508              3145.1307              3162.0398
 Red. masses --      1.0533                 1.0574                 1.1038
 Frc consts  --      6.1040                 6.1627                 6.5024
 IR Inten    --     31.6572                15.1291                 8.4674

                     97                     98                     99
                      A                      A                      A
 Frequencies --   3175.7440              3212.0823              3229.8196
 Red. masses --      1.0897                 1.1176                 1.1146
 Frc consts  --      6.4749                 6.7937                 6.8503
 IR Inten    --      6.1359                 4.9310                20.1597

                    100                    101                    102
                      A                      A                      A
 Frequencies --   3261.3961              3280.2538              3290.6137
 Red. masses --      1.0892                 1.1031                 1.0973
 Frc consts  --      6.8260                 6.9934                 7.0005
 IR Inten    --      1.4467                 2.5517                 1.6642

 - Thermochemistry -
 -------------------
 Temperature   298.150 Kelvin.  Pressure   1.00000 Atm.
 Atom     1 has atomic number  6 and mass  12.00000

 Molecular mass:   220.15756 amu.
 Principal axes and moments of inertia in atomic units:
                           1         2         3
     Eigenvalues --  2201.860805594.757396735.19573
           X            0.99995  -0.00980   0.00333
           Y            0.00980   0.99995  -0.00127
           Z           -0.00331   0.00130   0.99999
 This molecule is an asymmetric top.
 Rotational symmetry number  1.
 Warning -- assumption of classical behavior for rotation
           may cause significant error
 Rotational temperatures (Kelvin)      0.03934     0.01548     0.01286
 Rotational constants (GHZ):           0.81964     0.32258     0.26796
 Zero-point vibrational energy     827748.3 (Joules/Mol)
                                  197.83659 (Kcal/Mol)
 Warning -- explicit consideration of  23 degrees of freedom as
           vibrations may cause significant error
 Vibrational temperatures:     32.54    56.88    78.76    90.45   117.10
          (Kelvin)            148.79   159.78   174.68   222.79   257.07
                              291.44   335.55   356.86   411.87   433.24
                              488.51   507.69   552.57   599.15   669.16
                              733.78   772.37   827.83   894.07   943.91
                              986.45   997.86  1107.09  1131.14  1165.45
                             1172.52  1182.81  1194.75  1216.52  1234.26
                             1309.40  1332.55  1368.17  1420.13  1438.09
                             1474.99  1494.04  1528.40  1537.22  1559.39
                             1576.17  1588.23  1612.80  1631.72  1652.30
                             1665.89  1670.34  1717.79  1736.89  1759.41
                             1772.58  1806.32  1824.47  1882.79  1946.00
                             1964.57  1979.86  2004.55  2031.35  2044.32
                             2047.23  2070.82  2075.91  2087.08  2121.75
                             2134.59  2147.43  2165.16  2180.14  2192.40
                             2208.13  2208.92  2210.16  2227.24  2254.59
                             2277.55  2516.53  4317.08  4345.33  4359.26
                             4384.17  4394.10  4399.42  4403.84  4441.79
                             4488.91  4498.99  4504.52  4512.37  4525.14
                             4549.47  4569.19  4621.47  4646.99  4692.42
                             4719.55  4734.46

 Zero-point correction=                           0.315273 (Hartree/Particle)
 Thermal correction to Energy=                    0.332088
 Thermal correction to Enthalpy=                  0.333032
 Thermal correction to Gibbs Free Energy=         0.269234
 Sum of electronic and zero-point Energies=           -691.846489
 Sum of electronic and thermal Energies=              -691.829674
 Sum of electronic and thermal Enthalpies=            -691.828730
 Sum of electronic and thermal Free Energies=         -691.892528

                     E (Thermal)             CV                S
                      KCal/Mol        Cal/Mol-Kelvin    Cal/Mol-Kelvin
 Total                  208.388             62.395            134.275
 Electronic               0.000              0.000              0.000
 Translational            0.889              2.981             42.070
 Rotational               0.889              2.981             32.784
 Vibrational            206.611             56.433             59.420
 Vibration     1          0.593              1.985              6.390
 Vibration     2          0.594              1.981              5.282
 Vibration     3          0.596              1.976              4.638
 Vibration     4          0.597              1.972              4.365
 Vibration     5          0.600              1.962              3.857
 Vibration     6          0.605              1.946              3.389
 Vibration     7          0.607              1.940              3.250
 Vibration     8          0.609              1.931              3.078
 Vibration     9          0.620              1.897              2.612
 Vibration    10          0.629              1.869              2.342
 Vibration    11          0.639              1.836              2.110
 Vibration    12          0.654              1.790              1.854
 Vibration    13          0.662              1.766              1.745
 Vibration    14          0.684              1.699              1.496
 Vibration    15          0.693              1.672              1.411
 Vibration    16          0.719              1.596              1.214
 Vibration    17          0.729              1.569              1.153
 Vibration    18          0.753              1.504              1.023
 Vibration    19          0.780              1.435              0.904
 Vibration    20          0.823              1.327              0.751
 Vibration    21          0.865              1.228              0.634
 Vibration    22          0.892              1.169              0.572
 Vibration    23          0.932              1.085              0.494

                           ! Non-Optimized Parameters !
 Normal termination of Gaussian 16 at Fri Dec 11 01:07:02 2020.

 ----------------------------------------------------------------------
 # B3LYP/6-311++G(d,p) empiricaldispersion=gd3bj scf=xqc pop=npa geom=c
 heck
 ----------------------------------------------------------------------

 --------------------------------------
 CID_63954392_JID_6811_Energie_neutraal
 --------------------------------------
 Structure from the checkpoint file:  "JID_6811.chk"
 Charge =  0 Multiplicity = 1

 SCF Done:  E(RB3LYP) =  -692.351161081     A.U. after   15 cycles
 Normal termination of Gaussian 16 at Fri Dec 11 01:12:32 2020.

 ----------------------------------------------------------------------
 # B3LYP/6-311++G(d,p) empiricaldispersion=gd3bj scf=xqc pop=npa geom=c
 heck
 ----------------------------------------------------------------------

 ------------------------------------
 CID_63954392_JID_6811_Energie_kation
 ------------------------------------
 Structure from the checkpoint file:  "JID_6811.chk"
 Charge =  1 Multiplicity = 2

 SCF Done:  E(UB3LYP) =  -692.091485454     A.U. after   24 cycles
 Normal termination of Gaussian 16 at Fri Dec 11 01:24:13 2020.
 Gaussian 16:  ES64L-G16RevA.03 25-Dec-2016

 ----------------------------------------------------------------------
 # B3LYP/6-311++G(d,p) empiricaldispersion=gd3bj scf=xqc pop=npa geom=c
 heck
 ----------------------------------------------------------------------

 -----------------------------------
 CID_63954392_JID_6811_Energie_anion
 -----------------------------------
 Structure from the checkpoint file:  "JID_6811.chk"
 Charge = -1 Multiplicity = 2

                         Standard orientation:
 ---------------------------------------------------------------------
 Center     Atomic      Atomic             Coordinates (Angstroms)
 Number     Number       Type             X           Y           Z
 ---------------------------------------------------------------------
      1          6           0        3.012166   -2.706307   -0.211894
      2          6           0        3.137408   -1.194154   -0.370997
      3          7           0        2.411256   -0.448478    0.662192
      4          6           0        2.615929    0.993927    0.601465
      5          6           0        1.857135    1.760641   -0.471493
      6          6           0        0.508375    2.363602   -0.162295
      7          6           0        1.712631    3.255486   -0.338867
      8          6           0        1.042562   -0.834745    0.945468
      9          6           0        0.018168   -0.748869   -0.195043
     10          8           0        0.348048   -0.948258   -1.360972
     11          6           0       -1.382049   -0.486205    0.162802
     12          6           0       -2.410402   -0.450730   -0.771100
     13          7           0       -3.575422   -0.165228   -0.125520
     14          6           0       -3.322951   -0.020752    1.228214
     15          6           0       -1.978803   -0.210740    1.437810
     16          6           0       -4.889510   -0.097656   -0.739545
     17          1           0        3.257528   -3.016738    0.810212
     18          1           0        3.702245   -3.208727   -0.898229
     19          1           0        2.001462   -3.048430   -0.454820
     20          1           0        4.193885   -0.911397   -0.264418
     21          1           0        2.826448   -0.920247   -1.388370
     22          1           0        2.349174    1.419273    1.581620
     23          1           0        3.694022    1.158759    0.473351
     24          1           0        1.978483    1.373017   -1.479706
     25          1           0       -0.251535    2.347429   -0.937485
     26          1           0        0.111002    2.238250    0.842194
     27          1           0        2.128683    3.727005    0.549159
     28          1           0        1.781036    3.865808   -1.235091
     29          1           0        1.022426   -1.877986    1.292436
     30          1           0        0.700002   -0.230628    1.792887
     31          1           0       -2.369670   -0.607168   -1.838548
     32          1           0       -4.126339    0.207569    1.913833
     33          1           0       -1.478435   -0.151945    2.393791
     34          1           0       -5.459054   -1.015958   -0.558200
     35          1           0       -5.446202    0.751949   -0.334419
     36          1           0       -4.774335    0.041189   -1.816272
 ---------------------------------------------------------------------

 SCF Done:  E(UB3LYP) =  -692.336992639     A.U. after   33 cycles
 SCF Done:  E(UB3LYP) =  -692.336992639     a.u. after    2 cycles

 The electronic state is 2-A.
 Alpha  occ. eigenvalues --  -18.93161 -14.24139 -14.17975 -10.11282 -10.07732
 Alpha  occ. eigenvalues --  -10.07709 -10.07359 -10.07328 -10.06354 -10.05450
 Alpha  occ. eigenvalues --  -10.05097 -10.05069 -10.04996 -10.04481 -10.04093
 Alpha  occ. eigenvalues --  -10.02371  -0.87254  -0.86589  -0.79957  -0.73414
 Alpha  occ. eigenvalues --   -0.69054  -0.64030  -0.61194  -0.60378  -0.58220
 Alpha  occ. eigenvalues --   -0.54495  -0.49339  -0.47973  -0.46813  -0.44870
 Alpha  occ. eigenvalues --   -0.43092  -0.42179  -0.38192  -0.37369  -0.36632
 Alpha  occ. eigenvalues --   -0.36089  -0.35583  -0.33229  -0.33142  -0.31801
 Alpha  occ. eigenvalues --   -0.30786  -0.29802  -0.29047  -0.28234  -0.27536
 Alpha  occ. eigenvalues --   -0.26673  -0.25872  -0.25320  -0.24664  -0.24149
 Alpha  occ. eigenvalues --   -0.24005  -0.23601  -0.22830  -0.21115  -0.17691
 Alpha  occ. eigenvalues --   -0.16197  -0.12343  -0.11685  -0.09705  -0.07071
 Alpha  occ. eigenvalues --    0.05648
 Alpha virt. eigenvalues --    0.06385   0.07692   0.08420   0.08677   0.09218
 Alpha virt. eigenvalues --    0.09645   0.09745   0.10427   0.10895   0.11706
 Alpha virt. eigenvalues --    0.11955   0.12363   0.12944   0.13477   0.13904

  Beta  occ. eigenvalues --  -18.92863 -14.24012 -14.17962 -10.11280 -10.07703
  Beta  occ. eigenvalues --  -10.07407 -10.07395 -10.07327 -10.06382 -10.05185
  Beta  occ. eigenvalues --  -10.05079 -10.05051 -10.04991 -10.04477 -10.04071
  Beta  occ. eigenvalues --  -10.02390  -0.86845  -0.86178  -0.79918  -0.73384
  Beta  occ. eigenvalues --   -0.68949  -0.64007  -0.60969  -0.60158  -0.58160
  Beta  occ. eigenvalues --   -0.54434  -0.48998  -0.47927  -0.46710  -0.44801
  Beta  occ. eigenvalues --   -0.42938  -0.42046  -0.38055  -0.37232  -0.36491
  Beta  occ. eigenvalues --   -0.35841  -0.35505  -0.33187  -0.33057  -0.31675
  Beta  occ. eigenvalues --   -0.30693  -0.29718  -0.28883  -0.28194  -0.27059
  Beta  occ. eigenvalues --   -0.26446  -0.25626  -0.25248  -0.24619  -0.24070
  Beta  occ. eigenvalues --   -0.23911  -0.23533  -0.22737  -0.19866  -0.17653
  Beta  occ. eigenvalues --   -0.16045  -0.11829  -0.11523  -0.08803  -0.06917
  Beta virt. eigenvalues --    0.06489   0.07790   0.08372   0.08663   0.09273
  Beta virt. eigenvalues --    0.09662   0.09842   0.10369   0.10865   0.11489
  Beta virt. eigenvalues --    0.11797   0.12108   0.12344   0.12936   0.13524

 Mulliken charges and spin densities:
               1          2
     1  C   -0.410066  -0.076660
     2  C   -0.195688   0.029433
     3  N    0.329654   0.003745
     4  C   -0.262657  -0.564688
     5  C   -0.750660   1.208971
     6  C   -0.438374   0.060466
     7  C    1.077904  -1.658668
     8  C   -0.555596  -0.053207
     9  C   -0.437354   0.165401
    10  O   -0.325436   0.120721
    11  C    0.079009  -0.189166
    12  C   -0.141884   0.487410
    13  N    0.217420  -0.014129
    14  C   -0.744225   0.023948
    15  C    0.404791  -0.028534
    16  C   -0.126656  -0.166642
    17  H    0.108386   0.021619
    18  H    0.105216   0.006100
    19  H    0.156800   0.025956
    20  H    0.087605   0.006140
    21  H    0.140961   0.002474
    22  H    0.046803   0.089967
    23  H    0.054178   0.076816
    24  H    0.140153   0.106639
    25  H    0.016916   0.156349
    26  H    0.104372   0.056048
    27  H   -0.128623   0.234821
    28  H   -0.306087   0.448376
    29  H    0.135858   0.042588
    30  H    0.119960   0.028034
    31  H    0.175598  -0.019220
    32  H    0.064717   0.048100
    33  H    0.104455   0.024605
    34  H   -0.020428   0.189529
    35  H    0.077062   0.060605
    36  H    0.095914   0.046056
 Sum of Mulliken charges =  -1.00000   1.00000

 Dipole moment (field-independent basis, Debye):
    X=             -0.9635    Y=             -2.3996    Z=              2.1629  Tot=              3.3712
 Quadrupole moment (field-independent basis, Debye-Ang):
   XX=           -134.0462   YY=           -143.9434   ZZ=           -118.7298
   XY=             -9.7231   XZ=              0.1491   YZ=              1.6388

 Summary of Natural Population Analysis:

                                       Natural Population
                Natural  -----------------------------------------------
    Atom  No    Charge         Core      Valence    Rydberg      Total
 -----------------------------------------------------------------------
      C    1   -0.29094      0.99967     2.28750    0.00377     3.29094
      C    2   -0.08109      0.99963     2.07135    0.01012     3.08109
      N    3   -0.28059      0.99972     2.76703    0.01384     3.78059
      C    4   -0.07758      0.99959     2.06465    0.01334     3.07758
      C    5   -0.12804      0.99958     2.11749    0.01097     3.12804
      C    6   -0.19514      0.99961     2.18517    0.01036     3.19514
      C    7   -0.20280      0.99962     2.19557    0.00762     3.20280
      C    8   -0.12413      0.99958     2.11222    0.01233     3.12413
      C    9    0.30582      0.99959     1.67310    0.02148     2.69418
      O   10   -0.28968      0.99988     3.28438    0.00542     4.28968
      C   11   -0.11559      0.99949     2.10446    0.01164     3.11559
      C   12    0.07066      0.99953     1.91660    0.01321     2.92934
      N   13   -0.18814      0.99965     2.68030    0.00820     3.68814
      C   14   -0.04756      0.99957     2.03487    0.01311     3.04756
      C   15   -0.12835      0.99954     2.11992    0.00889     3.12835
      C   16   -0.16800      0.99965     2.16198    0.00636     3.16800
      H   17    0.09288      0.00000     0.40597    0.00115     0.40712
      H   18    0.09417      0.00000     0.40513    0.00070     0.40583
      H   19    0.10540      0.00000     0.39318    0.00142     0.39460
      H   20    0.08160      0.00000     0.41726    0.00114     0.41840
      H   21    0.09457      0.00000     0.40415    0.00128     0.40543
      H   22    0.08895      0.00000     0.40989    0.00116     0.41105
      H   23    0.09080      0.00000     0.40803    0.00117     0.40920
      H   24    0.10896      0.00000     0.38995    0.00109     0.39104
      H   25    0.10859      0.00000     0.39029    0.00112     0.39141
      H   26    0.10029      0.00000     0.39832    0.00139     0.39971
      H   27    0.09546      0.00000     0.40333    0.00121     0.40454
      H   28    0.10090      0.00000     0.39772    0.00138     0.39910
      H   29    0.10260      0.00000     0.39660    0.00081     0.39740
      H   30    0.09545      0.00000     0.40355    0.00100     0.40455
      H   31    0.10210      0.00000     0.39712    0.00078     0.39790
      H   32    0.09236      0.00000     0.40657    0.00107     0.40764
      H   33    0.10052      0.00000     0.39855    0.00093     0.39948
      H   34    0.09228      0.00000     0.40636    0.00136     0.40772
      H   35    0.09322      0.00000     0.40572    0.00107     0.40678
      H   36    0.10005      0.00000     0.39933    0.00061     0.39995
 =======================================================================
   * Total *    0.00000     15.99391    43.81362    0.19247    60.00000

 Normal termination of Gaussian 16 at Fri Dec 11 02:09:18 2020.
