 Gaussian 16, Revision A.03,

 -----------------------------------------------------------
 # opt freq B3LYP/6-31G(d) empiricaldispersion=gd3bj scf=xqc
 -----------------------------------------------------------

 -------------------------------
 CID_107649361_JID_2762_neutraal
 -------------------------------
 Symbolic Z-matrix:
 Charge =  0 Multiplicity = 1

 SCF Done:  E(RB3LYP) =  -912.223363194     A.U. after   16 cycles
 SCF Done:  E(RB3LYP) =  -912.228070919     A.U. after   13 cycles
 SCF Done:  E(RB3LYP) =  -912.229860402     A.U. after   13 cycles
 SCF Done:  E(RB3LYP) =  -912.231076428     A.U. after   13 cycles
 SCF Done:  E(RB3LYP) =  -912.231742908     A.U. after   14 cycles
 SCF Done:  E(RB3LYP) =  -912.231266176     A.U. after   14 cycles
 SCF Done:  E(RB3LYP) =  -912.231951768     A.U. after   12 cycles
 SCF Done:  E(RB3LYP) =  -912.232049652     A.U. after   12 cycles
 SCF Done:  E(RB3LYP) =  -912.232079751     A.U. after   10 cycles
 SCF Done:  E(RB3LYP) =  -912.232084270     A.U. after    9 cycles
 SCF Done:  E(RB3LYP) =  -912.232085353     A.U. after    9 cycles
 SCF Done:  E(RB3LYP) =  -912.232085704     A.U. after    8 cycles
 SCF Done:  E(RB3LYP) =  -912.232085824     A.U. after    8 cycles
 Optimization completed.
    -- Stationary point found.
 Normal termination of Gaussian 16 at Wed Dec  9 17:54:46 2020.

 --------------------------------------------------------------------
 #N Geom=AllCheck Guess=TCheck SCRF=Check GenChk RB3LYP/6-31G(d) Freq
 --------------------------------------------------------------------

 Structure from the checkpoint file:  "JID_2762.chk"
 -------------------------------
 CID_107649361_JID_2762_neutraal
 -------------------------------
 Charge =  0 Multiplicity = 1

 SCF Done:  E(RB3LYP) =  -912.232085824     A.U. after    1 cycles

  Exact polarizability: 149.133   1.442 109.098  -2.266  10.698  81.685
 Approx polarizability: 219.645  -9.213 198.575  -6.167  30.201 126.558

                      1                      2                      3
                      A                      A                      A
 Frequencies --     41.0547                47.7839                95.6625
 Red. masses --      6.0512                 4.5323                 4.6892
 Frc consts  --      0.0060                 0.0061                 0.0253
 IR Inten    --      4.0153                 1.2606                 4.2678

                      4                      5                      6
                      A                      A                      A
 Frequencies --    145.7824               165.0145               208.8477
 Red. masses --      2.7485                 3.9888                 3.4152
 Frc consts  --      0.0344                 0.0640                 0.0878
 IR Inten    --      4.4534                 0.4092                 4.6106

                      7                      8                      9
                      A                      A                      A
 Frequencies --    223.9722               254.6682               259.6123
 Red. masses --      1.1601                 1.1920                 2.4825
 Frc consts  --      0.0343                 0.0455                 0.0986
 IR Inten    --      0.6471                 1.0096                 5.9594

                     10                     11                     12
                      A                      A                      A
 Frequencies --    267.7830               283.3403               340.7100
 Red. masses --      2.8666                 4.2345                 2.9413
 Frc consts  --      0.1211                 0.2003                 0.2012
 IR Inten    --      2.0671                 6.6131                21.6253

                     13                     14                     15
                      A                      A                      A
 Frequencies --    353.2484               399.5704               425.1449
 Red. masses --      3.6991                 2.7467                 2.5480
 Frc consts  --      0.2720                 0.2584                 0.2713
 IR Inten    --     20.2570                29.5223                60.0260

                     16                     17                     18
                      A                      A                      A
 Frequencies --    454.7940               478.1346               548.7611
 Red. masses --      2.4228                 1.7411                 3.1998
 Frc consts  --      0.2953                 0.2345                 0.5677
 IR Inten    --      3.1878               240.6202                 3.1583

                     19                     20                     21
                      A                      A                      A
 Frequencies --    567.3605               648.3136               658.0924
 Red. masses --      7.8268                 4.4328                 7.5250
 Frc consts  --      1.4844                 1.0977                 1.9201
 IR Inten    --     12.2339                 0.4266                 7.9313

                     22                     23                     24
                      A                      A                      A
 Frequencies --    709.7634               759.9511               773.9187
 Red. masses --      1.3903                 3.1694                 1.3901
 Frc consts  --      0.4127                 1.0785                 0.4906
 IR Inten    --     39.4320                 1.8274                29.0265

                     25                     26                     27
                      A                      A                      A
 Frequencies --    834.5797               874.9508               906.3469
 Red. masses --      3.2349                 8.4273                 2.0976
 Frc consts  --      1.3275                 3.8011                 1.0152
 IR Inten    --      3.9279                40.9689                 4.7547

                     28                     29                     30
                      A                      A                      A
 Frequencies --    944.5023               954.7737               965.7269
 Red. masses --      1.6915                 1.4602                 1.4239
 Frc consts  --      0.8891                 0.7843                 0.7824
 IR Inten    --      5.5674                 3.0223                 1.6169

                     31                     32                     33
                      A                      A                      A
 Frequencies --   1037.7590              1041.1573              1087.8360
 Red. masses --      1.6137                 1.6280                 3.8847
 Frc consts  --      1.0239                 1.0398                 2.7085
 IR Inten    --      9.6327                 2.9501                47.9054

                     34                     35                     36
                      A                      A                      A
 Frequencies --   1100.6900              1157.8528              1201.5207
 Red. masses --      4.1132                 2.1837                 1.7503
 Frc consts  --      2.9360                 1.7248                 1.4887
 IR Inten    --     56.4276                 6.2789                18.0916

                     37                     38                     39
                      A                      A                      A
 Frequencies --   1207.2441              1231.2273              1244.9460
 Red. masses --      1.7561                 1.9845                 2.5450
 Frc consts  --      1.5080                 1.7725                 2.3240
 IR Inten    --      7.3480                 0.3747                48.7123

                     40                     41                     42
                      A                      A                      A
 Frequencies --   1316.4170              1341.8884              1354.8846
 Red. masses --      1.9043                 1.6177                 2.1897
 Frc consts  --      1.9443                 1.7163                 2.3683
 IR Inten    --     24.1432                13.6365                 1.7485

                     43                     44                     45
                      A                      A                      A
 Frequencies --   1391.8469              1414.1232              1430.5460
 Red. masses --      1.3140                 1.3788                 1.2955
 Frc consts  --      1.4997                 1.6245                 1.5621
 IR Inten    --      2.3514                25.8968                23.0252

                     46                     47                     48
                      A                      A                      A
 Frequencies --   1443.6075              1450.8864              1468.0220
 Red. masses --      2.1144                 2.0400                 1.2252
 Frc consts  --      2.5962                 2.5301                 1.5556
 IR Inten    --    195.7431                54.9174                34.2692

                     49                     50                     51
                      A                      A                      A
 Frequencies --   1511.6600              1514.1710              1521.6249
 Red. masses --      1.0668                 1.2086                 1.0931
 Frc consts  --      1.4364                 1.6326                 1.4912
 IR Inten    --      1.5919                34.6051                 0.0812

                     52                     53                     54
                      A                      A                      A
 Frequencies --   1531.6558              1537.2095              1541.9988
 Red. masses --      1.0700                 1.1049                 1.1884
 Frc consts  --      1.4790                 1.5384                 1.6649
 IR Inten    --      5.1663                35.5655                84.1627

                     55                     56                     57
                      A                      A                      A
 Frequencies --   1555.7235              1557.6943              2985.1828
 Red. masses --      1.1474                 3.1195                 1.0708
 Frc consts  --      1.6361                 4.4596                 5.6221
 IR Inten    --     17.3201               158.1916                60.2308

                     58                     59                     60
                      A                      A                      A
 Frequencies --   3002.1922              3045.6287              3051.1962
 Red. masses --      1.0688                 1.0356                 1.0368
 Frc consts  --      5.6760                 5.6597                 5.6872
 IR Inten    --     34.4674                27.3843                15.3232

                     61                     62                     63
                      A                      A                      A
 Frequencies --   3078.5856              3091.8575              3112.0250
 Red. masses --      1.0936                 1.0933                 1.1018
 Frc consts  --      6.1068                 6.1580                 6.2870
 IR Inten    --     17.3892                34.9150                33.6863

                     64                     65                     66
                      A                      A                      A
 Frequencies --   3115.4693              3122.1993              3124.3124
 Red. masses --      1.1024                 1.1017                 1.1013
 Frc consts  --      6.3043                 6.3278                 6.3338
 IR Inten    --      7.6164                50.3470                29.4750

                     67                     68                     69
                      A                      A                      A
 Frequencies --   3273.3841              3578.8892              3684.5584
 Red. masses --      1.0935                 1.0753                 1.0655
 Frc consts  --      6.9032                 8.1149                 8.5227
 IR Inten    --      4.9481                30.2061               124.2878

 - Thermochemistry -
 -------------------
 Temperature   298.150 Kelvin.  Pressure   1.00000 Atm.
 Atom     1 has atomic number  6 and mass  12.00000

 Molecular mass:   187.07793 amu.
 Principal axes and moments of inertia in atomic units:
                           1         2         3
     Eigenvalues --  1035.502314566.230994965.88636
           X            0.99994   0.00923  -0.00577
           Y           -0.00914   0.99985   0.01492
           Z            0.00591  -0.01486   0.99987
 This molecule is an asymmetric top.
 Rotational symmetry number  1.
 Warning -- assumption of classical behavior for rotation
           may cause significant error
 Rotational temperatures (Kelvin)      0.08364     0.01897     0.01744
 Rotational constants (GHZ):           1.74287     0.39524     0.36343
 Zero-point vibrational energy     544610.9 (Joules/Mol)
                                  130.16514 (Kcal/Mol)
 Warning -- explicit consideration of  19 degrees of freedom as
           vibrations may cause significant error
 Vibrational temperatures:     59.07    68.75   137.64   209.75   237.42
          (Kelvin)            300.49   322.25   366.41   373.52   385.28
                              407.66   490.21   508.25   574.89   611.69
                              654.35   687.93   789.54   816.31   932.78
                              946.85  1021.19  1093.40  1113.50  1200.77
                             1258.86  1304.03  1358.93  1373.71  1389.47
                             1493.10  1497.99  1565.15  1583.65  1665.89
                             1728.72  1736.96  1771.46  1791.20  1894.03
                             1930.68  1949.38  2002.56  2034.61  2058.24
                             2077.03  2087.50  2112.16  2174.94  2178.55
                             2189.28  2203.71  2211.70  2218.59  2238.34
                             2241.17  4295.01  4319.48  4381.98  4389.99
                             4429.40  4448.49  4477.51  4482.47  4492.15
                             4495.19  4709.67  5149.22  5301.26

 Zero-point correction=                           0.207431 (Hartree/Particle)
 Thermal correction to Energy=                    0.220253
 Thermal correction to Enthalpy=                  0.221197
 Thermal correction to Gibbs Free Energy=         0.167864
 Sum of electronic and zero-point Energies=           -912.024654
 Sum of electronic and thermal Energies=              -912.011833
 Sum of electronic and thermal Enthalpies=            -912.010889
 Sum of electronic and thermal Free Energies=         -912.064222

                     E (Thermal)             CV                S
                      KCal/Mol        Cal/Mol-Kelvin    Cal/Mol-Kelvin
 Total                  138.211             47.893            112.249
 Electronic               0.000              0.000              0.000
 Translational            0.889              2.981             41.585
 Rotational               0.889              2.981             31.530
 Vibrational            136.433             41.931             39.135
 Vibration     1          0.594              1.981              5.208
 Vibration     2          0.595              1.978              4.907
 Vibration     3          0.603              1.952              3.541
 Vibration     4          0.617              1.907              2.727
 Vibration     5          0.623              1.885              2.492
 Vibration     6          0.642              1.827              2.054
 Vibration     7          0.649              1.805              1.927
 Vibration     8          0.665              1.755              1.698
 Vibration     9          0.668              1.746              1.664
 Vibration    10          0.673              1.732              1.610
 Vibration    11          0.682              1.705              1.513
 Vibration    12          0.720              1.594              1.209
 Vibration    13          0.729              1.569              1.152
 Vibration    14          0.766              1.471              0.964
 Vibration    15          0.787              1.416              0.875
 Vibration    16          0.813              1.350              0.781
 Vibration    17          0.835              1.299              0.715
 Vibration    18          0.904              1.142              0.547
 Vibration    19          0.923              1.102              0.509

                           ! Non-Optimized Parameters !
 Normal termination of Gaussian 16 at Wed Dec  9 18:01:21 2020.

 ----------------------------------------------------------------------
 # B3LYP/6-311++G(d,p) empiricaldispersion=gd3bj scf=xqc pop=npa geom=c
 heck
 ----------------------------------------------------------------------

 ---------------------------------------
 CID_107649361_JID_2762_Energie_neutraal
 ---------------------------------------
 Structure from the checkpoint file:  "JID_2762.chk"
 Charge =  0 Multiplicity = 1

 SCF Done:  E(RB3LYP) =  -912.412793871     A.U. after   16 cycles
 Normal termination of Gaussian 16 at Wed Dec  9 18:04:16 2020.

 ----------------------------------------------------------------------
 # B3LYP/6-311++G(d,p) empiricaldispersion=gd3bj scf=xqc pop=npa geom=c
 heck
 ----------------------------------------------------------------------

 -------------------------------------
 CID_107649361_JID_2762_Energie_kation
 -------------------------------------
 Structure from the checkpoint file:  "JID_2762.chk"
 Charge =  1 Multiplicity = 2

 SCF Done:  E(UB3LYP) =  -912.094793164     A.U. after   26 cycles
 Normal termination of Gaussian 16 at Wed Dec  9 18:09:47 2020.
 Gaussian 16:  ES64L-G16RevA.03 25-Dec-2016

 ----------------------------------------------------------------------
 # B3LYP/6-311++G(d,p) empiricaldispersion=gd3bj scf=xqc pop=npa geom=c
 heck
 ----------------------------------------------------------------------

 ------------------------------------
 CID_107649361_JID_2762_Energie_anion
 ------------------------------------
 Structure from the checkpoint file:  "JID_2762.chk"
 Charge = -1 Multiplicity = 2

                         Standard orientation:
 ---------------------------------------------------------------------
 Center     Atomic      Atomic             Coordinates (Angstroms)
 Number     Number       Type             X           Y           Z
 ---------------------------------------------------------------------
      1          6           0        2.641811   -0.414962   -1.480532
      2          6           0        2.380017    0.327235   -0.159978
      3          6           0        3.292121    1.560966   -0.066474
      4          6           0        0.925736    0.832839   -0.086517
      5          7           0       -0.061077   -0.252022   -0.166178
      6          6           0       -1.396862    0.060372   -0.054650
      7          6           0       -1.955804    1.238441    0.416012
      8          7           0       -3.318470    1.221302    0.465787
      9          7           0       -3.904498    0.173155    0.083061
     10         16           0       -2.664237   -1.051104   -0.429395
     11          6           0        2.691874   -0.600286    1.036539
     12          8           0        1.979218   -1.825723    1.029401
     13          1           0        2.323012    0.180902   -2.343907
     14          1           0        2.135207   -1.384941   -1.507475
     15          1           0        3.712310   -0.619543   -1.591176
     16          1           0        3.113448    2.248576   -0.900765
     17          1           0        3.126938    2.112262    0.867083
     18          1           0        4.345664    1.263204   -0.099120
     19          1           0        0.772710    1.341189    0.872424
     20          1           0        0.747232    1.574457   -0.881226
     21          1           0        0.148181   -0.935794   -0.883995
     22          1           0       -1.424395    2.126531    0.726064
     23          1           0        3.753255   -0.869711    1.008920
     24          1           0        2.519364   -0.044291    1.973641
     25          1           0        1.036075   -1.594072    1.089535
 ---------------------------------------------------------------------

 SCF Done:  E(UB3LYP) =  -912.411720865     A.U. after   33 cycles
 SCF Done:  E(UB3LYP) =  -912.411720865     a.u. after    1 cycles

 The electronic state is 2-A.
 Alpha  occ. eigenvalues --  -88.75129 -19.01865 -14.23779 -14.22470 -14.21854
 Alpha  occ. eigenvalues --  -10.11922 -10.11733 -10.10889 -10.09503 -10.07433
 Alpha  occ. eigenvalues --  -10.06877 -10.06696  -7.83731  -5.80038  -5.79698
 Alpha  occ. eigenvalues --   -5.79274  -0.92407  -0.90962  -0.84525  -0.72916
 Alpha  occ. eigenvalues --   -0.67108  -0.65116  -0.60162  -0.58619  -0.57911
 Alpha  occ. eigenvalues --   -0.50648  -0.46536  -0.44066  -0.41454  -0.40224
 Alpha  occ. eigenvalues --   -0.38943  -0.36694  -0.35547  -0.34285  -0.32870
 Alpha  occ. eigenvalues --   -0.31685  -0.31077  -0.29687  -0.29036  -0.27650
 Alpha  occ. eigenvalues --   -0.25868  -0.24977  -0.24181  -0.23729  -0.22280
 Alpha  occ. eigenvalues --   -0.21368  -0.17647  -0.15181  -0.12595  -0.11581
 Alpha  occ. eigenvalues --    0.04227
 Alpha virt. eigenvalues --    0.05805   0.07559   0.08145   0.08303   0.09241
 Alpha virt. eigenvalues --    0.10397   0.10726   0.11215   0.11510   0.11800
 Alpha virt. eigenvalues --    0.13354   0.13693   0.13863   0.14417   0.15079

  Beta  occ. eigenvalues --  -88.75100 -19.01849 -14.23771 -14.22049 -14.21649
  Beta  occ. eigenvalues --  -10.11711 -10.11632 -10.10863 -10.09503 -10.07513
  Beta  occ. eigenvalues --  -10.06856 -10.06653  -7.83705  -5.80033  -5.79692
  Beta  occ. eigenvalues --   -5.79161  -0.92373  -0.90452  -0.84370  -0.72851
  Beta  occ. eigenvalues --   -0.66854  -0.64760  -0.60112  -0.58543  -0.57843
  Beta  occ. eigenvalues --   -0.50318  -0.46412  -0.43828  -0.41350  -0.40088
  Beta  occ. eigenvalues --   -0.38868  -0.36624  -0.35474  -0.34139  -0.32711
  Beta  occ. eigenvalues --   -0.31548  -0.30562  -0.29309  -0.28817  -0.27617
  Beta  occ. eigenvalues --   -0.25684  -0.24864  -0.23977  -0.23487  -0.21833
  Beta  occ. eigenvalues --   -0.20840  -0.17552  -0.14553  -0.12230  -0.10714
  Beta virt. eigenvalues --    0.06569   0.07776   0.08618   0.08825   0.09112
  Beta virt. eigenvalues --    0.09588   0.10720   0.10965   0.11353   0.11810
  Beta virt. eigenvalues --    0.12144   0.13475   0.13817   0.14156   0.14618

 Mulliken charges and spin densities:
               1          2
     1  C    0.169016  -0.705940
     2  C   -1.860500   2.242106
     3  C    0.860656  -1.347127
     4  C    0.656561  -1.261843
     5  N    0.055281   0.007301
     6  C    0.079857  -0.122398
     7  C   -0.195541  -0.059414
     8  N   -0.138033   0.100032
     9  N   -0.133427   0.180000
    10  S   -0.248932   0.101052
    11  C    0.392807  -0.848552
    12  O   -0.242528   0.016965
    13  H   -0.066388   0.231405
    14  H    0.072183   0.059560
    15  H   -0.135462   0.300853
    16  H   -0.329526   0.478953
    17  H   -0.224164   0.359220
    18  H   -0.412595   0.568711
    19  H    0.324587  -0.169475
    20  H    0.039012   0.160897
    21  H    0.360916  -0.106205
    22  H   -0.093188   0.272855
    23  H   -0.015781   0.197562
    24  H   -0.098098   0.241346
    25  H    0.183288   0.102138
 Sum of Mulliken charges =  -1.00000   1.00000

 Dipole moment (field-independent basis, Debye):
    X=              0.9295    Y=             -2.2254    Z=             -0.7490  Tot=              2.5253
 Quadrupole moment (field-independent basis, Debye-Ang):
   XX=           -167.7074   YY=           -112.1422   ZZ=           -102.7033
   XY=             -0.6270   XZ=              3.0186   YZ=              4.1045

 Summary of Natural Population Analysis:

                                       Natural Population
                Natural  -----------------------------------------------
    Atom  No    Charge         Core      Valence    Rydberg      Total
 -----------------------------------------------------------------------
      C    1   -0.29160      0.99962     2.28427    0.00771     3.29160
      C    2   -0.06381      0.99957     2.05145    0.01278     3.06381
      C    3   -0.28434      0.99962     2.27709    0.00763     3.28434
      C    4   -0.08495      0.99956     2.07204    0.01335     3.08495
      N    5   -0.33067      0.99966     2.81923    0.01178     3.83067
      C    6    0.05114      0.99952     1.93535    0.01400     2.94886
      C    7   -0.11225      0.99950     2.09650    0.01625     3.11225
      N    8   -0.07697      0.99972     2.55913    0.01812     3.57697
      N    9   -0.10756      0.99982     2.59151    0.01623     3.60756
      S   10    0.18201      4.99949     2.79552    0.02298     7.81799
      C   11   -0.00585      0.99953     1.99202    0.01431     3.00585
      O   12   -0.37696      0.99990     3.37014    0.00693     4.37696
      H   13    0.10140      0.00000     0.39775    0.00085     0.39860
      H   14    0.10161      0.00000     0.39712    0.00127     0.39839
      H   15    0.10367      0.00000     0.39548    0.00085     0.39633
      H   16    0.10452      0.00000     0.39385    0.00163     0.39548
      H   17    0.10155      0.00000     0.39704    0.00141     0.39845
      H   18    0.10266      0.00000     0.39573    0.00161     0.39734
      H   19    0.09751      0.00000     0.40090    0.00159     0.40249
      H   20    0.09440      0.00000     0.40411    0.00149     0.40560
      H   21    0.19059      0.00000     0.30660    0.00281     0.30941
      H   22    0.10154      0.00000     0.39625    0.00221     0.39846
      H   23    0.08696      0.00000     0.41174    0.00131     0.41304
      H   24    0.07832      0.00000     0.42047    0.00122     0.42168
      H   25    0.23708      0.00000     0.25951    0.00341     0.26292
 =======================================================================
   * Total *    0.00000     15.99551    33.82078    0.18371    50.00000

 Normal termination of Gaussian 16 at Wed Dec  9 18:17:08 2020.
