 Gaussian 16, Revision A.03,

 -----------------------------------------------------------
 # opt freq B3LYP/6-31G(d) empiricaldispersion=gd3bj scf=xqc
 -----------------------------------------------------------

 -------------------------------
 CID_154510861_JID_6003_neutraal
 -------------------------------
 Symbolic Z-matrix:
 Charge =  0 Multiplicity = 1

 SCF Done:  E(RB3LYP) =  -694.749204239     A.U. after   15 cycles
 SCF Done:  E(RB3LYP) =  -694.753840773     A.U. after   12 cycles
 SCF Done:  E(RB3LYP) =  -694.753786595     A.U. after   13 cycles
 SCF Done:  E(RB3LYP) =  -694.755724328     A.U. after   13 cycles
 SCF Done:  E(RB3LYP) =  -694.756317234     A.U. after   12 cycles
 SCF Done:  E(RB3LYP) =  -694.755350586     A.U. after   13 cycles
 SCF Done:  E(RB3LYP) =  -694.756782700     A.U. after   12 cycles
 SCF Done:  E(RB3LYP) =  -694.756411759     A.U. after   12 cycles
 SCF Done:  E(RB3LYP) =  -694.756786709     A.U. after   12 cycles
 SCF Done:  E(RB3LYP) =  -694.756966810     A.U. after   11 cycles
 SCF Done:  E(RB3LYP) =  -694.756992503     A.U. after   11 cycles
 SCF Done:  E(RB3LYP) =  -694.756999504     A.U. after   10 cycles
 SCF Done:  E(RB3LYP) =  -694.757005675     A.U. after   10 cycles
 SCF Done:  E(RB3LYP) =  -694.757006751     A.U. after    8 cycles
 SCF Done:  E(RB3LYP) =  -694.757006806     A.U. after    7 cycles
 Optimization completed.
    -- Stationary point found.
 Normal termination of Gaussian 16 at Thu Dec 10 21:11:59 2020.

 --------------------------------------------------------------------
 #N Geom=AllCheck Guess=TCheck SCRF=Check GenChk RB3LYP/6-31G(d) Freq
 --------------------------------------------------------------------

 Structure from the checkpoint file:  "JID_6003.chk"
 -------------------------------
 CID_154510861_JID_6003_neutraal
 -------------------------------
 Charge =  0 Multiplicity = 1

 SCF Done:  E(RB3LYP) =  -694.757006806     A.U. after    1 cycles

  Exact polarizability: 169.743  -2.488 153.534 -11.888   4.381 106.401
 Approx polarizability: 219.524  -9.978 240.993 -23.365  14.740 172.925

                      1                      2                      3
                      A                      A                      A
 Frequencies --     19.0675                42.0264                64.9745
 Red. masses --      3.8317                 4.4136                 3.5747
 Frc consts  --      0.0008                 0.0046                 0.0089
 IR Inten    --      0.0646                 0.5943                 0.1414

                      4                      5                      6
                      A                      A                      A
 Frequencies --     97.5691               111.7640               124.5268
 Red. masses --      2.5422                 3.6224                 6.8717
 Frc consts  --      0.0143                 0.0267                 0.0628
 IR Inten    --      0.0547                 0.2578                 0.5960

                      7                      8                      9
                      A                      A                      A
 Frequencies --    155.5742               170.7190               174.8113
 Red. masses --      3.0716                 2.1833                 1.7349
 Frc consts  --      0.0438                 0.0375                 0.0312
 IR Inten    --      1.5527                 0.2933                 1.6748

                     10                     11                     12
                      A                      A                      A
 Frequencies --    197.5183               225.4789               245.5227
 Red. masses --      2.6912                 1.8633                 2.0033
 Frc consts  --      0.0619                 0.0558                 0.0711
 IR Inten    --      1.8971                 0.8246                 0.0410

                     13                     14                     15
                      A                      A                      A
 Frequencies --    255.4438               261.4938               280.3409
 Red. masses --      1.6812                 1.1252                 2.8986
 Frc consts  --      0.0646                 0.0453                 0.1342
 IR Inten    --      0.6850                 0.5377                 0.1974

                     16                     17                     18
                      A                      A                      A
 Frequencies --    308.3989               335.1915               354.3891
 Red. masses --      2.8610                 2.4009                 4.1168
 Frc consts  --      0.1603                 0.1589                 0.3046
 IR Inten    --      1.0681                 1.8628                 6.6946

                     19                     20                     21
                      A                      A                      A
 Frequencies --    383.4314               446.9500               470.2416
 Red. masses --      3.6768                 3.9865                 3.8635
 Frc consts  --      0.3185                 0.4692                 0.5034
 IR Inten    --      2.9831                 0.8597                 7.4432

                     22                     23                     24
                      A                      A                      A
 Frequencies --    487.5732               511.0881               532.2069
 Red. masses --      4.2800                 4.4593                 4.3744
 Frc consts  --      0.5995                 0.6863                 0.7300
 IR Inten    --      4.4297                 0.2795                 2.1247

                     25                     26                     27
                      A                      A                      A
 Frequencies --    554.3356               584.5045               611.9294
 Red. masses --      3.7473                 2.9874                 1.2188
 Frc consts  --      0.6784                 0.6013                 0.2689
 IR Inten    --      2.2805                 1.4600                42.9701

                     28                     29                     30
                      A                      A                      A
 Frequencies --    622.0690               670.9074               715.5443
 Red. masses --      1.2281                 3.7408                 1.4171
 Frc consts  --      0.2800                 0.9921                 0.4275
 IR Inten    --     44.6437                 1.4088                35.2399

                     31                     32                     33
                      A                      A                      A
 Frequencies --    753.5045               758.9836               787.3065
 Red. masses --      7.3000                 3.1761                 1.4946
 Frc consts  --      2.4420                 1.0780                 0.5459
 IR Inten    --      5.4644                10.8355                 3.8084

                     34                     35                     36
                      A                      A                      A
 Frequencies --    829.3052               866.1141               887.2411
 Red. masses --      4.3627                 2.3788                 1.5090
 Frc consts  --      1.7678                 1.0514                 0.6999
 IR Inten    --     14.3765                16.2985                 1.0869

                     37                     38                     39
                      A                      A                      A
 Frequencies --    898.4829               912.8628               955.9372
 Red. masses --      1.8247                 2.1456                 2.3683
 Frc consts  --      0.8679                 1.0534                 1.2751
 IR Inten    --      2.2951                 7.9691                 1.5185

                     40                     41                     42
                      A                      A                      A
 Frequencies --    979.5843               980.3877               991.5084
 Red. masses --      1.6025                 1.6571                 2.3022
 Frc consts  --      0.9060                 0.9384                 1.3335
 IR Inten    --      4.2384                 5.1815                 7.2003

                     43                     44                     45
                      A                      A                      A
 Frequencies --   1008.1037              1020.6207              1061.7850
 Red. masses --      3.0329                 1.5860                 2.9306
 Frc consts  --      1.8160                 0.9734                 1.9466
 IR Inten    --     23.8635                 5.0457                 1.9206

                     46                     47                     48
                      A                      A                      A
 Frequencies --   1078.3473              1089.1979              1114.5996
 Red. masses --      1.5359                 1.6157                 2.3576
 Frc consts  --      1.0523                 1.1294                 1.7256
 IR Inten    --     20.3663                11.8407                99.7478

                     49                     50                     51
                      A                      A                      A
 Frequencies --   1120.0753              1138.9069              1155.0273
 Red. masses --      2.1177                 1.6663                 2.3475
 Frc consts  --      1.5654                 1.2734                 1.8452
 IR Inten    --     15.3297                19.3428                71.3520

                     52                     53                     54
                      A                      A                      A
 Frequencies --   1184.2867              1199.0705              1265.2448
 Red. masses --      1.5012                 1.7621                 1.9398
 Frc consts  --      1.2405                 1.4927                 1.8296
 IR Inten    --      0.4279                 8.1973                48.2800

                     55                     56                     57
                      A                      A                      A
 Frequencies --   1276.3328              1291.0579              1305.4553
 Red. masses --      2.1716                 1.6442                 1.4823
 Frc consts  --      2.0843                 1.6148                 1.4884
 IR Inten    --    115.6914                99.3074                 4.9854

                     58                     59                     60
                      A                      A                      A
 Frequencies --   1314.1859              1371.5687              1373.6918
 Red. masses --      1.5944                 1.2892                 1.6319
 Frc consts  --      1.6224                 1.4289                 1.8144
 IR Inten    --    139.5287                 4.8865                 5.8254

                     61                     62                     63
                      A                      A                      A
 Frequencies --   1383.5873              1390.4254              1429.7102
 Red. masses --      1.4122                 1.7829                 1.3267
 Frc consts  --      1.5928                 2.0308                 1.5978
 IR Inten    --      8.7761                 2.8301                 8.1897

                     64                     65                     66
                      A                      A                      A
 Frequencies --   1437.8767              1441.4166              1442.6071
 Red. masses --      1.4419                 1.2539                 1.3529
 Frc consts  --      1.7565                 1.5350                 1.6588
 IR Inten    --      3.8267                 1.6750                 3.1953

                     67                     68                     69
                      A                      A                      A
 Frequencies --   1500.8519              1505.3742              1514.9202
 Red. masses --      1.0842                 1.0534                 1.0598
 Frc consts  --      1.4390                 1.4064                 1.4331
 IR Inten    --      2.8647                 7.2619                 5.4384

                     70                     71                     72
                      A                      A                      A
 Frequencies --   1518.2822              1525.4267              1527.5486
 Red. masses --      1.0682                 1.0651                 1.0423
 Frc consts  --      1.4509                 1.4602                 1.4330
 IR Inten    --      3.7918                 3.1574                 5.7359

                     73                     74                     75
                      A                      A                      A
 Frequencies --   1531.4723              1537.2353              1676.1633
 Red. masses --      1.0572                 1.0594                 7.4708
 Frc consts  --      1.4609                 1.4750                12.3666
 IR Inten    --      7.7035                 3.5105                 2.4024

                     76                     77                     78
                      A                      A                      A
 Frequencies --   1732.2372              1817.0456              2242.1483
 Red. masses --      5.8476                11.7594                 5.9756
 Frc consts  --     10.3382                22.8754                17.6993
 IR Inten    --      4.1699               216.3526                 1.3160

                     79                     80                     81
                      A                      A                      A
 Frequencies --   3045.2100              3052.7220              3055.5981
 Red. masses --      1.0381                 1.0366                 1.0584
 Frc consts  --      5.6720                 5.6914                 5.8223
 IR Inten    --     30.6513                29.9442                 9.8306

                     82                     83                     84
                      A                      A                      A
 Frequencies --   3057.3480              3065.3530              3070.0950
 Red. masses --      1.0631                 1.0354                 1.0840
 Frc consts  --      5.8546                 5.7322                 6.0196
 IR Inten    --     28.9635                13.9882                 4.0318

                     85                     86                     87
                      A                      A                      A
 Frequencies --   3091.9448              3099.8127              3104.9830
 Red. masses --      1.1031                 1.0977                 1.0996
 Frc consts  --      6.2132                 6.2147                 6.2463
 IR Inten    --      8.8493                16.5819                 3.5071

                     88                     89                     90
                      A                      A                      A
 Frequencies --   3122.9603              3129.6175              3134.1608
 Red. masses --      1.1013                 1.1015                 1.1030
 Frc consts  --      6.3283                 6.3566                 6.3838
 IR Inten    --     36.4020                24.7291                27.1558

                     91                     92                     93
                      A                      A                      A
 Frequencies --   3137.0870              3153.7682              3172.8891
 Red. masses --      1.1024                 1.1030                 1.0869
 Frc consts  --      6.3923                 6.4638                 6.4468
 IR Inten    --     17.7180                13.7111                11.1906

                     94                     95                     96
                      A                      A                      A
 Frequencies --   3183.7838              3202.4413              3497.1581
 Red. masses --      1.0880                 1.0981                 1.1603
 Frc consts  --      6.4979                 6.6354                 8.3609
 IR Inten    --     20.8173                38.2854                58.4582

 - Thermochemistry -
 -------------------
 Temperature   298.150 Kelvin.  Pressure   1.00000 Atm.
 Atom     1 has atomic number  6 and mass  12.00000

 Molecular mass:   218.13068 amu.
 Principal axes and moments of inertia in atomic units:
                           1         2         3
     Eigenvalues --  1763.066675390.446106012.75161
           X            0.99988   0.01517  -0.00076
           Y           -0.01518   0.99987  -0.00542
           Z            0.00068   0.00543   0.99999
 This molecule is an asymmetric top.
 Rotational symmetry number  1.
 Warning -- assumption of classical behavior for rotation
           may cause significant error
 Rotational temperatures (Kelvin)      0.04913     0.01607     0.01441
 Rotational constants (GHZ):           1.02364     0.33480     0.30015
 Zero-point vibrational energy     756731.5 (Joules/Mol)
                                  180.86317 (Kcal/Mol)
 Warning -- explicit consideration of  27 degrees of freedom as
           vibrations may cause significant error
 Vibrational temperatures:     27.43    60.47    93.48   140.38   160.80
          (Kelvin)            179.17   223.84   245.63   251.51   284.18
                              324.41   353.25   367.53   376.23   403.35
                              443.72   482.27   509.89   551.67   643.06
                              676.57   701.51   735.34   765.73   797.57
                              840.97   880.43   895.02   965.29  1029.51
                             1084.12  1092.01  1132.76  1193.19  1246.15
                             1276.54  1292.72  1313.41  1375.38  1409.40
                             1410.56  1426.56  1450.44  1468.45  1527.67
                             1551.50  1567.11  1603.66  1611.54  1638.63
                             1661.83  1703.92  1725.19  1820.41  1836.36
                             1857.54  1878.26  1890.82  1973.38  1976.44
                             1990.67  2000.51  2057.03  2068.78  2073.88
                             2075.59  2159.39  2165.90  2179.63  2184.47
                             2194.75  2197.80  2203.45  2211.74  2411.63
                             2492.30  2614.32  3225.95  4381.38  4392.19
                             4396.32  4398.84  4410.36  4417.18  4448.62
                             4459.94  4467.38  4493.24  4502.82  4509.36
                             4513.57  4537.57  4565.08  4580.75  4607.60
                             5031.63

 Zero-point correction=                           0.288224 (Hartree/Particle)
 Thermal correction to Energy=                    0.305248
 Thermal correction to Enthalpy=                  0.306192
 Thermal correction to Gibbs Free Energy=         0.243378
 Sum of electronic and zero-point Energies=           -694.468783
 Sum of electronic and thermal Energies=              -694.451759
 Sum of electronic and thermal Enthalpies=            -694.450815
 Sum of electronic and thermal Free Energies=         -694.513628

                     E (Thermal)             CV                S
                      KCal/Mol        Cal/Mol-Kelvin    Cal/Mol-Kelvin
 Total                  191.546             64.268            132.203
 Electronic               0.000              0.000              0.000
 Translational            0.889              2.981             42.043
 Rotational               0.889              2.981             32.413
 Vibrational            189.769             58.306             57.747
 Vibration     1          0.593              1.986              6.729
 Vibration     2          0.595              1.980              5.161
 Vibration     3          0.597              1.971              4.300
 Vibration     4          0.603              1.951              3.502
 Vibration     5          0.607              1.940              3.238
 Vibration     6          0.610              1.928              3.029
 Vibration     7          0.620              1.896              2.603
 Vibration     8          0.626              1.879              2.428
 Vibration     9          0.627              1.873              2.383
 Vibration    10          0.637              1.843              2.156
 Vibration    11          0.650              1.802              1.915
 Vibration    12          0.660              1.770              1.763
 Vibration    13          0.666              1.754              1.693
 Vibration    14          0.669              1.743              1.652
 Vibration    15          0.680              1.710              1.532
 Vibration    16          0.698              1.658              1.371
 Vibration    17          0.716              1.605              1.235
 Vibration    18          0.730              1.566              1.147
 Vibration    19          0.753              1.506              1.026
 Vibration    20          0.806              1.368              0.805
 Vibration    21          0.827              1.316              0.737
 Vibration    22          0.844              1.278              0.690
 Vibration    23          0.866              1.225              0.631
 Vibration    24          0.887              1.179              0.582
 Vibration    25          0.910              1.130              0.535
 Vibration    26          0.941              1.065              0.477
 Vibration    27          0.971              1.007              0.430

 Optimization completed.
    -- Stationary point found.
 Normal termination of Gaussian 16 at Thu Dec 10 21:23:24 2020.

 ----------------------------------------------------------------------
 # B3LYP/6-311++G(d,p) empiricaldispersion=gd3bj scf=xqc pop=npa geom=c
 heck
 ----------------------------------------------------------------------

 ---------------------------------------
 CID_154510861_JID_6003_Energie_neutraal
 ---------------------------------------
 Structure from the checkpoint file:  "JID_6003.chk"
 Charge =  0 Multiplicity = 1

 SCF Done:  E(RB3LYP) =  -694.952596776     A.U. after   15 cycles
 Normal termination of Gaussian 16 at Thu Dec 10 21:28:35 2020.

 ----------------------------------------------------------------------
 # B3LYP/6-311++G(d,p) empiricaldispersion=gd3bj scf=xqc pop=npa geom=c
 heck
 ----------------------------------------------------------------------

 -------------------------------------
 CID_154510861_JID_6003_Energie_kation
 -------------------------------------
 Structure from the checkpoint file:  "JID_6003.chk"
 Charge =  1 Multiplicity = 2

 SCF Done:  E(UB3LYP) =  -694.668760779     A.U. after   20 cycles
 Normal termination of Gaussian 16 at Thu Dec 10 21:37:08 2020.
 Gaussian 16:  ES64L-G16RevA.03 25-Dec-2016

 ----------------------------------------------------------------------
 # B3LYP/6-311++G(d,p) empiricaldispersion=gd3bj scf=xqc pop=npa geom=c
 heck
 ----------------------------------------------------------------------

 ------------------------------------
 CID_154510861_JID_6003_Energie_anion
 ------------------------------------
 Structure from the checkpoint file:  "JID_6003.chk"
 Charge = -1 Multiplicity = 2

                         Standard orientation:
 ---------------------------------------------------------------------
 Center     Atomic      Atomic             Coordinates (Angstroms)
 Number     Number       Type             X           Y           Z
 ---------------------------------------------------------------------
      1          6           0       -4.377060   -1.191131    0.243906
      2          6           0       -2.852880   -1.099507    0.197339
      3          6           0       -2.352110    0.092453   -0.663289
      4          6           0       -2.793905    1.379089   -0.125481
      5          6           0       -3.174454    2.433255    0.322181
      6          6           0       -0.826680    0.025284   -0.793863
      7          8           0       -0.254061   -0.279658   -1.816567
      8          8           0       -0.243181    0.288349    0.386659
      9          6           0        1.216583    0.285406    0.516403
     10          6           0        1.800843    1.439757   -0.314404
     11          6           0        3.297112    1.328174   -0.458760
     12          6           0        3.892670    0.126231   -0.431719
     13          6           0        3.112773   -1.093523   -0.226412
     14          6           0        1.822719   -1.066157    0.153581
     15          6           0        1.013326   -2.307196    0.393037
     16          6           0        1.428269    0.533895    2.013744
     17          1           0       -4.808816   -0.279494    0.668763
     18          1           0       -4.694934   -2.039754    0.858779
     19          1           0       -4.795880   -1.327290   -0.760153
     20          1           0       -2.442115   -0.989089    1.205915
     21          1           0       -2.431449   -2.018825   -0.227703
     22          1           0       -2.734088   -0.026891   -1.683834
     23          1           0       -3.497877    3.370198    0.714527
     24          1           0        1.353608    1.429823   -1.315933
     25          1           0        1.513335    2.386744    0.156708
     26          1           0        3.863913    2.233602   -0.658088
     27          1           0        4.964099    0.033036   -0.589007
     28          1           0        3.603620   -2.051280   -0.383642
     29          1           0        0.216599   -2.409153   -0.352405
     30          1           0        1.645485   -3.197792    0.330424
     31          1           0        0.532436   -2.295373    1.379295
     32          1           0        0.910776    1.450299    2.315740
     33          1           0        1.038661   -0.297314    2.608152
     34          1           0        2.497329    0.642828    2.214163
 ---------------------------------------------------------------------

 SCF Done:  E(UB3LYP) =  -694.940584711     A.U. after   33 cycles
 SCF Done:  E(UB3LYP) =  -694.940584710     a.u. after    1 cycles

 The electronic state is 2-A.
 Alpha  occ. eigenvalues --  -19.06309 -19.01381 -10.20680 -10.13651 -10.11662
 Alpha  occ. eigenvalues --  -10.08501 -10.08459 -10.07193 -10.06436 -10.06200
 Alpha  occ. eigenvalues --  -10.05918 -10.05536 -10.05232 -10.04751 -10.04489
 Alpha  occ. eigenvalues --  -10.04250  -1.00584  -0.92414  -0.74612  -0.72702
 Alpha  occ. eigenvalues --   -0.66254  -0.65712  -0.65581  -0.61660  -0.59113
 Alpha  occ. eigenvalues --   -0.56046  -0.53239  -0.51589  -0.48127  -0.45398
 Alpha  occ. eigenvalues --   -0.44089  -0.41233  -0.39360  -0.37936  -0.37643
 Alpha  occ. eigenvalues --   -0.36263  -0.35768  -0.34478  -0.33138  -0.32222
 Alpha  occ. eigenvalues --   -0.31903  -0.30111  -0.29208  -0.29131  -0.28665
 Alpha  occ. eigenvalues --   -0.27565  -0.26919  -0.26788  -0.26326  -0.25562
 Alpha  occ. eigenvalues --   -0.25187  -0.23080  -0.22040  -0.20189  -0.19504
 Alpha  occ. eigenvalues --   -0.19169  -0.18255  -0.16812  -0.09916   0.04671
 Alpha virt. eigenvalues --    0.06091   0.06782   0.07483   0.08290   0.08645
 Alpha virt. eigenvalues --    0.08787   0.09366   0.09809   0.10457   0.10718
 Alpha virt. eigenvalues --    0.11233   0.11746   0.12130   0.12478   0.12774

  Beta  occ. eigenvalues --  -19.06294 -19.01381 -10.20675 -10.13653 -10.11655
  Beta  occ. eigenvalues --  -10.08501 -10.08448 -10.07172 -10.06398 -10.06208
  Beta  occ. eigenvalues --  -10.05904 -10.05544 -10.04976 -10.04712 -10.04269
  Beta  occ. eigenvalues --  -10.04224  -1.00565  -0.92401  -0.74481  -0.72581
  Beta  occ. eigenvalues --   -0.66092  -0.65553  -0.65438  -0.61618  -0.58986
  Beta  occ. eigenvalues --   -0.55914  -0.53189  -0.51530  -0.47876  -0.45309
  Beta  occ. eigenvalues --   -0.43898  -0.41196  -0.39327  -0.37886  -0.37559
  Beta  occ. eigenvalues --   -0.36153  -0.35674  -0.34350  -0.32985  -0.32124
  Beta  occ. eigenvalues --   -0.31873  -0.29999  -0.29129  -0.29022  -0.28607
  Beta  occ. eigenvalues --   -0.27497  -0.26843  -0.26717  -0.26282  -0.25456
  Beta  occ. eigenvalues --   -0.25155  -0.23004  -0.21932  -0.20162  -0.19393
  Beta  occ. eigenvalues --   -0.18469  -0.18223  -0.16775  -0.08880
  Beta virt. eigenvalues --    0.06783   0.07566   0.07598   0.08375   0.08578
  Beta virt. eigenvalues --    0.08812   0.08950   0.09532   0.09877   0.10573
  Beta virt. eigenvalues --    0.10900   0.11235   0.11777   0.12353   0.12562

 Mulliken charges and spin densities:
               1          2
     1  C    1.412022  -2.084419
     2  C   -1.284731   0.898516
     3  C   -0.322360   0.637517
     4  C    1.676054  -1.757768
     5  C   -0.256031   0.106578
     6  C   -0.728174   0.166746
     7  O   -0.136476  -0.005172
     8  O    0.304017  -0.011777
     9  C   -0.038667   0.508645
    10  C   -0.281532  -0.115731
    11  C   -0.280854   0.138180
    12  C   -0.152995  -0.089010
    13  C   -0.070546  -0.209532
    14  C   -0.145896   0.586689
    15  C    0.103242  -0.762273
    16  C   -0.601339  -0.073285
    17  H    0.007762   0.145280
    18  H   -0.509598   0.656044
    19  H   -0.212506   0.352694
    20  H    0.021513   0.173403
    21  H    0.055281   0.077951
    22  H    0.121546   0.126940
    23  H   -0.711130   0.898013
    24  H    0.175566   0.019468
    25  H    0.112228   0.023730
    26  H    0.139768  -0.007777
    27  H    0.107012   0.014668
    28  H    0.058868   0.057965
    29  H    0.269150  -0.072402
    30  H   -0.149825   0.294922
    31  H   -0.053704   0.215819
    32  H    0.152135  -0.013432
    33  H    0.053212   0.095381
    34  H    0.166990   0.007427
 Sum of Mulliken charges =  -1.00000   1.00000

 Dipole moment (field-independent basis, Debye):
    X=              4.3841    Y=              1.4474    Z=             -0.5907  Tot=              4.6545
 Quadrupole moment (field-independent basis, Debye-Ang):
   XX=           -176.9452   YY=           -135.7547   ZZ=           -125.4611
   XY=              0.6328   XZ=              6.3139   YZ=              4.2656

 Summary of Natural Population Analysis:

                                       Natural Population
                Natural  -----------------------------------------------
    Atom  No    Charge         Core      Valence    Rydberg      Total
 -----------------------------------------------------------------------
      C    1   -0.28742      0.99966     2.28240    0.00535     3.28742
      C    2   -0.17843      0.99963     2.16999    0.00881     3.17843
      C    3   -0.18720      0.99949     2.17624    0.01147     3.18720
      C    4    0.00476      0.99937     1.98697    0.00890     2.99524
      C    5   -0.11563      0.99926     2.11256    0.00381     3.11563
      C    6    0.42263      0.99966     1.55025    0.02746     2.57737
      O    7   -0.30061      0.99987     3.29589    0.00485     4.30061
      O    8   -0.28933      0.99984     3.27827    0.01122     4.28933
      C    9    0.13698      0.99944     1.84938    0.01420     2.86302
      C   10   -0.21920      0.99957     2.21045    0.00918     3.21920
      C   11   -0.05149      0.99955     2.04325    0.00870     3.05149
      C   12   -0.11279      0.99953     2.10310    0.01016     3.11279
      C   13   -0.12071      0.99946     2.11038    0.01087     3.12071
      C   14    0.03726      0.99944     1.95125    0.01206     2.96274
      C   15   -0.29931      0.99962     2.29350    0.00619     3.29931
      C   16   -0.28706      0.99960     2.27965    0.00780     3.28706
      H   17    0.10333      0.00000     0.39551    0.00116     0.39667
      H   18    0.10348      0.00000     0.39500    0.00152     0.39652
      H   19    0.09532      0.00000     0.40344    0.00125     0.40468
      H   20    0.10415      0.00000     0.39422    0.00162     0.39585
      H   21    0.09928      0.00000     0.39947    0.00124     0.40072
      H   22    0.12003      0.00000     0.37821    0.00176     0.37997
      H   23    0.11153      0.00000     0.38674    0.00173     0.38847
      H   24    0.11791      0.00000     0.38071    0.00138     0.38209
      H   25    0.10029      0.00000     0.39851    0.00120     0.39971
      H   26    0.08868      0.00000     0.41032    0.00100     0.41132
      H   27    0.09322      0.00000     0.40586    0.00092     0.40678
      H   28    0.09382      0.00000     0.40519    0.00099     0.40618
      H   29    0.10396      0.00000     0.39464    0.00140     0.39604
      H   30    0.10073      0.00000     0.39835    0.00092     0.39927
      H   31    0.10249      0.00000     0.39586    0.00165     0.39751
      H   32    0.09973      0.00000     0.39936    0.00091     0.40027
      H   33    0.10193      0.00000     0.39719    0.00088     0.39807
      H   34    0.10764      0.00000     0.39166    0.00070     0.39236
 =======================================================================
   * Total *    0.00000     15.99300    42.82377    0.18323    59.00000

 Normal termination of Gaussian 16 at Thu Dec 10 21:51:28 2020.
