 Gaussian 16, Revision A.03,

 -----------------------------------------------------------
 # opt freq B3LYP/6-31G(d) empiricaldispersion=gd3bj scf=xqc
 -----------------------------------------------------------

 ------------------------------
 CID_81469712_JID_8463_neutraal
 ------------------------------
 Symbolic Z-matrix:
 Charge =  0 Multiplicity = 1

 SCF Done:  E(RB3LYP) =  -788.026422155     A.U. after   14 cycles
 SCF Done:  E(RB3LYP) =  -788.032530706     A.U. after   12 cycles
 SCF Done:  E(RB3LYP) =  -788.033001172     A.U. after   11 cycles
 SCF Done:  E(RB3LYP) =  -788.033409424     A.U. after   11 cycles
 SCF Done:  E(RB3LYP) =  -788.033628051     A.U. after   11 cycles
 SCF Done:  E(RB3LYP) =  -788.033730175     A.U. after   11 cycles
 SCF Done:  E(RB3LYP) =  -788.033766839     A.U. after    9 cycles
 SCF Done:  E(RB3LYP) =  -788.033794142     A.U. after   10 cycles
 SCF Done:  E(RB3LYP) =  -788.033815800     A.U. after   10 cycles
 SCF Done:  E(RB3LYP) =  -788.033829149     A.U. after   10 cycles
 SCF Done:  E(RB3LYP) =  -788.037141808     A.U. after    7 cycles
 SCF Done:  E(RB3LYP) =  -788.037142797     A.U. after    9 cycles
 SCF Done:  E(RB3LYP) =  -788.037143227     A.U. after    7 cycles
 SCF Done:  E(RB3LYP) =  -788.037143466     A.U. after    7 cycles
 SCF Done:  E(RB3LYP) =  -788.037143493     A.U. after    6 cycles
 Optimization completed.
    -- Stationary point found.
 Normal termination of Gaussian 16 at Sun Dec 13 16:42:10 2020.

 --------------------------------------------------------------------
 #N Geom=AllCheck Guess=TCheck SCRF=Check GenChk RB3LYP/6-31G(d) Freq
 --------------------------------------------------------------------

 Structure from the checkpoint file:  "JID_8463.chk"
 ------------------------------
 CID_81469712_JID_8463_neutraal
 ------------------------------
 Charge =  0 Multiplicity = 1

 SCF Done:  E(RB3LYP) =  -788.037143493     A.U. after    1 cycles

  Exact polarizability: 197.615   7.428 165.184  11.518  -5.402 136.379
 Approx polarizability: 243.330  13.451 244.760  23.828  -9.086 211.505

                      1                      2                      3
                      A                      A                      A
 Frequencies --     22.4042                37.0495                40.8763
 Red. masses --      3.7027                 3.4917                 3.6184
 Frc consts  --      0.0011                 0.0028                 0.0036
 IR Inten    --      0.1062                 0.0334                 0.5894

                      4                      5                      6
                      A                      A                      A
 Frequencies --     55.2445                88.4849                95.8118
 Red. masses --      3.1072                 2.7319                 2.4842
 Frc consts  --      0.0056                 0.0126                 0.0134
 IR Inten    --      0.8660                 0.6734                 1.8674

                      7                      8                      9
                      A                      A                      A
 Frequencies --    102.6299               126.3673               132.6016
 Red. masses --      2.8331                 3.0652                 3.0010
 Frc consts  --      0.0176                 0.0288                 0.0311
 IR Inten    --      0.9404                 0.1073                 0.0841

                     10                     11                     12
                      A                      A                      A
 Frequencies --    190.3323               195.7134               216.9402
 Red. masses --      3.1121                 2.6061                 1.1289
 Frc consts  --      0.0664                 0.0588                 0.0313
 IR Inten    --      1.7361                 0.4157                 0.0277

                     13                     14                     15
                      A                      A                      A
 Frequencies --    225.1434               249.6270               255.6939
 Red. masses --      4.7052                 1.2518                 1.1770
 Frc consts  --      0.1405                 0.0460                 0.0453
 IR Inten    --      5.7777                 0.8472                 0.8200

                     16                     17                     18
                      A                      A                      A
 Frequencies --    267.5838               295.1051               297.0755
 Red. masses --      1.2228                 2.0353                 1.7516
 Frc consts  --      0.0516                 0.1044                 0.0911
 IR Inten    --      0.7590                 0.3643                 0.4803

                     19                     20                     21
                      A                      A                      A
 Frequencies --    331.1848               335.9034               350.9705
 Red. masses --      3.1173                 3.0380                 2.7758
 Frc consts  --      0.2015                 0.2020                 0.2015
 IR Inten    --      0.5007                 3.5026                 4.9247

                     22                     23                     24
                      A                      A                      A
 Frequencies --    396.1444               403.2599               411.7109
 Red. masses --      2.2318                 3.2557                 2.2135
 Frc consts  --      0.2064                 0.3119                 0.2211
 IR Inten    --      7.7391                 2.0906                 4.1864

                     25                     26                     27
                      A                      A                      A
 Frequencies --    461.4251               482.9725               524.3436
 Red. masses --      2.8502                 2.9353                 3.5076
 Frc consts  --      0.3575                 0.4034                 0.5682
 IR Inten    --      5.7325                 5.9244                 4.7376

                     28                     29                     30
                      A                      A                      A
 Frequencies --    606.6683               624.9049               663.5588
 Red. masses --      3.6936                 4.0191                 4.1161
 Frc consts  --      0.8009                 0.9247                 1.0678
 IR Inten    --      2.5618                 4.5506                 7.8070

                     31                     32                     33
                      A                      A                      A
 Frequencies --    700.9878               736.7935               743.8355
 Red. masses --      3.6266                 1.8769                 2.0636
 Frc consts  --      1.0500                 0.6003                 0.6727
 IR Inten    --      4.2395                13.4817                16.9917

                     34                     35                     36
                      A                      A                      A
 Frequencies --    802.0130               810.0733               813.5459
 Red. masses --      2.9365                 2.9144                 1.5668
 Frc consts  --      1.1129                 1.1268                 0.6110
 IR Inten    --     10.0316                53.5391                45.9090

                     37                     38                     39
                      A                      A                      A
 Frequencies --    854.8396               870.9625               874.8784
 Red. masses --      1.3028                 3.9088                 3.2018
 Frc consts  --      0.5609                 1.7470                 1.4439
 IR Inten    --      6.8878                 6.2975                 0.9457

                     40                     41                     42
                      A                      A                      A
 Frequencies --    911.5452               928.4100               948.8223
 Red. masses --      3.5913                 2.8574                 1.5154
 Frc consts  --      1.7582                 1.4511                 0.8038
 IR Inten    --     11.1410                 3.7512                 0.4632

                     43                     44                     45
                      A                      A                      A
 Frequencies --    961.9919               976.0388               991.4783
 Red. masses --      2.2374                 2.1923                 1.5885
 Frc consts  --      1.2199                 1.2305                 0.9200
 IR Inten    --      2.4872                 5.7242                14.1186

                     46                     47                     48
                      A                      A                      A
 Frequencies --    998.4488              1032.5548              1050.5209
 Red. masses --      1.4550                 1.9335                 1.7020
 Frc consts  --      0.8546                 1.2146                 1.1067
 IR Inten    --      9.2169                30.9907                 6.6401

                     49                     50                     51
                      A                      A                      A
 Frequencies --   1068.2356              1079.0351              1090.1099
 Red. masses --      2.0204                 1.6243                 2.1488
 Frc consts  --      1.3584                 1.1143                 1.5045
 IR Inten    --      5.4291                10.0963                44.7061

                     52                     53                     54
                      A                      A                      A
 Frequencies --   1112.2692              1133.1419              1135.0611
 Red. masses --      1.9594                 1.3662                 1.7052
 Frc consts  --      1.4282                 1.0335                 1.2944
 IR Inten    --     22.7755                 5.1632                12.5191

                     55                     56                     57
                      A                      A                      A
 Frequencies --   1144.0269              1163.6006              1165.0364
 Red. masses --      2.4244                 2.2639                 2.1667
 Frc consts  --      1.8695                 1.8060                 1.7327
 IR Inten    --     35.4390                13.8662                23.8608

                     58                     59                     60
                      A                      A                      A
 Frequencies --   1180.7276              1190.0550              1198.4060
 Red. masses --      2.2433                 2.1323                 1.7554
 Frc consts  --      1.8426                 1.7792                 1.4854
 IR Inten    --     23.3053                23.0232                 2.8605

                     61                     62                     63
                      A                      A                      A
 Frequencies --   1199.0942              1220.0674              1226.2920
 Red. masses --      1.5126                 1.7559                 2.2421
 Frc consts  --      1.2814                 1.5400                 1.9865
 IR Inten    --     18.5932                13.5108                13.9174

                     64                     65                     66
                      A                      A                      A
 Frequencies --   1239.2480              1256.2526              1262.1056
 Red. masses --      3.0564                 1.4297                 1.7991
 Frc consts  --      2.7655                 1.3294                 1.6885
 IR Inten    --      3.7085                 5.7397                 5.3148

                     67                     68                     69
                      A                      A                      A
 Frequencies --   1283.0896              1287.4388              1304.8996
 Red. masses --      1.5152                 1.6660                 1.4088
 Frc consts  --      1.4697                 1.6270                 1.4134
 IR Inten    --      0.5720                 1.2034                 2.2541

                     70                     71                     72
                      A                      A                      A
 Frequencies --   1317.6397              1333.8112              1360.6301
 Red. masses --      2.1441                 1.4313                 1.3619
 Frc consts  --      2.1933                 1.5002                 1.4855
 IR Inten    --     15.4624                18.1353                 6.6934

                     73                     74                     75
                      A                      A                      A
 Frequencies --   1379.2018              1387.0780              1402.3278
 Red. masses --      1.4373                 1.3106                 1.4427
 Frc consts  --      1.6109                 1.4857                 1.6716
 IR Inten    --     12.7931                35.5226                14.7567

                     76                     77                     78
                      A                      A                      A
 Frequencies --   1406.2388              1422.3266              1438.6332
 Red. masses --      1.4528                 1.5459                 1.2883
 Frc consts  --      1.6926                 1.8426                 1.5709
 IR Inten    --      4.1843                 1.3634                10.3716

                     79                     80                     81
                      A                      A                      A
 Frequencies --   1446.1105              1451.1604              1472.5155
 Red. masses --      1.2773                 3.8564                 1.1522
 Frc consts  --      1.5737                 4.7848                 1.4719
 IR Inten    --      9.1752                 3.3573                 0.5627

                     82                     83                     84
                      A                      A                      A
 Frequencies --   1481.9893              1486.3198              1503.4251
 Red. masses --      1.1746                 1.1025                 1.1268
 Frc consts  --      1.5199                 1.4350                 1.5005
 IR Inten    --      0.9272                 7.4970                 2.8319

                     85                     86                     87
                      A                      A                      A
 Frequencies --   1504.2564              1507.6693              1518.3555
 Red. masses --      1.2295                 1.0804                 1.0509
 Frc consts  --      1.6392                 1.4470                 1.4274
 IR Inten    --     27.6242                 6.1951                17.7228

                     88                     89                     90
                      A                      A                      A
 Frequencies --   1518.6862              1523.2323              1526.2219
 Red. masses --      1.0593                 1.0570                 1.0652
 Frc consts  --      1.4394                 1.4450                 1.4619
 IR Inten    --      6.4162                 2.6821                 2.4663

                     91                     92                     93
                      A                      A                      A
 Frequencies --   1532.3004              1538.6502              1542.5796
 Red. masses --      1.0499                 1.0711                 1.0658
 Frc consts  --      1.4524                 1.4940                 1.4942
 IR Inten    --      8.7258                11.0467                11.6308

                     94                     95                     96
                      A                      A                      A
 Frequencies --   1547.2184              1549.9964              1557.4324
 Red. masses --      1.0579                 1.0696                 4.4933
 Frc consts  --      1.4920                 1.5141                 6.4215
 IR Inten    --      5.8341                 3.2365                15.0321

                     97                     98                     99
                      A                      A                      A
 Frequencies --   1560.5954              1668.9122              2934.4827
 Red. masses --      1.1017                 7.6020                 1.0621
 Frc consts  --      1.5808                12.4751                 5.3887
 IR Inten    --      5.8184                 1.8282                80.1291

                    100                    101                    102
                      A                      A                      A
 Frequencies --   2935.0795              2949.9501              2972.0668
 Red. masses --      1.0728                 1.0618                 1.0710
 Frc consts  --      5.4451                 5.4441                 5.5736
 IR Inten    --     62.6114               111.6025                53.7407

                    103                    104                    105
                      A                      A                      A
 Frequencies --   2984.5383              2992.7644              3016.3010
 Red. masses --      1.0576                 1.0625                 1.0956
 Frc consts  --      5.5504                 5.6069                 5.8727
 IR Inten    --     65.3150                45.7255                24.8564

                    106                    107                    108
                      A                      A                      A
 Frequencies --   3027.7614              3040.6663              3047.7583
 Red. masses --      1.0852                 1.0885                 1.0597
 Frc consts  --      5.8616                 5.9294                 5.7995
 IR Inten    --     26.6116                40.5905                33.4102

                    109                    110                    111
                      A                      A                      A
 Frequencies --   3054.3500              3061.5225              3068.6660
 Red. masses --      1.0397                 1.0892                 1.0727
 Frc consts  --      5.7147                 6.0149                 5.9515
 IR Inten    --     36.1527                45.3129                15.7606

                    112                    113                    114
                      A                      A                      A
 Frequencies --   3070.9109              3072.1916              3076.3263
 Red. masses --      1.0840                 1.0732                 1.0825
 Frc consts  --      6.0233                 5.9680                 6.0359
 IR Inten    --     64.6257                44.8492                64.1629

                    115                    116                    117
                      A                      A                      A
 Frequencies --   3092.0562              3115.2068              3116.3317
 Red. masses --      1.1051                 1.1034                 1.1001
 Frc consts  --      6.2249                 6.3088                 6.2944
 IR Inten    --     18.6765                37.9082                32.4869

                    118                    119                    120
                      A                      A                      A
 Frequencies --   3122.1382              3140.5933              3158.6854
 Red. masses --      1.1017                 1.1003                 1.0946
 Frc consts  --      6.3274                 6.3943                 6.4348
 IR Inten    --     34.7298                34.2576                27.4268

                    121                    122                    123
                      A                      A                      A
 Frequencies --   3275.3008              3300.6111              3492.3781
 Red. masses --      1.0901                 1.1061                 1.0742
 Frc consts  --      6.8899                 7.0994                 7.7196
 IR Inten    --      0.6492                 2.9488                 0.3537

 - Thermochemistry -
 -------------------
 Temperature   298.150 Kelvin.  Pressure   1.00000 Atm.
 Atom     1 has atomic number  6 and mass  12.00000

 Molecular mass:   251.19976 amu.
 Principal axes and moments of inertia in atomic units:
                           1         2         3
     Eigenvalues --  2406.085398666.351769789.09034
           X            0.99989   0.01491  -0.00044
           Y           -0.01491   0.99989   0.00074
           Z            0.00045  -0.00074   1.00000
 This molecule is an asymmetric top.
 Rotational symmetry number  1.
 Warning -- assumption of classical behavior for rotation
           may cause significant error
 Rotational temperatures (Kelvin)      0.03600     0.00999     0.00885
 Rotational constants (GHZ):           0.75007     0.20825     0.18436
 Zero-point vibrational energy    1013463.2 (Joules/Mol)
                                  242.22352 (Kcal/Mol)
 Warning -- explicit consideration of  28 degrees of freedom as
           vibrations may cause significant error
 Vibrational temperatures:     32.23    53.31    58.81    79.48   127.31
          (Kelvin)            137.85   147.66   181.81   190.78   273.85
                              281.59   312.13   323.93   359.16   367.89
                              384.99   424.59   427.43   476.50   483.29
                              504.97   569.96   580.20   592.36   663.89
                              694.89   754.41   872.86   899.10   954.71
                             1008.57  1060.08  1070.21  1153.92  1165.51
                             1170.51  1229.92  1253.12  1258.75  1311.51
                             1335.77  1365.14  1384.09  1404.30  1426.52
                             1436.55  1485.62  1511.47  1536.95  1552.49
                             1568.43  1600.31  1630.34  1633.10  1646.00
                             1674.16  1676.23  1698.80  1712.22  1724.24
                             1725.23  1755.40  1764.36  1783.00  1807.47
                             1815.89  1846.08  1852.34  1877.46  1895.79
                             1919.06  1957.64  1984.36  1995.70  2017.64
                             2023.26  2046.41  2069.87  2080.63  2087.90
                             2118.62  2132.25  2138.48  2163.09  2164.29
                             2169.20  2184.57  2185.05  2191.59  2195.89
                             2204.64  2213.77  2219.43  2226.10  2230.10
                             2240.80  2245.35  2401.19  4222.07  4222.92
                             4244.32  4276.14  4294.09  4305.92  4339.78
                             4356.27  4374.84  4385.04  4394.53  4404.85
                             4415.13  4418.36  4420.20  4426.15  4448.78
                             4482.09  4483.71  4492.06  4518.61  4544.64
                             4712.43  4748.84  5024.75

 Zero-point correction=                           0.386008 (Hartree/Particle)
 Thermal correction to Energy=                    0.405141
 Thermal correction to Enthalpy=                  0.406085
 Thermal correction to Gibbs Free Energy=         0.337428
 Sum of electronic and zero-point Energies=           -787.651136
 Sum of electronic and thermal Energies=              -787.632003
 Sum of electronic and thermal Enthalpies=            -787.631059
 Sum of electronic and thermal Free Energies=         -787.699716

                     E (Thermal)             CV                S
                      KCal/Mol        Cal/Mol-Kelvin    Cal/Mol-Kelvin
 Total                  254.230             71.933            144.501
 Electronic               0.000              0.000              0.000
 Translational            0.889              2.981             42.464
 Rotational               0.889              2.981             33.678
 Vibrational            252.452             65.972             68.359
 Vibration     1          0.593              1.985              6.409
 Vibration     2          0.594              1.982              5.411
 Vibration     3          0.594              1.981              5.216
 Vibration     4          0.596              1.975              4.620
 Vibration     5          0.601              1.957              3.693
 Vibration     6          0.603              1.952              3.538
 Vibration     7          0.605              1.947              3.404
 Vibration     8          0.611              1.927              3.001
 Vibration     9          0.613              1.921              2.908
 Vibration    10          0.634              1.853              2.225
 Vibration    11          0.636              1.846              2.173
 Vibration    12          0.646              1.815              1.984
 Vibration    13          0.650              1.803              1.917
 Vibration    14          0.662              1.763              1.733
 Vibration    15          0.666              1.753              1.691
 Vibration    16          0.673              1.733              1.612
 Vibration    17          0.689              1.683              1.445
 Vibration    18          0.691              1.679              1.433
 Vibration    19          0.714              1.613              1.254
 Vibration    20          0.717              1.604              1.232
 Vibration    21          0.728              1.573              1.162
 Vibration    22          0.763              1.478              0.977
 Vibration    23          0.769              1.463              0.951
 Vibration    24          0.776              1.445              0.921
 Vibration    25          0.819              1.336              0.762
 Vibration    26          0.839              1.288              0.702
 Vibration    27          0.879              1.196              0.600
 Vibration    28          0.965              1.018              0.438

 Optimization completed.
    -- Stationary point found.
 Normal termination of Gaussian 16 at Sun Dec 13 17:03:45 2020.

 ----------------------------------------------------------------------
 # B3LYP/6-311++G(d,p) empiricaldispersion=gd3bj scf=xqc pop=npa geom=c
 heck
 ----------------------------------------------------------------------

 --------------------------------------
 CID_81469712_JID_8463_Energie_neutraal
 --------------------------------------
 Structure from the checkpoint file:  "JID_8463.chk"
 Charge =  0 Multiplicity = 1

 SCF Done:  E(RB3LYP) =  -788.254965064     A.U. after   14 cycles
 Normal termination of Gaussian 16 at Sun Dec 13 17:13:18 2020.

 ----------------------------------------------------------------------
 # B3LYP/6-311++G(d,p) empiricaldispersion=gd3bj scf=xqc pop=npa geom=c
 heck
 ----------------------------------------------------------------------

 ------------------------------------
 CID_81469712_JID_8463_Energie_kation
 ------------------------------------
 Structure from the checkpoint file:  "JID_8463.chk"
 Charge =  1 Multiplicity = 2

 SCF Done:  E(UB3LYP) =  -787.993403853     A.U. after   26 cycles
 Normal termination of Gaussian 16 at Sun Dec 13 17:39:29 2020.
 Gaussian 16:  ES64L-G16RevA.03 25-Dec-2016

 ----------------------------------------------------------------------
 # B3LYP/6-311++G(d,p) empiricaldispersion=gd3bj scf=xqc pop=npa geom=c
 heck
 ----------------------------------------------------------------------

 -----------------------------------
 CID_81469712_JID_8463_Energie_anion
 -----------------------------------
 Structure from the checkpoint file:  "JID_8463.chk"
 Charge = -1 Multiplicity = 2

                         Standard orientation:
 ---------------------------------------------------------------------
 Center     Atomic      Atomic             Coordinates (Angstroms)
 Number     Number       Type             X           Y           Z
 ---------------------------------------------------------------------
      1          6           0        2.614638   -2.226952   -1.533379
      2          6           0        1.854101   -0.947619   -1.198343
      3          6           0        0.699415   -1.111455   -0.180400
      4          7           0        0.817522    0.034362    0.726157
      5          6           0        1.651429    1.055132    0.096296
      6          6           0        2.713578    0.225151   -0.650715
      7          7           0        3.887951   -0.186067    0.122762
      8          6           0        4.860245    0.887056    0.253955
      9          6           0        3.626922   -0.802811    1.418300
     10          6           0       -0.413055    0.488934    1.361686
     11          6           0       -1.467143    1.027138    0.441846
     12          6           0       -2.554793    0.474788   -0.179771
     13          6           0       -3.123083    1.511289   -1.001858
     14          6           0       -2.339061    2.607022   -0.831739
     15          8           0       -1.322761    2.335284    0.040506
     16          6           0       -3.090626   -0.916139   -0.028794
     17          7           0       -4.523778   -0.891174    0.261224
     18          6           0       -5.073657   -2.221217    0.485245
     19          1           0        3.414881   -2.026307   -2.253124
     20          1           0        1.940187   -2.971733   -1.972502
     21          1           0        3.077250   -2.667210   -0.646160
     22          1           0        1.408690   -0.568734   -2.127069
     23          1           0       -0.268407   -1.130960   -0.705854
     24          1           0        0.777914   -2.048986    0.389719
     25          1           0        2.079398    1.716981    0.859970
     26          1           0        1.100032    1.690568   -0.618603
     27          1           0        3.110019    0.797580   -1.495855
     28          1           0        4.511366    1.732985    0.878622
     29          1           0        5.774853    0.494355    0.712497
     30          1           0        5.118068    1.280845   -0.735139
     31          1           0        3.209525   -0.107192    2.166031
     32          1           0        2.925885   -1.632101    1.315655
     33          1           0        4.571799   -1.198477    1.810032
     34          1           0       -0.837630   -0.353459    1.920464
     35          1           0       -0.149078    1.262317    2.093105
     36          1           0       -4.009283    1.425378   -1.613735
     37          1           0       -2.362107    3.612353   -1.223641
     38          1           0       -2.960627   -1.476360   -0.966054
     39          1           0       -2.503124   -1.463416    0.733561
     40          1           0       -4.676357   -0.311543    1.084575
     41          1           0       -4.558762   -2.799686    1.275806
     42          1           0       -6.132185   -2.140254    0.751793
     43          1           0       -5.005559   -2.800960   -0.443118
 ---------------------------------------------------------------------

 SCF Done:  E(UB3LYP) =  -788.241957877     A.U. after   33 cycles
 SCF Done:  E(UB3LYP) =  -788.241957877     a.u. after    1 cycles

 The electronic state is 2-A.
 Alpha  occ. eigenvalues --  -19.09726 -14.21065 -14.20840 -14.20786 -10.13345
 Alpha  occ. eigenvalues --  -10.13059 -10.11377 -10.10813 -10.10375 -10.09472
 Alpha  occ. eigenvalues --  -10.09386 -10.09330 -10.09322 -10.08805 -10.08560
 Alpha  occ. eigenvalues --  -10.08185 -10.08073 -10.06523  -1.01982  -0.84973
 Alpha  occ. eigenvalues --   -0.81904  -0.81631  -0.72031  -0.70763  -0.67179
 Alpha  occ. eigenvalues --   -0.64205  -0.61996  -0.61102  -0.59727  -0.57403
 Alpha  occ. eigenvalues --   -0.54837  -0.53244  -0.50168  -0.48394  -0.45869
 Alpha  occ. eigenvalues --   -0.45563  -0.43430  -0.41825  -0.39616  -0.38970
 Alpha  occ. eigenvalues --   -0.37469  -0.37083  -0.35914  -0.35740  -0.35383
 Alpha  occ. eigenvalues --   -0.34647  -0.33579  -0.32820  -0.32117  -0.31828
 Alpha  occ. eigenvalues --   -0.30892  -0.30614  -0.30136  -0.29486  -0.28368
 Alpha  occ. eigenvalues --   -0.28026  -0.27529  -0.27467  -0.27412  -0.26904
 Alpha  occ. eigenvalues --   -0.26337  -0.24720  -0.23106  -0.22653  -0.18779
 Alpha  occ. eigenvalues --   -0.14232  -0.13971  -0.12724  -0.11201   0.04015
 Alpha virt. eigenvalues --    0.05540   0.06546   0.06770   0.07284   0.07768
 Alpha virt. eigenvalues --    0.08138   0.08438   0.08693   0.09078   0.09406
 Alpha virt. eigenvalues --    0.09832   0.10050   0.10603   0.11098   0.11712

  Beta  occ. eigenvalues --  -19.09721 -14.21063 -14.20822 -14.20787 -10.13342
  Beta  occ. eigenvalues --  -10.13053 -10.11365 -10.10793 -10.10367 -10.09447
  Beta  occ. eigenvalues --  -10.09372 -10.09310 -10.09291 -10.08787 -10.08556
  Beta  occ. eigenvalues --  -10.08181 -10.08065 -10.06509  -1.01975  -0.84964
  Beta  occ. eigenvalues --   -0.81893  -0.81605  -0.72016  -0.70746  -0.67163
  Beta  occ. eigenvalues --   -0.64183  -0.61957  -0.61064  -0.59696  -0.57370
  Beta  occ. eigenvalues --   -0.54755  -0.53209  -0.50150  -0.48363  -0.45837
  Beta  occ. eigenvalues --   -0.45535  -0.43405  -0.41791  -0.39592  -0.38929
  Beta  occ. eigenvalues --   -0.37440  -0.37060  -0.35893  -0.35719  -0.35330
  Beta  occ. eigenvalues --   -0.34622  -0.33551  -0.32794  -0.32097  -0.31810
  Beta  occ. eigenvalues --   -0.30866  -0.30596  -0.30118  -0.29466  -0.28346
  Beta  occ. eigenvalues --   -0.27973  -0.27500  -0.27447  -0.27387  -0.26884
  Beta  occ. eigenvalues --   -0.26313  -0.24698  -0.23083  -0.22632  -0.18764
  Beta  occ. eigenvalues --   -0.14208  -0.13936  -0.12711  -0.11189
  Beta virt. eigenvalues --    0.05833   0.06396   0.06790   0.07125   0.07734
  Beta virt. eigenvalues --    0.08046   0.08465   0.08602   0.08959   0.09398
  Beta virt. eigenvalues --    0.09584   0.10077   0.10274   0.10891   0.11323

 Mulliken charges and spin densities:
               1          2
     1  C    0.115307  -0.805203
     2  C    0.188191  -0.045751
     3  C   -0.531967  -0.140679
     4  N    0.263264   0.063920
     5  C    0.461734  -1.131950
     6  C   -1.425519   1.145298
     7  N    0.132670   0.001152
     8  C    0.494088  -0.734673
     9  C    0.017037  -0.375388
    10  C    0.308653  -0.786603
    11  C   -1.455187   1.323831
    12  C    0.286428   0.327030
    13  C    1.440241  -1.369722
    14  C   -0.528678   0.391563
    15  O    0.051017   0.003564
    16  C   -0.535909  -0.718743
    17  N   -0.172352   0.180539
    18  C    0.842672  -1.160536
    19  H    0.019905   0.127971
    20  H   -0.092584   0.232901
    21  H    0.089680   0.063460
    22  H   -0.188912   0.379946
    23  H    0.671323  -0.595283
    24  H   -0.366157   0.549057
    25  H    0.086879   0.097637
    26  H    0.105076   0.002799
    27  H   -0.200654   0.416967
    28  H   -0.105811   0.213847
    29  H   -0.036772   0.164108
    30  H   -0.236455   0.363339
    31  H    0.051625   0.092503
    32  H    0.128576   0.008203
    33  H   -0.080149   0.225888
    34  H   -0.401215   0.599612
    35  H    0.001836   0.200496
    36  H    0.063201   0.110282
    37  H   -0.085859   0.240842
    38  H   -0.284372   0.506843
    39  H    0.799697  -0.659647
    40  H    0.031102   0.181586
    41  H   -0.495110   0.620043
    42  H   -0.231633   0.361769
    43  H   -0.194908   0.327184
 Sum of Mulliken charges =  -1.00000   1.00000

 Dipole moment (field-independent basis, Debye):
    X=              1.3703    Y=              3.4242    Z=             -0.7577  Tot=              3.7652
 Quadrupole moment (field-independent basis, Debye-Ang):
   XX=           -218.9238   YY=           -159.2313   ZZ=           -152.0865
   XY=            -17.9550   XZ=              7.2085   YZ=              2.1004

 Summary of Natural Population Analysis:

                                       Natural Population
                Natural  -----------------------------------------------
    Atom  No    Charge         Core      Valence    Rydberg      Total
 -----------------------------------------------------------------------
      C    1   -0.28123      0.99964     2.27586    0.00573     3.28123
      C    2   -0.11875      0.99958     2.10823    0.01093     3.11875
      C    3   -0.08123      0.99960     2.07054    0.01110     3.08123
      N    4   -0.28455      0.99973     2.77226    0.01255     3.78455
      C    5   -0.09614      0.99959     2.08558    0.01097     3.09614
      C    6    0.00024      0.99955     1.98449    0.01572     2.99976
      N    7   -0.28221      0.99972     2.76919    0.01330     3.78221
      C    8   -0.17203      0.99964     2.16530    0.00709     3.17203
      C    9   -0.17686      0.99963     2.16949    0.00773     3.17686
      C   10   -0.10450      0.99957     2.09194    0.01300     3.10450
      C   11    0.14659      0.99938     1.83971    0.01431     2.85341
      C   12   -0.06280      0.99945     2.05315    0.01020     3.06280
      C   13   -0.14140      0.99952     2.13310    0.00878     3.14140
      C   14    0.05659      0.99951     1.93036    0.01354     2.94341
      O   15   -0.23898      0.99986     3.23114    0.00797     4.23898
      C   16   -0.09398      0.99959     2.08313    0.01126     3.09398
      N   17   -0.33357      0.99975     2.82263    0.01119     3.83357
      C   18   -0.17608      0.99967     2.16934    0.00707     3.17608
      H   19    0.10120      0.00000     0.39757    0.00123     0.39880
      H   20    0.09762      0.00000     0.40144    0.00095     0.40238
      H   21    0.10016      0.00000     0.39874    0.00110     0.39984
      H   22    0.09886      0.00000     0.39941    0.00173     0.40114
      H   23    0.08999      0.00000     0.40804    0.00197     0.41001
      H   24    0.09005      0.00000     0.40828    0.00167     0.40995
      H   25    0.09671      0.00000     0.40186    0.00143     0.40329
      H   26    0.09035      0.00000     0.40803    0.00162     0.40965
      H   27    0.09992      0.00000     0.39881    0.00128     0.40008
      H   28    0.07832      0.00000     0.41978    0.00190     0.42168
      H   29    0.09307      0.00000     0.40571    0.00122     0.40693
      H   30    0.09491      0.00000     0.40377    0.00133     0.40509
      H   31    0.08527      0.00000     0.41303    0.00171     0.41473
      H   32    0.09825      0.00000     0.40034    0.00142     0.40175
      H   33    0.09016      0.00000     0.40870    0.00114     0.40984
      H   34    0.10628      0.00000     0.39242    0.00130     0.39372
      H   35    0.10453      0.00000     0.39423    0.00124     0.39547
      H   36    0.11277      0.00000     0.38624    0.00099     0.38723
      H   37    0.09334      0.00000     0.40577    0.00089     0.40666
      H   38    0.09675      0.00000     0.40162    0.00162     0.40325
      H   39    0.08716      0.00000     0.41056    0.00228     0.41284
      H   40    0.17033      0.00000     0.32611    0.00356     0.32967
      H   41    0.08014      0.00000     0.41694    0.00293     0.41986
      H   42    0.09417      0.00000     0.40459    0.00125     0.40583
      H   43    0.09062      0.00000     0.40758    0.00180     0.40938
 =======================================================================
   * Total *   -0.00000     17.99298    50.77501    0.23201    69.00000

 Normal termination of Gaussian 16 at Sun Dec 13 18:12:33 2020.
