 Gaussian 16, Revision A.03,

 -----------------------------------------------------------
 # opt freq B3LYP/6-31G(d) empiricaldispersion=gd3bj scf=xqc
 -----------------------------------------------------------

 -------------------------------
 CID_131086753_JID_3276_neutraal
 -------------------------------
 Symbolic Z-matrix:
 Charge =  0 Multiplicity = 1

 SCF Done:  E(RB3LYP) =  -950.346241958     A.U. after   15 cycles
 SCF Done:  E(RB3LYP) =  -950.353000248     A.U. after   13 cycles
 SCF Done:  E(RB3LYP) =  -950.353804238     A.U. after   12 cycles
 SCF Done:  E(RB3LYP) =  -950.353991343     A.U. after   12 cycles
 SCF Done:  E(RB3LYP) =  -950.354089416     A.U. after   11 cycles
 SCF Done:  E(RB3LYP) =  -950.354217292     A.U. after   12 cycles
 SCF Done:  E(RB3LYP) =  -950.354302797     A.U. after   12 cycles
 SCF Done:  E(RB3LYP) =  -950.354554337     A.U. after   12 cycles
 SCF Done:  E(RB3LYP) =  -950.354872192     A.U. after   12 cycles
 SCF Done:  E(RB3LYP) =  -950.354981514     A.U. after   12 cycles
 SCF Done:  E(RB3LYP) =  -950.355110315     A.U. after    8 cycles
 SCF Done:  E(RB3LYP) =  -950.355110188     A.U. after    8 cycles
 SCF Done:  E(RB3LYP) =  -950.355110125     A.U. after    8 cycles
 SCF Done:  E(RB3LYP) =  -950.355110468     A.U. after    8 cycles
 SCF Done:  E(RB3LYP) =  -950.355110098     A.U. after    9 cycles
 Optimization completed.
    -- Stationary point found.
 Normal termination of Gaussian 16 at Wed Dec  9 22:41:10 2020.

 --------------------------------------------------------------------
 #N Geom=AllCheck Guess=TCheck SCRF=Check GenChk RB3LYP/6-31G(d) Freq
 --------------------------------------------------------------------

 Structure from the checkpoint file:  "JID_3276.chk"
 -------------------------------
 CID_131086753_JID_3276_neutraal
 -------------------------------
 Charge =  0 Multiplicity = 1

 SCF Done:  E(RB3LYP) =  -950.355110098     A.U. after    1 cycles

  Exact polarizability: 166.417   1.768 111.396  -6.444  -0.064  84.080
 Approx polarizability: 215.869  -2.268 210.860 -15.898  -0.379 125.601

                      1                      2                      3
                      A                      A                      A
 Frequencies --     32.1969                43.2593                47.3435
 Red. masses --      5.5479                 3.0150                 2.1993
 Frc consts  --      0.0034                 0.0033                 0.0029
 IR Inten    --      3.6549                 0.2593                 0.0508

                      4                      5                      6
                      A                      A                      A
 Frequencies --     54.7627                92.5201               124.7199
 Red. masses --      4.0584                 3.1785                 4.3476
 Frc consts  --      0.0072                 0.0160                 0.0398
 IR Inten    --      4.3617                 3.4627                 3.5502

                      7                      8                      9
                      A                      A                      A
 Frequencies --    178.4566               201.4920               272.5391
 Red. masses --      3.1527                 5.2940                 1.6465
 Frc consts  --      0.0592                 0.1266                 0.0721
 IR Inten    --      4.8268                10.9324                48.8209

                     10                     11                     12
                      A                      A                      A
 Frequencies --    302.9266               328.6632               371.5689
 Red. masses --      2.5128                 2.0674                 2.8647
 Frc consts  --      0.1359                 0.1316                 0.2330
 IR Inten    --      3.0765                43.7475                16.4956

                     13                     14                     15
                      A                      A                      A
 Frequencies --    398.4750               453.2859               490.4375
 Red. masses --      6.2426                 2.8498                 1.9754
 Frc consts  --      0.5840                 0.3450                 0.2799
 IR Inten    --      2.0465                31.3534                46.1467

                     16                     17                     18
                      A                      A                      A
 Frequencies --    568.6479               596.6724               619.9006
 Red. masses --      6.5218                 3.4143                 6.2460
 Frc consts  --      1.2425                 0.7162                 1.4142
 IR Inten    --     16.6751                20.6238                16.1426

                     19                     20                     21
                      A                      A                      A
 Frequencies --    638.2555               649.2805               706.6666
 Red. masses --      6.0892                 2.9395                 2.3576
 Frc consts  --      1.4615                 0.7301                 0.6937
 IR Inten    --     11.2770                10.9250                13.6741

                     22                     23                     24
                      A                      A                      A
 Frequencies --    767.0423               795.5720               818.0212
 Red. masses --      5.3378                 1.9875                 2.3941
 Frc consts  --      1.8504                 0.7412                 0.9439
 IR Inten    --     10.2747                 3.1924                 3.4277

                     25                     26                     27
                      A                      A                      A
 Frequencies --    836.1099               894.4924               899.4359
 Red. masses --      2.7692                 2.8969                 2.7120
 Frc consts  --      1.1406                 1.3657                 1.2927
 IR Inten    --      4.5811                 0.5935                 4.2657

                     28                     29                     30
                      A                      A                      A
 Frequencies --    917.1441               955.8641              1026.0109
 Red. masses --      2.1547                 1.7678                 1.7290
 Frc consts  --      1.0679                 0.9517                 1.0724
 IR Inten    --      1.0501                 2.9543                 0.8716

                     31                     32                     33
                      A                      A                      A
 Frequencies --   1034.6413              1049.9431              1064.6170
 Red. masses --      1.7083                 1.9850                 2.0162
 Frc consts  --      1.0774                 1.2892                 1.3464
 IR Inten    --      7.4582                 5.4666                 2.0985

                     34                     35                     36
                      A                      A                      A
 Frequencies --   1088.2920              1103.9655              1137.1762
 Red. masses --      6.8567                 1.7635                 3.5679
 Frc consts  --      4.7847                 1.2663                 2.7184
 IR Inten    --    165.6371                 2.3160                28.1465

                     37                     38                     39
                      A                      A                      A
 Frequencies --   1170.5796              1200.2002              1226.0230
 Red. masses --      3.7769                 1.5603                 1.5171
 Frc consts  --      3.0492                 1.3242                 1.3436
 IR Inten    --      6.2869                 2.9690                 5.0600

                     40                     41                     42
                      A                      A                      A
 Frequencies --   1252.7312              1254.9628              1261.4813
 Red. masses --      1.4638                 1.0910                 1.4536
 Frc consts  --      1.3535                 1.0123                 1.3629
 IR Inten    --      9.3267                14.0159                15.4191

                     43                     44                     45
                      A                      A                      A
 Frequencies --   1298.9080              1323.1937              1330.0007
 Red. masses --      1.6383                 2.2067                 1.3581
 Frc consts  --      1.6285                 2.2763                 1.4154
 IR Inten    --     14.6836                25.4238                 0.6565

                     46                     47                     48
                      A                      A                      A
 Frequencies --   1337.7009              1346.6186              1366.2315
 Red. masses --      1.2252                 1.4322                 1.4109
 Frc consts  --      1.2918                 1.5302                 1.5516
 IR Inten    --      3.7396                29.2717                34.6772

                     49                     50                     51
                      A                      A                      A
 Frequencies --   1374.7661              1377.0084              1467.2347
 Red. masses --      1.5546                 1.4282                 1.4631
 Frc consts  --      1.7312                 1.5955                 1.8557
 IR Inten    --      4.5298                44.7044                 8.5787

                     52                     53                     54
                      A                      A                      A
 Frequencies --   1486.7171              1511.9730              1523.8357
 Red. masses --      1.2831                 1.0846                 1.0855
 Frc consts  --      1.6710                 1.4609                 1.4851
 IR Inten    --    240.0201                 4.8149                 4.3425

                     55                     56                     57
                      A                      A                      A
 Frequencies --   1527.6346              1537.7137              1550.8025
 Red. masses --      1.0846                 1.3139                 1.1068
 Frc consts  --      1.4912                 1.8305                 1.5684
 IR Inten    --      4.8222                 1.5860                12.0617

                     58                     59                     60
                      A                      A                      A
 Frequencies --   1572.4680              1603.9478              2981.5713
 Red. masses --      3.5995                 4.8539                 1.0727
 Frc consts  --      5.2440                 7.3574                 5.6185
 IR Inten    --     36.7731               411.5953                52.5680

                     61                     62                     63
                      A                      A                      A
 Frequencies --   3040.9762              3055.6086              3063.1419
 Red. masses --      1.0888                 1.0692                 1.0657
 Frc consts  --      5.9322                 5.8815                 5.8917
 IR Inten    --     33.2715                17.6150                16.3876

                     64                     65                     66
                      A                      A                      A
 Frequencies --   3068.7017              3075.0255              3082.6603
 Red. masses --      1.0744                 1.0644                 1.0741
 Frc consts  --      5.9613                 5.9300                 6.0139
 IR Inten    --      8.6273                59.3805                19.1018

                     67                     68                     69
                      A                      A                      A
 Frequencies --   3100.7312              3116.5480              3121.1306
 Red. masses --      1.0984                 1.0986                 1.1030
 Frc consts  --      6.2221                 6.2870                 6.3307
 IR Inten    --     15.8246                 3.3148                13.0332

                     70                     71                     72
                      A                      A                      A
 Frequencies --   3128.9480              3578.9149              3665.9752
 Red. masses --      1.1050                 1.0750                 1.0657
 Frc consts  --      6.3741                 8.1125                 8.4387
 IR Inten    --     77.4078                32.0857                62.5344

 - Thermochemistry -
 -------------------
 Temperature   298.150 Kelvin.  Pressure   1.00000 Atm.
 Atom     1 has atomic number  6 and mass  12.00000

 Molecular mass:   199.07793 amu.
 Principal axes and moments of inertia in atomic units:
                           1         2         3
     Eigenvalues --   833.220025686.813855859.26304
           X            0.99998   0.00504   0.00286
           Y           -0.00503   0.99998  -0.00426
           Z           -0.00288   0.00425   0.99999
 This molecule is an asymmetric top.
 Rotational symmetry number  1.
 Warning -- assumption of classical behavior for rotation
           may cause significant error
 Rotational temperatures (Kelvin)      0.10395     0.01523     0.01478
 Rotational constants (GHZ):           2.16598     0.31736     0.30802
 Zero-point vibrational energy     565493.1 (Joules/Mol)
                                  135.15610 (Kcal/Mol)
 Warning -- explicit consideration of  18 degrees of freedom as
           vibrations may cause significant error
 Vibrational temperatures:     46.32    62.24    68.12    78.79   133.12
          (Kelvin)            179.44   256.76   289.90   392.12   435.84
                              472.87   534.60   573.32   652.18   705.63
                              818.16   858.48   891.90   918.31   934.17
                             1016.74  1103.60  1144.65  1176.95  1202.98
                             1286.98  1294.09  1319.57  1375.28  1476.20
                             1488.62  1510.63  1531.75  1565.81  1588.36
                             1636.14  1684.20  1726.82  1763.97  1802.40
                             1805.61  1814.99  1868.84  1903.78  1913.57
                             1924.65  1937.48  1965.70  1977.98  1981.21
                             2111.02  2139.05  2175.39  2192.46  2197.93
                             2212.43  2231.26  2262.43  2307.72  4289.82
                             4375.29  4396.34  4407.18  4415.18  4424.28
                             4435.26  4461.26  4484.02  4490.61  4501.86
                             5149.26  5274.52

 Zero-point correction=                           0.215385 (Hartree/Particle)
 Thermal correction to Energy=                    0.228384
 Thermal correction to Enthalpy=                  0.229328
 Thermal correction to Gibbs Free Energy=         0.173523
 Sum of electronic and zero-point Energies=           -950.139725
 Sum of electronic and thermal Energies=              -950.126726
 Sum of electronic and thermal Enthalpies=            -950.125782
 Sum of electronic and thermal Free Energies=         -950.181587

                     E (Thermal)             CV                S
                      KCal/Mol        Cal/Mol-Kelvin    Cal/Mol-Kelvin
 Total                  143.313             47.337            117.452
 Electronic               0.000              0.000              0.000
 Translational            0.889              2.981             41.770
 Rotational               0.889              2.981             31.696
 Vibrational            141.536             41.375             43.986
 Vibration     1          0.594              1.983              5.689
 Vibration     2          0.595              1.980              5.104
 Vibration     3          0.595              1.979              4.925
 Vibration     4          0.596              1.976              4.638
 Vibration     5          0.602              1.955              3.606
 Vibration     6          0.610              1.928              3.026
 Vibration     7          0.629              1.869              2.344
 Vibration     8          0.638              1.838              2.119
 Vibration     9          0.676              1.724              1.580
 Vibration    10          0.694              1.668              1.401
 Vibration    11          0.712              1.618              1.267
 Vibration    12          0.743              1.531              1.073
 Vibration    13          0.765              1.473              0.968
 Vibration    14          0.812              1.354              0.786
 Vibration    15          0.846              1.271              0.682
 Vibration    16          0.925              1.099              0.507
 Vibration    17          0.955              1.039              0.455
 Vibration    18          0.980              0.990              0.417

 Optimization completed.
    -- Stationary point found.
 Normal termination of Gaussian 16 at Wed Dec  9 22:46:41 2020.

 ----------------------------------------------------------------------
 # B3LYP/6-311++G(d,p) empiricaldispersion=gd3bj scf=xqc pop=npa geom=c
 heck
 ----------------------------------------------------------------------

 ---------------------------------------
 CID_131086753_JID_3276_Energie_neutraal
 ---------------------------------------
 Structure from the checkpoint file:  "JID_3276.chk"
 Charge =  0 Multiplicity = 1

 SCF Done:  E(RB3LYP) =  -950.544658427     A.U. after   16 cycles
 Normal termination of Gaussian 16 at Wed Dec  9 22:49:11 2020.

 ----------------------------------------------------------------------
 # B3LYP/6-311++G(d,p) empiricaldispersion=gd3bj scf=xqc pop=npa geom=c
 heck
 ----------------------------------------------------------------------

 -------------------------------------
 CID_131086753_JID_3276_Energie_kation
 -------------------------------------
 Structure from the checkpoint file:  "JID_3276.chk"
 Charge =  1 Multiplicity = 2

 SCF Done:  E(UB3LYP) =  -950.242529479     A.U. after   22 cycles
 Normal termination of Gaussian 16 at Wed Dec  9 22:53:54 2020.
 Gaussian 16:  ES64L-G16RevA.03 25-Dec-2016

 ----------------------------------------------------------------------
 # B3LYP/6-311++G(d,p) empiricaldispersion=gd3bj scf=xqc pop=npa geom=c
 heck
 ----------------------------------------------------------------------

 ------------------------------------
 CID_131086753_JID_3276_Energie_anion
 ------------------------------------
 Structure from the checkpoint file:  "JID_3276.chk"
 Charge = -1 Multiplicity = 2

                         Standard orientation:
 ---------------------------------------------------------------------
 Center     Atomic      Atomic             Coordinates (Angstroms)
 Number     Number       Type             X           Y           Z
 ---------------------------------------------------------------------
      1          6           0        4.074586    0.644292    0.153087
      2          6           0        3.239345    0.326949    1.429056
      3          6           0        2.298495   -0.828359    1.030356
      4          6           0        2.068199   -0.614421   -0.478435
      5          6           0        3.467818   -0.227509   -0.978647
      6          7           0        1.133919    0.477542   -0.768603
      7          6           0       -0.188801    0.427487   -0.450718
      8          7           0       -0.937919    1.490391   -0.297461
      9          7           0       -2.250639    1.165846   -0.070568
     10          6           0       -2.493188   -0.103935   -0.027792
     11         16           0       -1.066268   -1.105188   -0.290050
     12          6           0       -3.887076   -0.629061    0.195872
     13          8           0       -4.764929    0.407814    0.564696
     14          1           0        5.135605    0.417886    0.292446
     15          1           0        4.017758    1.710018   -0.094435
     16          1           0        3.867607    0.065313    2.285056
     17          1           0        2.650358    1.201288    1.726098
     18          1           0        1.366300   -0.846131    1.602523
     19          1           0        2.792298   -1.797602    1.173769
     20          1           0        1.687463   -1.512459   -0.977731
     21          1           0        3.432407    0.275218   -1.949950
     22          1           0        4.052657   -1.144145   -1.106364
     23          1           0        1.502945    1.420660   -0.719864
     24          1           0       -4.230811   -1.130755   -0.724889
     25          1           0       -3.877593   -1.390683    0.987998
     26          1           0       -4.311046    1.242779    0.348329
 ---------------------------------------------------------------------

 SCF Done:  E(UB3LYP) =  -950.535669308     A.U. after   33 cycles
 SCF Done:  E(UB3LYP) =  -950.535811975     a.u. after    6 cycles

 The electronic state is 2-A.
 Alpha  occ. eigenvalues --  -88.79319 -19.03727 -14.25042 -14.24629 -14.23229
 Alpha  occ. eigenvalues --  -10.17756 -10.14854 -10.14563 -10.11859 -10.07061
 Alpha  occ. eigenvalues --  -10.06923 -10.06853 -10.06831  -7.87965  -5.84240
 Alpha  occ. eigenvalues --   -5.83927  -5.83506  -0.95107  -0.93226  -0.85906
 Alpha  occ. eigenvalues --   -0.74777  -0.72457  -0.69519  -0.62472  -0.61819
 Alpha  occ. eigenvalues --   -0.60950  -0.52517  -0.50169  -0.47742  -0.47030
 Alpha  occ. eigenvalues --   -0.44169  -0.39805  -0.39311  -0.38853  -0.37200
 Alpha  occ. eigenvalues --   -0.36259  -0.35644  -0.34594  -0.32170  -0.31849
 Alpha  occ. eigenvalues --   -0.27599  -0.26652  -0.26208  -0.25369  -0.24723
 Alpha  occ. eigenvalues --   -0.24512  -0.22902  -0.22050  -0.21552  -0.20575
 Alpha  occ. eigenvalues --   -0.18888  -0.17762  -0.12989   0.04183
 Alpha virt. eigenvalues --    0.05977   0.06613   0.07435   0.08057   0.08644
 Alpha virt. eigenvalues --    0.08793   0.09787   0.10250   0.10609   0.10723
 Alpha virt. eigenvalues --    0.11316   0.11486   0.12156   0.12401   0.13405

  Beta  occ. eigenvalues --  -88.79300 -19.03726 -14.25027 -14.24610 -14.23237
  Beta  occ. eigenvalues --  -10.17712 -10.14832 -10.14541 -10.11850 -10.07022
  Beta  occ. eigenvalues --  -10.06900 -10.06825 -10.06807  -7.87942  -5.84211
  Beta  occ. eigenvalues --   -5.83912  -5.83486  -0.95094  -0.93204  -0.85858
  Beta  occ. eigenvalues --   -0.74738  -0.72409  -0.69450  -0.62415  -0.61751
  Beta  occ. eigenvalues --   -0.60900  -0.52465  -0.50100  -0.47680  -0.46942
  Beta  occ. eigenvalues --   -0.44142  -0.39751  -0.39231  -0.38798  -0.37135
  Beta  occ. eigenvalues --   -0.36209  -0.35601  -0.34534  -0.32103  -0.31801
  Beta  occ. eigenvalues --   -0.27549  -0.26625  -0.26154  -0.25322  -0.24663
  Beta  occ. eigenvalues --   -0.24458  -0.22842  -0.21990  -0.21518  -0.20525
  Beta  occ. eigenvalues --   -0.18852  -0.17738  -0.12934
  Beta virt. eigenvalues --    0.06449   0.06657   0.07143   0.08135   0.08687
  Beta virt. eigenvalues --    0.08910   0.09376   0.10136   0.10454   0.11060
  Beta virt. eigenvalues --    0.11236   0.11673   0.11800   0.12349   0.12514

 Mulliken charges and spin densities:
               1          2
     1  C    0.782306  -1.068709
     2  C   -0.194690  -0.288103
     3  C    0.585385  -0.878852
     4  C   -1.204399   1.576894
     5  C    0.624849  -1.313886
     6  N    0.241125  -0.156746
     7  C   -0.241870  -0.397727
     8  N    0.072250  -0.044392
     9  N   -0.322199   0.088692
    10  C    0.098275   0.112782
    11  S    0.196301  -0.042874
    12  C    0.650312  -1.016909
    13  O   -0.326859   0.023618
    14  H   -0.257227   0.409547
    15  H   -0.075264   0.214124
    16  H   -0.165804   0.328885
    17  H    0.029504   0.136025
    18  H    0.042565   0.068736
    19  H   -0.478746   0.654222
    20  H   -0.667242   0.905743
    21  H   -0.319478   0.500991
    22  H   -0.225358   0.399453
    23  H    0.086673   0.216147
    24  H   -0.153457   0.330259
    25  H   -0.055168   0.227336
    26  H    0.278216   0.014744
 Sum of Mulliken charges =  -1.00000   1.00000

 Dipole moment (field-independent basis, Debye):
    X=             -4.4665    Y=              1.4391    Z=              0.3936  Tot=              4.7091
 Quadrupole moment (field-independent basis, Debye-Ang):
   XX=           -182.5537   YY=           -122.0890   ZZ=           -116.0171
   XY=              9.2000   XZ=              0.6607   YZ=             -0.6159

 Summary of Natural Population Analysis:

                                       Natural Population
                Natural  -----------------------------------------------
    Atom  No    Charge         Core      Valence    Rydberg      Total
 -----------------------------------------------------------------------
      C    1   -0.19713      0.99965     2.18950    0.00798     3.19713
      C    2   -0.19632      0.99965     2.18822    0.00845     3.19632
      C    3   -0.19774      0.99962     2.18983    0.00829     3.19774
      C    4   -0.01190      0.99958     1.99898    0.01334     3.01190
      C    5   -0.19409      0.99962     2.18540    0.00907     3.19409
      N    6   -0.31753      0.99964     2.80467    0.01322     3.81753
      C    7    0.14707      0.99961     1.83448    0.01885     2.85293
      N    8   -0.18771      0.99963     2.67327    0.01481     3.68771
      N    9   -0.16447      0.99959     2.65023    0.01465     3.66447
      C   10    0.01100      0.99962     1.97152    0.01786     2.98900
      S   11    0.16440      4.99944     2.81831    0.01785     7.83560
      C   12   -0.02463      0.99954     2.01142    0.01368     3.02463
      O   13   -0.37003      0.99990     3.36268    0.00745     4.37003
      H   14    0.10448      0.00000     0.39371    0.00181     0.39552
      H   15    0.09560      0.00000     0.40314    0.00127     0.40440
      H   16    0.10358      0.00000     0.39523    0.00119     0.39642
      H   17    0.09551      0.00000     0.40317    0.00132     0.40449
      H   18    0.10309      0.00000     0.39562    0.00129     0.39691
      H   19    0.10317      0.00000     0.39489    0.00194     0.39683
      H   20    0.10360      0.00000     0.39429    0.00211     0.39640
      H   21    0.10481      0.00000     0.39362    0.00157     0.39519
      H   22    0.10736      0.00000     0.39008    0.00256     0.39264
      H   23    0.19789      0.00000     0.29824    0.00387     0.30211
      H   24    0.08817      0.00000     0.40971    0.00212     0.41183
      H   25    0.09065      0.00000     0.40772    0.00163     0.40935
      H   26    0.24116      0.00000     0.25538    0.00346     0.25884
 =======================================================================
   * Total *   -0.00000     16.99507    35.81332    0.19162    53.00000

 Normal termination of Gaussian 16 at Wed Dec  9 23:28:34 2020.
