 Gaussian 16, Revision A.03,

 -----------------------------------------------------------
 # opt freq B3LYP/6-31G(d) empiricaldispersion=gd3bj scf=xqc
 -----------------------------------------------------------

 --------------------------------
 CID_152542352_JID_10147_neutraal
 --------------------------------
 Symbolic Z-matrix:
 Charge =  0 Multiplicity = 1

 SCF Done:  E(RB3LYP) =  -971.966784952     A.U. after   16 cycles
 SCF Done:  E(RB3LYP) =  -971.968544421     A.U. after   16 cycles
 SCF Done:  E(RB3LYP) =  -971.969890223     A.U. after   15 cycles
 SCF Done:  E(RB3LYP) =  -971.975692375     A.U. after   13 cycles
 SCF Done:  E(RB3LYP) =  -971.975764425     A.U. after   14 cycles
 SCF Done:  E(RB3LYP) =  -971.977120001     A.U. after   13 cycles
 SCF Done:  E(RB3LYP) =  -971.977528154     A.U. after   12 cycles
 SCF Done:  E(RB3LYP) =  -971.977744825     A.U. after   13 cycles
 SCF Done:  E(RB3LYP) =  -971.977885095     A.U. after   12 cycles
 SCF Done:  E(RB3LYP) =  -971.978019466     A.U. after   11 cycles
 SCF Done:  E(RB3LYP) =  -971.979642900     A.U. after   11 cycles
 SCF Done:  E(RB3LYP) =  -971.979647422     A.U. after    9 cycles
 SCF Done:  E(RB3LYP) =  -971.979648417     A.U. after    8 cycles
 SCF Done:  E(RB3LYP) =  -971.979648678     A.U. after    8 cycles
 Optimization completed.
    -- Stationary point found.
 Normal termination of Gaussian 16 at Mon Dec 14 18:06:47 2020.

 --------------------------------------------------------------------
 #N Geom=AllCheck Guess=TCheck SCRF=Check GenChk RB3LYP/6-31G(d) Freq
 --------------------------------------------------------------------

 Structure from the checkpoint file:  "JID_10147.chk"
 --------------------------------
 CID_152542352_JID_10147_neutraal
 --------------------------------
 Charge =  0 Multiplicity = 1

 SCF Done:  E(RB3LYP) =  -971.979648678     A.U. after    1 cycles

  Exact polarizability: 178.305 -12.552 152.126   1.096  -5.544 137.701
 Approx polarizability: 232.616 -31.495 247.665  13.062 -35.539 233.933

                      1                      2                      3
                      A                      A                      A
 Frequencies --     27.7918                48.7870                63.6828
 Red. masses --      5.1472                 5.4092                 5.4897
 Frc consts  --      0.0023                 0.0076                 0.0131
 IR Inten    --      0.2005                 0.7195                 0.0509

                      4                      5                      6
                      A                      A                      A
 Frequencies --     82.5395               110.6194               116.5046
 Red. masses --      6.7961                 6.4588                 3.7172
 Frc consts  --      0.0273                 0.0466                 0.0297
 IR Inten    --      2.0892                 3.0605                 0.1419

                      7                      8                      9
                      A                      A                      A
 Frequencies --    136.1307               152.0142               184.1011
 Red. masses --      6.8437                 6.2091                 5.0448
 Frc consts  --      0.0747                 0.0845                 0.1007
 IR Inten    --      0.9119                 3.5727                 0.4460

                     10                     11                     12
                      A                      A                      A
 Frequencies --    191.6300               237.6735               249.4603
 Red. masses --      7.4039                 2.6521                 5.2473
 Frc consts  --      0.1602                 0.0883                 0.1924
 IR Inten    --      1.7609                 3.4388                 4.3188

                     13                     14                     15
                      A                      A                      A
 Frequencies --    269.5760               292.6146               336.6285
 Red. masses --      8.9438                 5.6978                 2.0506
 Frc consts  --      0.3829                 0.2874                 0.1369
 IR Inten    --      2.5897                 6.1230                 0.5903

                     16                     17                     18
                      A                      A                      A
 Frequencies --    378.9371               405.7568               423.3742
 Red. masses --      2.8320                 3.0722                 3.8805
 Frc consts  --      0.2396                 0.2980                 0.4098
 IR Inten    --     12.6195                 1.0714                 4.9029

                     19                     20                     21
                      A                      A                      A
 Frequencies --    442.0559               454.0494               463.4194
 Red. masses --      4.4593                 1.8024                 4.1848
 Frc consts  --      0.5134                 0.2189                 0.5295
 IR Inten    --      9.0290                 5.4925                 1.0569

                     22                     23                     24
                      A                      A                      A
 Frequencies --    493.2259               527.7202               540.7129
 Red. masses --      3.6498                 1.9493                 2.4681
 Frc consts  --      0.5231                 0.3198                 0.4252
 IR Inten    --      1.3802                42.9935                18.9392

                     25                     26                     27
                      A                      A                      A
 Frequencies --    551.0552               575.0418               622.5759
 Red. masses --      2.2166                 9.6852                 4.5725
 Frc consts  --      0.3966                 1.8869                 1.0442
 IR Inten    --     37.3153                21.1774                29.5691

                     28                     29                     30
                      A                      A                      A
 Frequencies --    641.6430               658.4632               704.4365
 Red. masses --      3.8426                 5.9065                 3.5682
 Frc consts  --      0.9321                 1.5088                 1.0432
 IR Inten    --      4.3379                 6.9498                 8.4912

                     31                     32                     33
                      A                      A                      A
 Frequencies --    737.9652               760.4027               785.3883
 Red. masses --      4.4666                 4.9892                 3.8402
 Frc consts  --      1.4332                 1.6997                 1.3956
 IR Inten    --     69.2828                13.9978                14.0399

                     34                     35                     36
                      A                      A                      A
 Frequencies --    813.7317               826.4672               838.3159
 Red. masses --      3.5306                 3.2664                 3.0018
 Frc consts  --      1.3774                 1.3145                 1.2429
 IR Inten    --     13.5238                 6.0694                12.4614

                     37                     38                     39
                      A                      A                      A
 Frequencies --    846.3758               866.9798               890.5657
 Red. masses --      2.1391                 2.4300                 3.1212
 Frc consts  --      0.9028                 1.0762                 1.4585
 IR Inten    --     44.1665                24.7434                 7.9942

                     40                     41                     42
                      A                      A                      A
 Frequencies --    895.3101               903.4958               936.0088
 Red. masses --      2.8077                 2.6005                 2.1877
 Frc consts  --      1.3260                 1.2507                 1.1293
 IR Inten    --     46.0568                22.4690                 4.8221

                     43                     44                     45
                      A                      A                      A
 Frequencies --    954.6659               958.5926               970.8245
 Red. masses --      1.8002                 1.8998                 1.9990
 Frc consts  --      0.9666                 1.0286                 1.1100
 IR Inten    --      2.6295                 1.7538                 0.8393

                     46                     47                     48
                      A                      A                      A
 Frequencies --    979.7574               988.7509              1031.2261
 Red. masses --      1.7851                 2.8565                 2.7061
 Frc consts  --      1.0096                 1.6454                 1.6955
 IR Inten    --      3.5833                52.3625                 5.9782

                     49                     50                     51
                      A                      A                      A
 Frequencies --   1037.8712              1049.8402              1063.4690
 Red. masses --      2.4252                 1.8880                 2.4891
 Frc consts  --      1.5392                 1.2260                 1.6586
 IR Inten    --     45.7060                11.2163                20.1882

                     52                     53                     54
                      A                      A                      A
 Frequencies --   1066.4559              1085.1694              1128.6798
 Red. masses --      3.9044                 1.6255                 2.0050
 Frc consts  --      2.6163                 1.1278                 1.5049
 IR Inten    --      6.7553                21.8106                13.7935

                     55                     56                     57
                      A                      A                      A
 Frequencies --   1144.7331              1153.4670              1159.6849
 Red. masses --      1.4293                 1.9178                 1.3314
 Frc consts  --      1.1035                 1.5034                 1.0550
 IR Inten    --     16.3765                54.3509                16.0908

                     58                     59                     60
                      A                      A                      A
 Frequencies --   1170.4721              1174.2750              1188.1237
 Red. masses --      2.3221                 2.4554                 1.7530
 Frc consts  --      1.8743                 1.9949                 1.4580
 IR Inten    --     19.9116                91.9068                 4.4131

                     61                     62                     63
                      A                      A                      A
 Frequencies --   1211.4032              1223.4488              1235.4459
 Red. masses --      1.7630                 1.3779                 1.3581
 Frc consts  --      1.5243                 1.2152                 1.2213
 IR Inten    --    147.9929                18.9352                38.0224

                     64                     65                     66
                      A                      A                      A
 Frequencies --   1266.9181              1283.2868              1293.0748
 Red. masses --      1.8489                 1.7710                 1.4386
 Frc consts  --      1.7484                 1.7183                 1.4172
 IR Inten    --     68.3557                48.3776                 2.0846

                     67                     68                     69
                      A                      A                      A
 Frequencies --   1295.3894              1311.2247              1326.6938
 Red. masses --      1.4269                 1.2450                 1.5813
 Frc consts  --      1.4108                 1.2612                 1.6399
 IR Inten    --      2.1745                 7.9303                18.2707

                     70                     71                     72
                      A                      A                      A
 Frequencies --   1329.3855              1335.9918              1347.8804
 Red. masses --      1.2252                 6.5001                 1.4233
 Frc consts  --      1.2757                 6.8356                 1.5235
 IR Inten    --     17.8658                97.4096                 4.7427

                     73                     74                     75
                      A                      A                      A
 Frequencies --   1353.3705              1362.3205              1375.5748
 Red. masses --      1.3934                 1.4564                 1.4003
 Frc consts  --      1.5037                 1.5925                 1.5611
 IR Inten    --      5.1749                52.0509                 8.4119

                     76                     77                     78
                      A                      A                      A
 Frequencies --   1378.3820              1388.9654              1389.1065
 Red. masses --      1.3835                 1.3614                 1.6824
 Frc consts  --      1.5487                 1.5474                 1.9127
 IR Inten    --      7.9766                36.7279                55.3217

                     79                     80                     81
                      A                      A                      A
 Frequencies --   1400.2718              1411.7474              1421.0198
 Red. masses --      1.4003                 1.4305                 1.3522
 Frc consts  --      1.6177                 1.6798                 1.6088
 IR Inten    --      5.4641                 3.0788                 2.3219

                     82                     83                     84
                      A                      A                      A
 Frequencies --   1442.2101              1462.9915              1488.4602
 Red. masses --      1.3738                 1.2638                 1.1815
 Frc consts  --      1.6836                 1.5937                 1.5422
 IR Inten    --     14.7322                15.1948                53.9281

                     85                     86                     87
                      A                      A                      A
 Frequencies --   1503.7795              1512.0300              1523.6324
 Red. masses --      1.0908                 1.0869                 1.0961
 Frc consts  --      1.4533                 1.4641                 1.4992
 IR Inten    --      1.9754                 2.4836                11.6523

                     88                     89                     90
                      A                      A                      A
 Frequencies --   1529.5285              1540.2264              1545.0622
 Red. masses --      1.0929                 1.0982                 1.0963
 Frc consts  --      1.5064                 1.5349                 1.5419
 IR Inten    --     11.2433                15.5042                 5.7080

                     91                     92                     93
                      A                      A                      A
 Frequencies --   1773.1996              2272.0031              3031.9219
 Red. masses --     10.7048                13.7050                 1.0856
 Frc consts  --     19.8310                41.6818                 5.8797
 IR Inten    --    167.5716               464.5706                18.4545

                     94                     95                     96
                      A                      A                      A
 Frequencies --   3039.1659              3045.3598              3066.7908
 Red. masses --      1.0641                 1.0682                 1.0702
 Frc consts  --      5.7909                 5.8371                 5.9303
 IR Inten    --     28.9993                17.4091                63.2596

                     97                     98                     99
                      A                      A                      A
 Frequencies --   3067.8536              3075.9968              3086.4234
 Red. masses --      1.0596                 1.0792                 1.0946
 Frc consts  --      5.8754                 6.0160                 6.1433
 IR Inten    --     29.1971                10.4329                18.0614

                    100                    101                    102
                      A                      A                      A
 Frequencies --   3088.6645              3089.8193              3100.4574
 Red. masses --      1.0764                 1.0873                 1.0661
 Frc consts  --      6.0504                 6.1160                 6.0379
 IR Inten    --     28.1263                42.2871                51.7431

                    103                    104                    105
                      A                      A                      A
 Frequencies --   3104.8866              3113.6828              3123.1582
 Red. masses --      1.0959                 1.1070                 1.0870
 Frc consts  --      6.2244                 6.3233                 6.2469
 IR Inten    --     16.3831                36.2633                59.5523

                    106                    107                    108
                      A                      A                      A
 Frequencies --   3125.5044              3126.6022              3149.7102
 Red. masses --      1.0889                 1.0899                 1.0957
 Frc consts  --      6.2671                 6.2772                 6.4047
 IR Inten    --     28.4876                20.0151                 7.7770

                    109                    110                    111
                      A                      A                      A
 Frequencies --   3156.3832              3160.4822              3639.4534
 Red. masses --      1.1050                 1.0951                 1.0670
 Frc consts  --      6.4864                 6.4449                 8.3267
 IR Inten    --     19.0858                 4.5948               179.4854

 - Thermochemistry -
 -------------------
 Temperature   298.150 Kelvin.  Pressure   1.00000 Atm.
 Atom     1 has atomic number  6 and mass  12.00000

 Molecular mass:   281.13756 amu.
 Principal axes and moments of inertia in atomic units:
                           1         2         3
     Eigenvalues --  2871.026186491.770007207.93676
           X            0.99990   0.00694  -0.01213
           Y           -0.00670   0.99977   0.02026
           Z            0.01227  -0.02018   0.99972
 This molecule is an asymmetric top.
 Rotational symmetry number  1.
 Warning -- assumption of classical behavior for rotation
           may cause significant error
 Rotational temperatures (Kelvin)      0.03017     0.01334     0.01202
 Rotational constants (GHZ):           0.62860     0.27800     0.25038
 Zero-point vibrational energy     865591.7 (Joules/Mol)
                                  206.88138 (Kcal/Mol)
 Warning -- explicit consideration of  26 degrees of freedom as
           vibrations may cause significant error
 Vibrational temperatures:     39.99    70.19    91.63   118.76   159.16
          (Kelvin)            167.62   195.86   218.71   264.88   275.71
                              341.96   358.92   387.86   421.01   484.33
                              545.21   583.79   609.14   636.02   653.28
                              666.76   709.64   759.27   777.97   792.85
                              827.36   895.75   923.18   947.38  1013.53
                             1061.77  1094.05  1130.00  1170.78  1189.10
                             1206.15  1217.75  1247.39  1281.33  1288.15
                             1299.93  1346.71  1373.55  1379.20  1396.80
                             1409.65  1422.59  1483.70  1493.27  1510.49
                             1530.09  1534.39  1561.32  1623.92  1647.02
                             1659.58  1668.53  1684.05  1689.52  1709.44
                             1742.94  1760.27  1777.53  1822.81  1846.36
                             1860.45  1863.78  1886.56  1908.82  1912.69
                             1922.19  1939.30  1947.20  1960.08  1979.15
                             1983.18  1998.41  1998.61  2014.68  2031.19
                             2044.53  2075.02  2104.92  2141.56  2163.60
                             2175.47  2192.17  2200.65  2216.04  2223.00
                             2551.24  3268.91  4362.26  4372.68  4381.59
                             4412.43  4413.96  4425.67  4440.67  4443.90
                             4445.56  4460.87  4467.24  4479.90  4493.53
                             4496.90  4498.48  4531.73  4541.33  4547.23
                             5236.36

 Zero-point correction=                           0.329686 (Hartree/Particle)
 Thermal correction to Energy=                    0.346788
 Thermal correction to Enthalpy=                  0.347732
 Thermal correction to Gibbs Free Energy=         0.284539
 Sum of electronic and zero-point Energies=           -971.649962
 Sum of electronic and thermal Energies=              -971.632861
 Sum of electronic and thermal Enthalpies=            -971.631917
 Sum of electronic and thermal Free Energies=         -971.695110

                     E (Thermal)             CV                S
                      KCal/Mol        Cal/Mol-Kelvin    Cal/Mol-Kelvin
 Total                  217.613             68.020            133.001
 Electronic               0.000              0.000              0.000
 Translational            0.889              2.981             42.799
 Rotational               0.889              2.981             33.263
 Vibrational            215.835             62.058             56.939
 Vibration     1          0.593              1.984              5.981
 Vibration     2          0.595              1.978              4.866
 Vibration     3          0.597              1.972              4.340
 Vibration     4          0.600              1.961              3.830
 Vibration     5          0.606              1.941              3.258
 Vibration     6          0.608              1.936              3.158
 Vibration     7          0.614              1.917              2.858
 Vibration     8          0.619              1.900              2.647
 Vibration     9          0.631              1.862              2.286
 Vibration    10          0.634              1.851              2.212
 Vibration    11          0.656              1.783              1.820
 Vibration    12          0.662              1.764              1.734
 Vibration    13          0.674              1.729              1.599
 Vibration    14          0.688              1.687              1.459
 Vibration    15          0.717              1.602              1.228
 Vibration    16          0.749              1.515              1.043
 Vibration    17          0.771              1.458              0.942
 Vibration    18          0.786              1.419              0.881
 Vibration    19          0.802              1.378              0.820
 Vibration    20          0.812              1.352              0.784
 Vibration    21          0.821              1.331              0.756
 Vibration    22          0.849              1.265              0.675
 Vibration    23          0.883              1.189              0.592
 Vibration    24          0.896              1.160              0.564
 Vibration    25          0.906              1.137              0.542
 Vibration    26          0.931              1.085              0.495

 Optimization completed.
    -- Stationary point found.
 Normal termination of Gaussian 16 at Mon Dec 14 18:29:31 2020.

 ----------------------------------------------------------------------
 # B3LYP/6-311++G(d,p) empiricaldispersion=gd3bj scf=xqc pop=npa geom=c
 heck
 ----------------------------------------------------------------------

 ----------------------------------------
 CID_152542352_JID_10147_Energie_neutraal
 ----------------------------------------
 Structure from the checkpoint file:  "JID_10147.chk"
 Charge =  0 Multiplicity = 1

 SCF Done:  E(RB3LYP) =  -972.254097000     A.U. after   15 cycles
 Normal termination of Gaussian 16 at Mon Dec 14 18:37:46 2020.

 ----------------------------------------------------------------------
 # B3LYP/6-311++G(d,p) empiricaldispersion=gd3bj scf=xqc pop=npa geom=c
 heck
 ----------------------------------------------------------------------

 --------------------------------------
 CID_152542352_JID_10147_Energie_kation
 --------------------------------------
 Structure from the checkpoint file:  "JID_10147.chk"
 Charge =  1 Multiplicity = 2

 SCF Done:  E(UB3LYP) =  -971.929456691     A.U. after   33 cycles
 SCF Done:  E(UB3LYP) =  -971.929456691     a.u. after    1 cycles
 Normal termination of Gaussian 16 at Mon Dec 14 19:02:23 2020.
 Gaussian 16:  ES64L-G16RevA.03 25-Dec-2016

 ----------------------------------------------------------------------
 # B3LYP/6-311++G(d,p) empiricaldispersion=gd3bj scf=xqc pop=npa geom=c
 heck
 ----------------------------------------------------------------------

 -------------------------------------
 CID_152542352_JID_10147_Energie_anion
 -------------------------------------
 Structure from the checkpoint file:  "JID_10147.chk"
 Charge = -1 Multiplicity = 2

                         Standard orientation:
 ---------------------------------------------------------------------
 Center     Atomic      Atomic             Coordinates (Angstroms)
 Number     Number       Type             X           Y           Z
 ---------------------------------------------------------------------
      1          6           0       -3.469598   -1.527231    0.431179
      2          6           0       -3.793631   -0.266123    1.238595
      3          6           0       -2.658235    0.739708    1.110434
      4          8           0       -2.403783    1.085780   -0.269250
      5          6           0       -2.260680    0.082657   -1.205729
      6          6           0       -3.166702   -1.144541   -1.023374
      7          8           0       -0.836926   -0.273255   -1.445394
      8          6           0       -0.069341   -0.870938   -0.532034
      9          8           0       -0.446949   -1.265827    0.559508
     10          6           0        1.353895   -1.028721   -1.043099
     11          6           0        2.232647   -1.937214   -0.133341
     12          6           0        3.340883   -0.982662    0.335727
     13          6           0        3.615897   -0.204740   -0.968916
     14          6           0        2.166606    0.306585   -1.116854
     15          6           0        2.064806    1.092097    0.208152
     16          6           0        2.708561    0.107256    1.257613
     17          8           0        1.834016   -0.373681    2.245700
     18          7           0        0.712208    1.508771    0.616552
     19          7           0        0.247243    2.437951   -0.053055
     20          7           0       -0.273618    3.294273   -0.596829
     21          1           0       -2.608567   -2.031013    0.873440
     22          1           0       -4.314777   -2.225187    0.448749
     23          1           0       -4.723411    0.189776    0.871802
     24          1           0       -3.942609   -0.506685    2.297897
     25          1           0       -2.913709    1.695687    1.574346
     26          1           0       -1.740037    0.359204    1.561218
     27          1           0       -2.471446    0.551764   -2.167532
     28          1           0       -2.740623   -1.982150   -1.584771
     29          1           0       -4.112067   -0.883674   -1.517079
     30          1           0        1.276631   -1.428482   -2.059154
     31          1           0        1.663524   -2.369384    0.689694
     32          1           0        2.661041   -2.760085   -0.713966
     33          1           0        4.193712   -1.487279    0.795145
     34          1           0        4.341609    0.609643   -0.863832
     35          1           0        3.934594   -0.852510   -1.792063
     36          1           0        1.934770    0.904118   -2.001155
     37          1           0        2.697177    1.984712    0.117838
     38          1           0        3.497144    0.631903    1.804514
     39          1           0        1.004709   -0.668265    1.823599
 ---------------------------------------------------------------------

 SCF Done:  E(UB3LYP) =  -972.246322169     A.U. after   33 cycles
 SCF Done:  E(UB3LYP) =  -972.246322169     a.u. after    1 cycles

 The electronic state is 2-A.
 Alpha  occ. eigenvalues --  -19.07023 -19.04605 -19.02036 -19.01623 -14.37244
 Alpha  occ. eigenvalues --  -14.27365 -14.25354 -10.21287 -10.19287 -10.12803
 Alpha  occ. eigenvalues --  -10.12360 -10.12256 -10.09454 -10.09329 -10.08627
 Alpha  occ. eigenvalues --  -10.08166 -10.07962 -10.07734 -10.07651 -10.07106
 Alpha  occ. eigenvalues --   -1.03540  -1.01745  -0.96204  -0.92785  -0.92118
 Alpha  occ. eigenvalues --   -0.87800  -0.78491  -0.71520  -0.69303  -0.66899
 Alpha  occ. eigenvalues --   -0.64769  -0.61086  -0.58614  -0.56536  -0.54509
 Alpha  occ. eigenvalues --   -0.51391  -0.48675  -0.47099  -0.45174  -0.44019
 Alpha  occ. eigenvalues --   -0.43923  -0.42529  -0.41180  -0.40208  -0.39892
 Alpha  occ. eigenvalues --   -0.39264  -0.38638  -0.37688  -0.35780  -0.35408
 Alpha  occ. eigenvalues --   -0.35101  -0.34367  -0.33480  -0.32664  -0.32073
 Alpha  occ. eigenvalues --   -0.31708  -0.29516  -0.29399  -0.28906  -0.27700
 Alpha  occ. eigenvalues --   -0.26651  -0.26526  -0.25958  -0.25134  -0.24415
 Alpha  occ. eigenvalues --   -0.23935  -0.23654  -0.23138  -0.21920  -0.20389
 Alpha  occ. eigenvalues --   -0.19715  -0.18851  -0.18657  -0.16771  -0.15100
 Alpha  occ. eigenvalues --    0.03865
 Alpha virt. eigenvalues --    0.05533   0.06408   0.06913   0.07415   0.07917
 Alpha virt. eigenvalues --    0.08105   0.08420   0.08701   0.09736   0.10050
 Alpha virt. eigenvalues --    0.10380   0.10455   0.10937   0.11426   0.11486

  Beta  occ. eigenvalues --  -19.07022 -19.04605 -19.02020 -19.01621 -14.37161
  Beta  occ. eigenvalues --  -14.27216 -14.25378 -10.21269 -10.19279 -10.12797
  Beta  occ. eigenvalues --  -10.12324 -10.12253 -10.09443 -10.09319 -10.08604
  Beta  occ. eigenvalues --  -10.08156 -10.07956 -10.07702 -10.07641 -10.07091
  Beta  occ. eigenvalues --   -1.03361  -1.01725  -0.96192  -0.92775  -0.92104
  Beta  occ. eigenvalues --   -0.87704  -0.78458  -0.71495  -0.69278  -0.66849
  Beta  occ. eigenvalues --   -0.64722  -0.61037  -0.58583  -0.56506  -0.54462
  Beta  occ. eigenvalues --   -0.51340  -0.48620  -0.47059  -0.45133  -0.43927
  Beta  occ. eigenvalues --   -0.43884  -0.42454  -0.41118  -0.40142  -0.39704
  Beta  occ. eigenvalues --   -0.39201  -0.38553  -0.37652  -0.35710  -0.35234
  Beta  occ. eigenvalues --   -0.34960  -0.34315  -0.33447  -0.32610  -0.32029
  Beta  occ. eigenvalues --   -0.31635  -0.29489  -0.29376  -0.28863  -0.27658
  Beta  occ. eigenvalues --   -0.26619  -0.26496  -0.25928  -0.25104  -0.24389
  Beta  occ. eigenvalues --   -0.23903  -0.23593  -0.23110  -0.21883  -0.20334
  Beta  occ. eigenvalues --   -0.19608  -0.18806  -0.18633  -0.16754  -0.15045
  Beta virt. eigenvalues --    0.05964   0.06478   0.07291   0.07567   0.07934
  Beta virt. eigenvalues --    0.08221   0.08462   0.08741   0.09089   0.09974
  Beta virt. eigenvalues --    0.10311   0.10658   0.10719   0.11193   0.11595

 Mulliken charges and spin densities:
               1          2
     1  C   -0.230100   0.080416
     2  C   -0.042598  -0.531006
     3  C   -0.162637   0.004461
     4  O   -0.012470  -0.002223
     5  C   -0.217209   0.139390
     6  C    0.673907  -0.878937
     7  O    0.150125   0.005802
     8  C   -0.109641  -0.484774
     9  O   -0.124556  -0.005932
    10  C   -0.431644   0.235706
    11  C    0.614667  -1.518827
    12  C   -0.328088   1.177166
    13  C    0.387726  -1.172351
    14  C   -0.047984   0.376792
    15  C    0.247158  -0.563527
    16  C   -0.252875  -0.739636
    17  O   -0.122441   0.002898
    18  N   -0.234853   0.046694
    19  N    0.279906   0.185262
    20  N   -0.047810  -0.071988
    21  H    0.169699   0.009152
    22  H   -0.178980   0.354058
    23  H    0.008582   0.141868
    24  H    0.068734   0.079209
    25  H    0.090953   0.084237
    26  H    0.196745  -0.014507
    27  H   -0.197748   0.397061
    28  H   -0.104568   0.276757
    29  H   -0.218234   0.402329
    30  H   -0.245761   0.538637
    31  H    0.243935  -0.066238
    32  H   -0.290887   0.463930
    33  H   -0.135851   0.381183
    34  H   -0.367776   0.530740
    35  H   -0.408494   0.569073
    36  H    0.043815   0.223038
    37  H    0.036197   0.182672
    38  H    0.050798   0.138543
    39  H    0.250259   0.022874
 Sum of Mulliken charges =  -1.00000   1.00000

 Dipole moment (field-independent basis, Debye):
    X=             -2.1228    Y=              1.0033    Z=              2.8788  Tot=              3.7149
 Quadrupole moment (field-independent basis, Debye-Ang):
   XX=           -193.7465   YY=           -162.4237   ZZ=           -160.8242
   XY=              2.7687   XZ=             -0.4481   YZ=             -2.8123

 Summary of Natural Population Analysis:

                                       Natural Population
                Natural  -----------------------------------------------
    Atom  No    Charge         Core      Valence    Rydberg      Total
 -----------------------------------------------------------------------
      C    1   -0.19582      0.99962     2.18725    0.00895     3.19582
      C    2   -0.20492      0.99963     2.19751    0.00778     3.20492
      C    3   -0.01224      0.99955     2.00248    0.01021     3.01224
      O    4   -0.29555      0.99987     3.28566    0.01001     4.29555
      C    5    0.22376      0.99953     1.75733    0.01938     2.77624
      C    6   -0.21391      0.99960     2.20591    0.00839     3.21391
      O    7   -0.29120      0.99985     3.28128    0.01007     4.29120
      C    8    0.42731      0.99963     1.54495    0.02811     2.57269
      O    9   -0.33158      0.99986     3.32626    0.00546     4.33158
      C   10   -0.15961      0.99953     2.14626    0.01382     3.15961
      C   11   -0.19418      0.99961     2.18427    0.01031     3.19418
      C   12   -0.11896      0.99958     2.10665    0.01273     3.11896
      C   13   -0.19057      0.99961     2.18126    0.00970     3.19057
      C   14   -0.10486      0.99957     2.09283    0.01246     3.10486
      C   15   -0.02712      0.99951     2.01324    0.01437     3.02712
      C   16    0.06882      0.99952     1.91457    0.01709     2.93118
      O   17   -0.37561      0.99989     3.36937    0.00636     4.37561
      N   18   -0.19682      0.99967     2.68189    0.01526     3.69682
      N   19    0.12876      0.99969     2.35550    0.01605     3.37124
      N   20   -0.02458      0.99982     2.51200    0.01277     3.52458
      H   21    0.11032      0.00000     0.38832    0.00136     0.38968
      H   22    0.09761      0.00000     0.40135    0.00104     0.40239
      H   23    0.09459      0.00000     0.40423    0.00118     0.40541
      H   24    0.10091      0.00000     0.39834    0.00075     0.39909
      H   25    0.08902      0.00000     0.40990    0.00108     0.41098
      H   26    0.09831      0.00000     0.39987    0.00182     0.40169
      H   27    0.09047      0.00000     0.40803    0.00150     0.40953
      H   28    0.10958      0.00000     0.38937    0.00105     0.39042
      H   29    0.10335      0.00000     0.39516    0.00149     0.39665
      H   30    0.12178      0.00000     0.37590    0.00233     0.37822
      H   31    0.11229      0.00000     0.38629    0.00143     0.38771
      H   32    0.10477      0.00000     0.39402    0.00121     0.39523
      H   33    0.10428      0.00000     0.39475    0.00096     0.39572
      H   34    0.10256      0.00000     0.39598    0.00146     0.39744
      H   35    0.10664      0.00000     0.39118    0.00218     0.39336
      H   36    0.10972      0.00000     0.38885    0.00143     0.39028
      H   37    0.09981      0.00000     0.39879    0.00140     0.40019
      H   38    0.08946      0.00000     0.40942    0.00112     0.41054
      H   39    0.24342      0.00000     0.25331    0.00328     0.25658
 =======================================================================
   * Total *   -0.00000     19.99314    54.72950    0.27736    75.00000

 Normal termination of Gaussian 16 at Mon Dec 14 19:27:35 2020.
