 Gaussian 16, Revision A.03,

 -----------------------------------------------------------
 # opt freq B3LYP/6-31G(d) empiricaldispersion=gd3bj scf=xqc
 -----------------------------------------------------------

 ------------------------------
 CID_83109531_JID_4113_neutraal
 ------------------------------
 Symbolic Z-matrix:
 Charge =  0 Multiplicity = 1

 SCF Done:  E(RB3LYP) =  -633.265380572     A.U. after   14 cycles
 SCF Done:  E(RB3LYP) =  -633.271219174     A.U. after   12 cycles
 SCF Done:  E(RB3LYP) =  -633.272084322     A.U. after   12 cycles
 SCF Done:  E(RB3LYP) =  -633.272739998     A.U. after   12 cycles
 SCF Done:  E(RB3LYP) =  -633.272997959     A.U. after   11 cycles
 SCF Done:  E(RB3LYP) =  -633.273077459     A.U. after   11 cycles
 SCF Done:  E(RB3LYP) =  -633.273176070     A.U. after   11 cycles
 SCF Done:  E(RB3LYP) =  -633.273194998     A.U. after   10 cycles
 SCF Done:  E(RB3LYP) =  -633.273196657     A.U. after    9 cycles
 SCF Done:  E(RB3LYP) =  -633.273198673     A.U. after    9 cycles
 SCF Done:  E(RB3LYP) =  -633.273202333     A.U. after    8 cycles
 SCF Done:  E(RB3LYP) =  -633.273203348     A.U. after    8 cycles
 SCF Done:  E(RB3LYP) =  -633.273203931     A.U. after    8 cycles
 SCF Done:  E(RB3LYP) =  -633.273204363     A.U. after    7 cycles
 SCF Done:  E(RB3LYP) =  -633.273204533     A.U. after    7 cycles
 SCF Done:  E(RB3LYP) =  -633.273204585     A.U. after    7 cycles
 Optimization completed.
    -- Stationary point found.
 Normal termination of Gaussian 16 at Thu Dec 10 09:22:52 2020.

 --------------------------------------------------------------------
 #N Geom=AllCheck Guess=TCheck SCRF=Check GenChk RB3LYP/6-31G(d) Freq
 --------------------------------------------------------------------

 Structure from the checkpoint file:  "JID_4113.chk"
 ------------------------------
 CID_83109531_JID_4113_neutraal
 ------------------------------
 Charge =  0 Multiplicity = 1

 SCF Done:  E(RB3LYP) =  -633.273204585     A.U. after    1 cycles

  Exact polarizability: 131.190   5.040 125.630   0.398   1.557 117.021
 Approx polarizability: 167.652   6.836 172.183  10.844   3.999 182.585

                      1                      2                      3
                      A                      A                      A
 Frequencies --     24.2036                33.6871                56.2929
 Red. masses --      3.9227                 7.0981                 4.1972
 Frc consts  --      0.0014                 0.0047                 0.0078
 IR Inten    --      1.2916                 2.7131                 0.9203

                      4                      5                      6
                      A                      A                      A
 Frequencies --     62.7137               123.6223               139.1603
 Red. masses --      4.0601                 3.7231                 2.5076
 Frc consts  --      0.0094                 0.0335                 0.0286
 IR Inten    --      0.8810                 2.6541                 0.5747

                      7                      8                      9
                      A                      A                      A
 Frequencies --    196.9416               208.7966               214.6013
 Red. masses --      2.6069                 3.3571                 1.1517
 Frc consts  --      0.0596                 0.0862                 0.0313
 IR Inten    --      0.3021                 3.0827                 2.0343

                     10                     11                     12
                      A                      A                      A
 Frequencies --    228.4611               257.1722               298.8140
 Red. masses --      2.1803                 3.1187                 2.0820
 Frc consts  --      0.0670                 0.1215                 0.1095
 IR Inten    --      3.8467                 1.1666                 0.4065

                     13                     14                     15
                      A                      A                      A
 Frequencies --    326.9001               348.4527               409.4270
 Red. masses --      2.2892                 2.0709                 1.2308
 Frc consts  --      0.1441                 0.1482                 0.1216
 IR Inten    --      0.5112                 1.4144                75.3549

                     16                     17                     18
                      A                      A                      A
 Frequencies --    415.8862               431.9912               474.9315
 Red. masses --      2.4108                 2.3232                 2.3933
 Frc consts  --      0.2457                 0.2554                 0.3181
 IR Inten    --     11.6003                 6.1686                 2.2963

                     19                     20                     21
                      A                      A                      A
 Frequencies --    507.9276               521.7768               546.5031
 Red. masses --      1.9001                 1.2741                 3.3431
 Frc consts  --      0.2888                 0.2044                 0.5883
 IR Inten    --      9.9666                46.5973                 3.8595

                     22                     23                     24
                      A                      A                      A
 Frequencies --    571.7967               572.8107               588.3938
 Red. masses --      2.2784                 2.4713                 1.2993
 Frc consts  --      0.4389                 0.4777                 0.2650
 IR Inten    --     14.4757                16.8238               171.3718

                     25                     26                     27
                      A                      A                      A
 Frequencies --    624.8211               698.5036               769.0623
 Red. masses --      2.2296                 2.1399                 7.3692
 Frc consts  --      0.5129                 0.6152                 2.5680
 IR Inten    --      1.4140                72.9350                88.0542

                     28                     29                     30
                      A                      A                      A
 Frequencies --    790.0626               819.5452               855.8196
 Red. masses --      2.1746                 1.5078                 1.7906
 Frc consts  --      0.7997                 0.5967                 0.7727
 IR Inten    --      9.9638                 5.1175                 2.4080

                     31                     32                     33
                      A                      A                      A
 Frequencies --    856.7072               887.8223               894.6550
 Red. masses --      2.6682                 2.1038                 2.3135
 Frc consts  --      1.1538                 0.9770                 1.0910
 IR Inten    --      5.4971                 0.6232                 4.9705

                     34                     35                     36
                      A                      A                      A
 Frequencies --    914.3215               959.0067               979.7171
 Red. masses --      1.4538                 2.9791                 1.8527
 Frc consts  --      0.7161                 1.6143                 1.0478
 IR Inten    --      5.6759                 2.4066                 1.8348

                     37                     38                     39
                      A                      A                      A
 Frequencies --    993.3436              1012.4766              1024.6356
 Red. masses --      1.9650                 1.5731                 1.5499
 Frc consts  --      1.1424                 0.9501                 0.9588
 IR Inten    --      3.7874                 0.9419                23.8694

                     40                     41                     42
                      A                      A                      A
 Frequencies --   1052.9410              1078.9476              1096.7860
 Red. masses --      1.6879                 1.9039                 1.8057
 Frc consts  --      1.1026                 1.3058                 1.2798
 IR Inten    --      2.1808                36.8406                 1.8257

                     43                     44                     45
                      A                      A                      A
 Frequencies --   1115.7651              1119.1680              1147.1808
 Red. masses --      1.3150                 2.5196                 1.8236
 Frc consts  --      0.9645                 1.8594                 1.4140
 IR Inten    --      2.4649                 7.4615                29.3505

                     46                     47                     48
                      A                      A                      A
 Frequencies --   1153.4327              1164.8566              1181.5673
 Red. masses --      2.0419                 1.7163                 2.2123
 Frc consts  --      1.6005                 1.3721                 1.8198
 IR Inten    --     25.6108                 6.0626                19.3333

                     49                     50                     51
                      A                      A                      A
 Frequencies --   1206.9325              1250.3398              1270.9242
 Red. masses --      2.6747                 1.5622                 1.3764
 Frc consts  --      2.2956                 1.4389                 1.3099
 IR Inten    --      5.2333                 6.7544                 0.6920

                     52                     53                     54
                      A                      A                      A
 Frequencies --   1282.7359              1289.4332              1308.4863
 Red. masses --      1.2306                 1.2378                 1.3237
 Frc consts  --      1.1930                 1.2126                 1.3353
 IR Inten    --     25.9319                 1.7493                 0.6434

                     55                     56                     57
                      A                      A                      A
 Frequencies --   1342.8582              1353.3523              1374.8475
 Red. masses --      1.3490                 1.2636                 1.3255
 Frc consts  --      1.4332                 1.3636                 1.4761
 IR Inten    --      3.4384                 0.5702                24.1416

                     58                     59                     60
                      A                      A                      A
 Frequencies --   1378.3963              1383.7012              1389.5628
 Red. masses --      1.4082                 1.3282                 1.4425
 Frc consts  --      1.5764                 1.4983                 1.6410
 IR Inten    --      0.1029                29.2239                 8.9999

                     61                     62                     63
                      A                      A                      A
 Frequencies --   1401.0522              1410.9568              1416.7251
 Red. masses --      1.3918                 1.3322                 1.5443
 Frc consts  --      1.6097                 1.5626                 1.8263
 IR Inten    --      4.2271                11.7706                 0.3097

                     64                     65                     66
                      A                      A                      A
 Frequencies --   1427.9512              1438.4023              1447.1020
 Red. masses --      1.3340                 1.2538                 2.4276
 Frc consts  --      1.6027                 1.5284                 2.9952
 IR Inten    --     11.3136                 1.5018               153.6194

                     67                     68                     69
                      A                      A                      A
 Frequencies --   1484.9823              1511.9713              1516.0734
 Red. masses --      1.5949                 1.1936                 1.1110
 Frc consts  --      2.0722                 1.6077                 1.5045
 IR Inten    --     58.5707                23.7744                10.2249

                     70                     71                     72
                      A                      A                      A
 Frequencies --   1519.5165              1520.6716              1523.4094
 Red. masses --      1.0931                 1.0553                 1.1353
 Frc consts  --      1.4871                 1.4378                 1.5524
 IR Inten    --     13.5042                 1.3554                 3.6411

                     73                     74                     75
                      A                      A                      A
 Frequencies --   1530.9014              1533.1108              1535.3002
 Red. masses --      1.0853                 1.0967                 1.0919
 Frc consts  --      1.4986                 1.5187                 1.5164
 IR Inten    --      3.3211                24.8583                 6.0863

                     76                     77                     78
                      A                      A                      A
 Frequencies --   1544.3918              1658.7801              1819.5246
 Red. masses --      1.1304                 1.2029                 6.5059
 Frc consts  --      1.5886                 1.9502                12.6903
 IR Inten    --     32.6079               143.0897               440.5293

                     79                     80                     81
                      A                      A                      A
 Frequencies --   2986.0070              2996.2645              3004.0593
 Red. masses --      1.0733                 1.0736                 1.0816
 Frc consts  --      5.6383                 5.6785                 5.7508
 IR Inten    --     34.6949               125.8106                 8.8946

                     82                     83                     84
                      A                      A                      A
 Frequencies --   3019.0693              3020.3179              3026.1731
 Red. masses --      1.0743                 1.0708                 1.0632
 Frc consts  --      5.7693                 5.7552                 5.7365
 IR Inten    --      8.7173                15.5452                36.2389

                     85                     86                     87
                      A                      A                      A
 Frequencies --   3034.2100              3047.1887              3047.4192
 Red. masses --      1.0743                 1.0619                 1.0415
 Frc consts  --      5.8273                 5.8096                 5.6988
 IR Inten    --     75.2398                22.6445                30.1913

                     88                     89                     90
                      A                      A                      A
 Frequencies --   3067.2460              3068.0869              3075.8358
 Red. masses --      1.0957                 1.0962                 1.0951
 Frc consts  --      6.0733                 6.0795                 6.1042
 IR Inten    --    124.9241                 0.7800                46.9406

                     91                     92                     93
                      A                      A                      A
 Frequencies --   3086.7757              3087.8149              3105.5934
 Red. masses --      1.1009                 1.0928                 1.1022
 Frc consts  --      6.1805                 6.1389                 6.2634
 IR Inten    --     40.3972                54.8043                41.4604

                     94                     95                     96
                      A                      A                      A
 Frequencies --   3134.8934              3137.1106              3522.7339
 Red. masses --      1.0887                 1.0995                 1.0727
 Frc consts  --      6.3037                 6.3754                 7.8430
 IR Inten    --     18.8245                28.8082                 1.7960

                     97                     98                     99
                      A                      A                      A
 Frequencies --   3570.5807              3610.5194              3679.8433
 Red. masses --      1.0475                 1.0760                 1.0996
 Frc consts  --      7.8681                 8.2646                 8.7732
 IR Inten    --     22.7785                24.5330                24.3007

 - Thermochemistry -
 -------------------
 Temperature   298.150 Kelvin.  Pressure   1.00000 Atm.
 Atom     1 has atomic number  6 and mass  12.00000

 Molecular mass:   199.16846 amu.
 Principal axes and moments of inertia in atomic units:
                           1         2         3
     Eigenvalues --  1827.512164396.880694908.99443
           X            0.99972  -0.00571  -0.02303
           Y            0.00532   0.99984  -0.01713
           Z            0.02312   0.01701   0.99959
 This molecule is an asymmetric top.
 Rotational symmetry number  1.
 Warning -- assumption of classical behavior for rotation
           may cause significant error
 Rotational temperatures (Kelvin)      0.04739     0.01970     0.01764
 Rotational constants (GHZ):           0.98754     0.41046     0.36764
 Zero-point vibrational energy     838298.4 (Joules/Mol)
                                  200.35812 (Kcal/Mol)
 Warning -- explicit consideration of  24 degrees of freedom as
           vibrations may cause significant error
 Vibrational temperatures:     34.82    48.47    80.99    90.23   177.86
          (Kelvin)            200.22   283.36   300.41   308.76   328.70
                              370.01   429.93   470.34   501.35   589.07
                              598.37   621.54   683.32   730.79   750.72
                              786.30   822.69   824.15   846.57   898.98
                             1004.99  1106.51  1136.72  1179.14  1231.33
                             1232.61  1277.38  1287.21  1315.50  1379.80
                             1409.59  1429.20  1456.73  1474.22  1514.95
                             1552.36  1578.03  1605.34  1610.23  1650.54
                             1659.53  1675.97  1700.01  1736.51  1798.96
                             1828.58  1845.57  1855.21  1882.62  1932.07
                             1947.17  1978.10  1983.20  1990.84  1999.27
                             2015.80  2030.05  2038.35  2054.50  2069.54
                             2082.06  2136.56  2175.39  2181.29  2186.25
                             2187.91  2191.85  2202.63  2205.80  2208.95
                             2222.04  2386.61  2617.89  4296.20  4310.96
                             4322.17  4343.77  4345.56  4353.99  4365.55
                             4384.22  4384.56  4413.08  4414.29  4425.44
                             4441.18  4442.68  4468.26  4510.41  4513.60
                             5068.43  5137.27  5194.73  5294.47

 Zero-point correction=                           0.319291 (Hartree/Particle)
 Thermal correction to Energy=                    0.334343
 Thermal correction to Enthalpy=                  0.335287
 Thermal correction to Gibbs Free Energy=         0.276153
 Sum of electronic and zero-point Energies=           -632.953914
 Sum of electronic and thermal Energies=              -632.938862
 Sum of electronic and thermal Enthalpies=            -632.937917
 Sum of electronic and thermal Free Energies=         -632.997052

                     E (Thermal)             CV                S
                      KCal/Mol        Cal/Mol-Kelvin    Cal/Mol-Kelvin
 Total                  209.803             57.806            124.458
 Electronic               0.000              0.000              0.000
 Translational            0.889              2.981             41.772
 Rotational               0.889              2.981             32.045
 Vibrational            208.026             51.844             50.642
 Vibration     1          0.593              1.985              6.255
 Vibration     2          0.594              1.983              5.600
 Vibration     3          0.596              1.975              4.583
 Vibration     4          0.597              1.972              4.370
 Vibration     5          0.610              1.929              3.043
 Vibration     6          0.615              1.914              2.815
 Vibration     7          0.636              1.844              2.161
 Vibration     8          0.642              1.827              2.054
 Vibration     9          0.645              1.819              2.004
 Vibration    10          0.651              1.798              1.891
 Vibration    11          0.667              1.751              1.681
 Vibration    12          0.692              1.676              1.424
 Vibration    13          0.711              1.622              1.275
 Vibration    14          0.726              1.578              1.173
 Vibration    15          0.774              1.450              0.929
 Vibration    16          0.779              1.436              0.906
 Vibration    17          0.793              1.401              0.852
 Vibration    18          0.832              1.306              0.724
 Vibration    19          0.863              1.232              0.639
 Vibration    20          0.877              1.202              0.606
 Vibration    21          0.902              1.147              0.551
 Vibration    22          0.928              1.092              0.501
 Vibration    23          0.929              1.090              0.499
 Vibration    24          0.946              1.057              0.470

 Optimization completed.
    -- Stationary point found.
 Normal termination of Gaussian 16 at Thu Dec 10 09:33:15 2020.

 ----------------------------------------------------------------------
 # B3LYP/6-311++G(d,p) empiricaldispersion=gd3bj scf=xqc pop=npa geom=c
 heck
 ----------------------------------------------------------------------

 --------------------------------------
 CID_83109531_JID_4113_Energie_neutraal
 --------------------------------------
 Structure from the checkpoint file:  "JID_4113.chk"
 Charge =  0 Multiplicity = 1

 SCF Done:  E(RB3LYP) =  -633.467897153     A.U. after   13 cycles
 Normal termination of Gaussian 16 at Thu Dec 10 09:37:34 2020.

 ----------------------------------------------------------------------
 # B3LYP/6-311++G(d,p) empiricaldispersion=gd3bj scf=xqc pop=npa geom=c
 heck
 ----------------------------------------------------------------------

 ------------------------------------
 CID_83109531_JID_4113_Energie_kation
 ------------------------------------
 Structure from the checkpoint file:  "JID_4113.chk"
 Charge =  1 Multiplicity = 2

 SCF Done:  E(UB3LYP) =  -633.171357555     A.U. after   24 cycles
 Normal termination of Gaussian 16 at Thu Dec 10 09:47:09 2020.
 Gaussian 16:  ES64L-G16RevA.03 25-Dec-2016

 ----------------------------------------------------------------------
 # B3LYP/6-311++G(d,p) empiricaldispersion=gd3bj scf=xqc pop=npa geom=c
 heck
 ----------------------------------------------------------------------

 -----------------------------------
 CID_83109531_JID_4113_Energie_anion
 -----------------------------------
 Structure from the checkpoint file:  "JID_4113.chk"
 Charge = -1 Multiplicity = 2

                         Standard orientation:
 ---------------------------------------------------------------------
 Center     Atomic      Atomic             Coordinates (Angstroms)
 Number     Number       Type             X           Y           Z
 ---------------------------------------------------------------------
      1          6           0       -3.327438   -1.087084    1.235786
      2          6           0       -2.736059   -0.068398    0.259874
      3          6           0       -2.207363    1.184560    0.982523
      4          6           0       -1.661442    2.229992   -0.000059
      5          6           0       -0.603624    1.629451   -0.935818
      6          6           0       -1.150298    0.386461   -1.649283
      7          6           0       -1.645959   -0.683831   -0.649244
      8          7           0       -0.609970   -1.313028    0.176268
      9          6           0        0.403083   -2.106752   -0.498175
     10          6           0        1.712536   -1.364782   -0.820050
     11          7           0        2.296154   -0.841718    0.404227
     12          6           0        3.037411    0.306618    0.577243
     13          8           0        3.499501    0.621924    1.665999
     14          7           0        3.159688    1.119936   -0.546823
     15          1           0       -2.563125   -1.452207    1.927303
     16          1           0       -4.142200   -0.640450    1.817861
     17          1           0       -3.729168   -1.956179    0.701246
     18          1           0       -3.538119    0.265828   -0.416076
     19          1           0       -3.011707    1.619859    1.589053
     20          1           0       -1.419143    0.897247    1.694201
     21          1           0       -1.244633    3.084211    0.547206
     22          1           0       -2.494317    2.618875   -0.604163
     23          1           0        0.292179    1.366975   -0.358513
     24          1           0       -0.279220    2.375174   -1.671724
     25          1           0       -0.398460   -0.042496   -2.323438
     26          1           0       -1.996855    0.679353   -2.287092
     27          1           0       -2.110179   -1.499682   -1.220899
     28          1           0       -0.160135   -0.635783    0.786456
     29          1           0        0.659893   -2.976793    0.127867
     30          1           0       -0.014857   -2.511801   -1.426872
     31          1           0        2.403183   -2.046132   -1.343889
     32          1           0        1.501657   -0.522623   -1.481856
     33          1           0        2.333355   -1.451423    1.210737
     34          1           0        3.238219    0.678124   -1.453162
     35          1           0        3.831437    1.860795   -0.394729
 ---------------------------------------------------------------------

 SCF Done:  E(UB3LYP) =  -633.458579310     A.U. after   31 cycles

 The electronic state is 2-A.
 Alpha  occ. eigenvalues --  -18.98068 -14.23488 -14.22284 -14.19507 -10.19612
 Alpha  occ. eigenvalues --  -10.10808 -10.10144 -10.09847 -10.07703 -10.07190
 Alpha  occ. eigenvalues --  -10.06931 -10.06237 -10.06181 -10.06095  -0.94700
 Alpha  occ. eigenvalues --   -0.83621  -0.81026  -0.78670  -0.72833  -0.66992
 Alpha  occ. eigenvalues --   -0.65118  -0.62483  -0.57802  -0.53422  -0.51388
 Alpha  occ. eigenvalues --   -0.51050  -0.49121  -0.45304  -0.44393  -0.40406
 Alpha  occ. eigenvalues --   -0.39662  -0.37868  -0.36647  -0.36346  -0.35120
 Alpha  occ. eigenvalues --   -0.33924  -0.33423  -0.32448  -0.31930  -0.30933
 Alpha  occ. eigenvalues --   -0.30321  -0.28577  -0.28015  -0.27721  -0.27143
 Alpha  occ. eigenvalues --   -0.26806  -0.25133  -0.23479  -0.22497  -0.20996
 Alpha  occ. eigenvalues --   -0.20221  -0.18442  -0.16386  -0.15843  -0.12338
 Alpha  occ. eigenvalues --    0.04162
 Alpha virt. eigenvalues --    0.06129   0.06989   0.07417   0.08221   0.08759
 Alpha virt. eigenvalues --    0.09203   0.09778   0.10174   0.10898   0.11473
 Alpha virt. eigenvalues --    0.11904   0.12327   0.12525   0.12732   0.13602

  Beta  occ. eigenvalues --  -18.98063 -14.23481 -14.22227 -14.19505 -10.19608
  Beta  occ. eigenvalues --  -10.10767 -10.10124 -10.09839 -10.07697 -10.07185
  Beta  occ. eigenvalues --  -10.06922 -10.06228 -10.06171 -10.06074  -0.94685
  Beta  occ. eigenvalues --   -0.83597  -0.81000  -0.78593  -0.72813  -0.66969
  Beta  occ. eigenvalues --   -0.65081  -0.62442  -0.57776  -0.53363  -0.51351
  Beta  occ. eigenvalues --   -0.50989  -0.49088  -0.45265  -0.44326  -0.40370
  Beta  occ. eigenvalues --   -0.39613  -0.37825  -0.36614  -0.36314  -0.35086
  Beta  occ. eigenvalues --   -0.33898  -0.33399  -0.32427  -0.31910  -0.30897
  Beta  occ. eigenvalues --   -0.30301  -0.28531  -0.27987  -0.27687  -0.27117
  Beta  occ. eigenvalues --   -0.26782  -0.25113  -0.23459  -0.22476  -0.20971
  Beta  occ. eigenvalues --   -0.20198  -0.18403  -0.16350  -0.15829  -0.12313
  Beta virt. eigenvalues --    0.06216   0.07299   0.07478   0.07759   0.08678
  Beta virt. eigenvalues --    0.09340   0.09529   0.10154   0.10326   0.11270
  Beta virt. eigenvalues --    0.11869   0.12334   0.12495   0.12846   0.12979

 Mulliken charges and spin densities:
               1          2
     1  C    0.042525  -0.661434
     2  C   -0.148820   0.162066
     3  C   -0.271271  -0.057691
     4  C    0.090520  -0.601210
     5  C    0.106917  -0.444558
     6  C    0.261609  -0.534638
     7  C   -0.536916   0.209132
     8  N    0.064645   0.032486
     9  C    0.409792  -0.844335
    10  C    0.238210  -0.294237
    11  N   -0.326868   0.018855
    12  C    0.267893  -0.208408
    13  O   -0.377366   0.001919
    14  N   -0.247503  -0.122325
    15  H    0.137576   0.018831
    16  H    0.010420   0.116880
    17  H    0.012655   0.117550
    18  H   -0.181114   0.356926
    19  H    0.109650   0.053460
    20  H    0.083074   0.065868
    21  H    0.030863   0.124083
    22  H    0.004475   0.121259
    23  H    0.551584  -0.350716
    24  H   -0.304752   0.492029
    25  H   -0.703466   0.901531
    26  H   -0.001766   0.148091
    27  H   -0.059506   0.253436
    28  H    0.203058  -0.001036
    29  H    0.004519   0.155978
    30  H   -0.137854   0.304781
    31  H   -1.055839   1.285483
    32  H    0.824357  -0.778232
    33  H    0.342223  -0.036948
    34  H   -0.500547   0.755081
    35  H    0.057022   0.240044
 Sum of Mulliken charges =  -1.00000   1.00000

 Dipole moment (field-independent basis, Debye):
    X=             -5.3205    Y=              0.1262    Z=              4.4855  Tot=              6.9601
 Quadrupole moment (field-independent basis, Debye-Ang):
   XX=           -160.1173   YY=           -127.2505   ZZ=           -136.8422
   XY=             -1.6389   XZ=              3.5789   YZ=             -4.7758

 Summary of Natural Population Analysis:

                                       Natural Population
                Natural  -----------------------------------------------
    Atom  No    Charge         Core      Valence    Rydberg      Total
 -----------------------------------------------------------------------
      C    1   -0.28219      0.99965     2.27740    0.00515     3.28219
      C    2   -0.11205      0.99958     2.10205    0.01042     3.11205
      C    3   -0.18997      0.99961     2.18164    0.00871     3.18997
      C    4   -0.18762      0.99963     2.18038    0.00762     3.18762
      C    5   -0.19674      0.99962     2.18803    0.00909     3.19674
      C    6   -0.19841      0.99961     2.18907    0.00974     3.19841
      C    7   -0.00152      0.99957     1.98768    0.01427     3.00152
      N    8   -0.35346      0.99974     2.84213    0.01160     3.85346
      C    9   -0.08587      0.99962     2.07376    0.01249     3.08587
      C   10   -0.09913      0.99961     2.08756    0.01196     3.09913
      N   11   -0.33637      0.99968     2.82649    0.01020     3.83637
      C   12    0.40195      0.99972     1.57529    0.02304     2.59805
      O   13   -0.34358      0.99987     3.33833    0.00538     4.34358
      N   14   -0.41764      0.99972     2.90905    0.00888     3.91764
      H   15    0.10379      0.00000     0.39518    0.00103     0.39621
      H   16    0.09348      0.00000     0.40565    0.00087     0.40652
      H   17    0.09818      0.00000     0.40100    0.00082     0.40182
      H   18    0.09452      0.00000     0.40386    0.00161     0.40548
      H   19    0.09733      0.00000     0.40181    0.00086     0.40267
      H   20    0.09203      0.00000     0.40677    0.00120     0.40797
      H   21    0.09751      0.00000     0.40173    0.00076     0.40249
      H   22    0.09138      0.00000     0.40747    0.00116     0.40862
      H   23    0.09835      0.00000     0.39910    0.00255     0.40165
      H   24    0.10169      0.00000     0.39721    0.00110     0.39831
      H   25    0.10119      0.00000     0.39719    0.00163     0.39881
      H   26    0.09605      0.00000     0.40251    0.00145     0.40395
      H   27    0.09335      0.00000     0.40509    0.00157     0.40665
      H   28    0.17691      0.00000     0.31993    0.00315     0.32309
      H   29    0.08602      0.00000     0.41278    0.00121     0.41398
      H   30    0.10058      0.00000     0.39798    0.00144     0.39942
      H   31    0.09419      0.00000     0.40255    0.00326     0.40581
      H   32    0.10145      0.00000     0.39521    0.00334     0.39855
      H   33    0.19396      0.00000     0.30420    0.00184     0.30604
      H   34    0.19595      0.00000     0.29738    0.00668     0.30405
      H   35    0.19472      0.00000     0.30366    0.00162     0.30528
 =======================================================================
   * Total *    0.00000     13.99521    40.81709    0.18769    55.00000

 Normal termination of Gaussian 16 at Thu Dec 10 09:59:31 2020.
