 Gaussian 16, Revision A.03,

 -----------------------------------------------------------
 # opt freq B3LYP/6-31G(d) empiricaldispersion=gd3bj scf=xqc
 -----------------------------------------------------------

 ----------------------------
 CID_578234_JID_7604_neutraal
 ----------------------------
 Symbolic Z-matrix:
 Charge =  0 Multiplicity = 1

 SCF Done:  E(RB3LYP) =  -736.576529902     A.U. after   15 cycles
 SCF Done:  E(RB3LYP) =  -736.581752445     A.U. after   12 cycles
 SCF Done:  E(RB3LYP) =  -736.581226633     A.U. after   12 cycles
 SCF Done:  E(RB3LYP) =  -736.582337958     A.U. after   11 cycles
 SCF Done:  E(RB3LYP) =  -736.582900943     A.U. after   11 cycles
 SCF Done:  E(RB3LYP) =  -736.582884887     A.U. after   11 cycles
 SCF Done:  E(RB3LYP) =  -736.582996281     A.U. after   11 cycles
 SCF Done:  E(RB3LYP) =  -736.583042781     A.U. after   10 cycles
 SCF Done:  E(RB3LYP) =  -736.583041210     A.U. after    9 cycles
 SCF Done:  E(RB3LYP) =  -736.583045093     A.U. after    9 cycles
 SCF Done:  E(RB3LYP) =  -736.583047391     A.U. after    8 cycles
 SCF Done:  E(RB3LYP) =  -736.583047510     A.U. after    7 cycles
 Optimization completed.
    -- Stationary point found.
 Normal termination of Gaussian 16 at Fri Dec 11 13:01:57 2020.

 --------------------------------------------------------------------
 #N Geom=AllCheck Guess=TCheck SCRF=Check GenChk RB3LYP/6-31G(d) Freq
 --------------------------------------------------------------------

 Structure from the checkpoint file:  "JID_7604.chk"
 ----------------------------
 CID_578234_JID_7604_neutraal
 ----------------------------
 Charge =  0 Multiplicity = 1

 SCF Done:  E(RB3LYP) =  -736.583047510     A.U. after    1 cycles

  Exact polarizability: 174.989  -6.782 156.462   6.633  -1.096 129.967
 Approx polarizability: 233.193  -6.158 229.425  14.075   0.411 199.359

                      1                      2                      3
                      A                      A                      A
 Frequencies --     54.7564                57.3615                63.5059
 Red. masses --      3.6067                 3.5434                 2.8165
 Frc consts  --      0.0064                 0.0069                 0.0067
 IR Inten    --      0.5897                 0.9950                 0.1277

                      4                      5                      6
                      A                      A                      A
 Frequencies --     71.2236               101.8819               149.8139
 Red. masses --      3.2969                 2.9686                 3.6537
 Frc consts  --      0.0099                 0.0182                 0.0483
 IR Inten    --      0.0940                 0.1435                 0.4186

                      7                      8                      9
                      A                      A                      A
 Frequencies --    161.8818               187.3865               212.5981
 Red. masses --      3.2296                 2.1311                 1.4346
 Frc consts  --      0.0499                 0.0441                 0.0382
 IR Inten    --      0.3923                 0.4537                 0.7157

                     10                     11                     12
                      A                      A                      A
 Frequencies --    234.5700               238.9418               239.2805
 Red. masses --      1.2483                 2.0557                 1.8687
 Frc consts  --      0.0405                 0.0692                 0.0630
 IR Inten    --      2.1347                 1.1894                 1.8408

                     13                     14                     15
                      A                      A                      A
 Frequencies --    256.3195               266.1969               275.8755
 Red. masses --      1.4714                 1.9292                 1.5020
 Frc consts  --      0.0570                 0.0805                 0.0674
 IR Inten    --      1.0448                 0.7735                 0.2381

                     16                     17                     18
                      A                      A                      A
 Frequencies --    308.1475               317.6482               350.2650
 Red. masses --      2.4627                 2.3742                 2.7152
 Frc consts  --      0.1378                 0.1411                 0.1963
 IR Inten    --      1.5344                 0.6617                 0.7453

                     19                     20                     21
                      A                      A                      A
 Frequencies --    370.5232               372.5388               399.8108
 Red. masses --      2.9736                 2.5977                 2.8416
 Frc consts  --      0.2405                 0.2124                 0.2676
 IR Inten    --      0.5115                 1.0062                 0.4447

                     22                     23                     24
                      A                      A                      A
 Frequencies --    438.0664               448.1114               489.7194
 Red. masses --      2.4480                 2.9129                 2.9007
 Frc consts  --      0.2768                 0.3446                 0.4099
 IR Inten    --      0.6920                 1.9923                 0.0808

                     25                     26                     27
                      A                      A                      A
 Frequencies --    504.0040               539.3816               562.6886
 Red. masses --      2.7741                 2.4918                 3.7483
 Frc consts  --      0.4152                 0.4271                 0.6992
 IR Inten    --      1.1795                 4.4700                 4.0108

                     28                     29                     30
                      A                      A                      A
 Frequencies --    620.4134               686.1326               688.6524
 Red. masses --      2.2501                 5.5626                 4.8771
 Frc consts  --      0.5103                 1.5429                 1.3627
 IR Inten    --      3.3787                12.9951                 1.9427

                     31                     32                     33
                      A                      A                      A
 Frequencies --    730.6997               747.0712               787.6032
 Red. masses --      1.5727                 2.3669                 3.3598
 Frc consts  --      0.4947                 0.7783                 1.2280
 IR Inten    --      0.3709                 1.3629                 3.5646

                     34                     35                     36
                      A                      A                      A
 Frequencies --    802.2603               825.5407               862.1533
 Red. masses --      2.1941                 2.9080                 2.4172
 Frc consts  --      0.8320                 1.1677                 1.0586
 IR Inten    --      0.5991                 0.5448                 3.3178

                     37                     38                     39
                      A                      A                      A
 Frequencies --    892.9828               910.4016               922.8103
 Red. masses --      2.1696                 2.8602                 2.2557
 Frc consts  --      1.0193                 1.3967                 1.1318
 IR Inten    --      1.7983                 4.0632                 0.9358

                     40                     41                     42
                      A                      A                      A
 Frequencies --    930.0291               947.1048               949.8481
 Red. masses --      1.3422                 1.6713                 1.3139
 Frc consts  --      0.6840                 0.8833                 0.6984
 IR Inten    --     44.9823                 1.8559                 2.2112

                     43                     44                     45
                      A                      A                      A
 Frequencies --    967.8078               979.1223               985.7366
 Red. masses --      1.8459                 1.6674                 2.1794
 Frc consts  --      1.0187                 0.9418                 1.2477
 IR Inten    --     27.7953                 7.0481                29.3453

                     46                     47                     48
                      A                      A                      A
 Frequencies --   1004.1103              1019.1338              1028.2833
 Red. masses --      1.5866                 1.9757                 2.3668
 Frc consts  --      0.9425                 1.2090                 1.4745
 IR Inten    --     13.3847                28.9699                 9.8806

                     49                     50                     51
                      A                      A                      A
 Frequencies --   1046.7358              1057.9305              1064.9538
 Red. masses --      1.5419                 1.6133                 2.3019
 Frc consts  --      0.9954                 1.0639                 1.5381
 IR Inten    --      2.8553                 8.1155                 5.2299

                     52                     53                     54
                      A                      A                      A
 Frequencies --   1079.3814              1094.0107              1117.0712
 Red. masses --      1.6740                 1.6810                 2.4346
 Frc consts  --      1.1491                 1.1854                 1.7900
 IR Inten    --      8.4984                 4.2167                 2.6293

                     55                     56                     57
                      A                      A                      A
 Frequencies --   1138.2041              1148.2474              1181.1146
 Red. masses --      1.9106                 2.0003                 2.6239
 Frc consts  --      1.4583                 1.5539                 2.1566
 IR Inten    --     29.1388                14.1322                79.7765

                     58                     59                     60
                      A                      A                      A
 Frequencies --   1190.1468              1205.9229              1216.2201
 Red. masses --      2.7131                 1.7574                 1.6345
 Frc consts  --      2.2643                 1.5058                 1.4245
 IR Inten    --     19.5469                 7.4542                13.2343

                     61                     62                     63
                      A                      A                      A
 Frequencies --   1230.4700              1248.1584              1270.0297
 Red. masses --      1.4944                 3.7743                 1.5361
 Frc consts  --      1.3331                 3.4644                 1.4598
 IR Inten    --      5.6268               163.8030                10.5404

                     64                     65                     66
                      A                      A                      A
 Frequencies --   1289.8880              1306.9173              1315.9102
 Red. masses --      1.4737                 1.4119                 1.5264
 Frc consts  --      1.4447                 1.4208                 1.5573
 IR Inten    --      3.8150                14.4860                 1.7983

                     67                     68                     69
                      A                      A                      A
 Frequencies --   1324.2839              1338.6209              1348.9891
 Red. masses --      2.2529                 1.3600                 1.2424
 Frc consts  --      2.3278                 1.4359                 1.3321
 IR Inten    --      8.8483                 1.8737                 1.7986

                     70                     71                     72
                      A                      A                      A
 Frequencies --   1363.7953              1369.7534              1373.0620
 Red. masses --      1.4094                 1.4952                 1.4592
 Frc consts  --      1.5445                 1.6529                 1.6209
 IR Inten    --      2.0669                 0.6123                 3.2595

                     73                     74                     75
                      A                      A                      A
 Frequencies --   1374.9466              1393.9809              1397.7347
 Red. masses --      1.3265                 1.4964                 1.3190
 Frc consts  --      1.4775                 1.7133                 1.5183
 IR Inten    --      0.6515                 0.8656                 7.5348

                     76                     77                     78
                      A                      A                      A
 Frequencies --   1431.8488              1441.0402              1444.8245
 Red. masses --      1.2439                 1.2451                 1.2330
 Frc consts  --      1.5026                 1.5234                 1.5164
 IR Inten    --      5.9124                 1.7484                 8.3908

                     79                     80                     81
                      A                      A                      A
 Frequencies --   1452.1468              1480.3057              1511.9292
 Red. masses --      1.2225                 1.2021                 1.0660
 Frc consts  --      1.5189                 1.5520                 1.4358
 IR Inten    --      9.5031                 0.4241                 0.0540

                     82                     83                     84
                      A                      A                      A
 Frequencies --   1514.1306              1516.6013              1519.1186
 Red. masses --      1.0528                 1.0746                 1.0578
 Frc consts  --      1.4221                 1.4563                 1.4382
 IR Inten    --      6.6280                 5.0698                 4.0334

                     85                     86                     87
                      A                      A                      A
 Frequencies --   1524.3961              1526.8620              1530.3929
 Red. masses --      1.0461                 1.0735                 1.0624
 Frc consts  --      1.4323                 1.4745                 1.4660
 IR Inten    --      9.3426                 3.9670                10.5940

                     88                     89                     90
                      A                      A                      A
 Frequencies --   1536.5047              1538.8650              1546.5486
 Red. masses --      1.0524                 1.0577                 1.0479
 Frc consts  --      1.4638                 1.4757                 1.4768
 IR Inten    --      3.5159                 4.1026                 6.9338

                     91                     92                     93
                      A                      A                      A
 Frequencies --   1547.4781              1724.6679              1861.0360
 Red. masses --      1.0769                 4.7285                12.5754
 Frc consts  --      1.5195                 8.2868                25.6614
 IR Inten    --      6.3001                13.1678               376.4177

                     94                     95                     96
                      A                      A                      A
 Frequencies --   3043.4331              3045.6095              3049.9048
 Red. masses --      1.0398                 1.0608                 1.0367
 Frc consts  --      5.6744                 5.7974                 5.6816
 IR Inten    --     12.9394                 8.2125                 6.0266

                     97                     98                     99
                      A                      A                      A
 Frequencies --   3051.5772              3052.4214              3065.5650
 Red. masses --      1.0533                 1.0452                 1.0631
 Frc consts  --      5.7787                 5.7376                 5.8863
 IR Inten    --     36.5151                26.8530                18.3810

                    100                    101                    102
                      A                      A                      A
 Frequencies --   3069.8235              3071.4107              3072.8591
 Red. masses --      1.0751                 1.0707                 1.0837
 Frc consts  --      5.9696                 5.9511                 6.0289
 IR Inten    --     13.9201                33.5763                22.3562

                    103                    104                    105
                      A                      A                      A
 Frequencies --   3092.2990              3102.8880              3103.5687
 Red. masses --      1.0847                 1.1001                 1.1007
 Frc consts  --      6.1111                 6.2406                 6.2463
 IR Inten    --     11.0538                34.2673                 1.8400

                    106                    107                    108
                      A                      A                      A
 Frequencies --   3105.4231              3106.1190              3111.9534
 Red. masses --      1.0768                 1.0948                 1.0999
 Frc consts  --      6.1180                 6.2233                 6.2759
 IR Inten    --     11.5632                11.4359                63.8046

                    109                    110                    111
                      A                      A                      A
 Frequencies --   3116.1859              3116.9633              3122.4934
 Red. masses --      1.0990                 1.1041                 1.1004
 Frc consts  --      6.2878                 6.3202                 6.3215
 IR Inten    --     36.8191                30.5943                67.3889

                    112                    113                    114
                      A                      A                      A
 Frequencies --   3131.6485              3134.0167              3160.4741
 Red. masses --      1.1015                 1.0998                 1.0603
 Frc consts  --      6.3645                 6.3644                 6.2401
 IR Inten    --     10.9265                30.0166                 8.5036

                    115                    116                    117
                      A                      A                      A
 Frequencies --   3161.7292              3166.8056              3236.8559
 Red. masses --      1.0979                 1.0967                 1.1157
 Frc consts  --      6.4666                 6.4798                 6.8870
 IR Inten    --      6.2881                13.7399                18.2447

 - Thermochemistry -
 -------------------
 Temperature   298.150 Kelvin.  Pressure   1.00000 Atm.
 Atom     1 has atomic number  6 and mass  12.00000

 Molecular mass:   236.17763 amu.
 Principal axes and moments of inertia in atomic units:
                           1         2         3
     Eigenvalues --  2739.605174490.319275652.49368
           X            0.99920  -0.03996   0.00233
           Y            0.03999   0.99909  -0.01456
           Z           -0.00175   0.01464   0.99989
 This molecule is an asymmetric top.
 Rotational symmetry number  1.
 Warning -- assumption of classical behavior for rotation
           may cause significant error
 Rotational temperatures (Kelvin)      0.03162     0.01929     0.01532
 Rotational constants (GHZ):           0.65876     0.40192     0.31928
 Zero-point vibrational energy     966508.5 (Joules/Mol)
                                  231.00107 (Kcal/Mol)
 Warning -- explicit consideration of  28 degrees of freedom as
           vibrations may cause significant error
 Vibrational temperatures:     78.78    82.53    91.37   102.47   146.59
          (Kelvin)            215.55   232.91   269.61   305.88   337.49
                              343.78   344.27   368.79   383.00   396.92
                              443.36   457.02   503.95   533.10   536.00
                              575.24   630.28   644.73   704.60   725.15
                              776.05   809.58   892.64   987.19   990.82
                             1051.31  1074.87  1133.19  1154.27  1187.77
                             1240.45  1284.80  1309.86  1327.72  1338.10
                             1362.67  1366.62  1392.46  1408.74  1418.26
                             1444.69  1466.31  1479.47  1506.02  1522.13
                             1532.23  1552.99  1574.04  1607.22  1637.62
                             1652.07  1699.36  1712.36  1735.05  1749.87
                             1770.37  1795.82  1827.29  1855.86  1880.36
                             1893.30  1905.35  1925.98  1940.89  1962.20
                             1970.77  1975.53  1978.24  2005.63  2011.03
                             2060.11  2073.34  2078.78  2089.32  2129.83
                             2175.33  2178.50  2182.05  2185.67  2193.27
                             2196.81  2201.89  2210.69  2214.08  2225.14
                             2226.48  2481.41  2677.62  4378.82  4381.95
                             4388.13  4390.54  4391.75  4410.66  4416.79
                             4419.07  4421.16  4449.13  4464.36  4465.34
                             4468.01  4469.01  4477.41  4483.50  4484.62
                             4492.57  4505.74  4509.15  4547.22  4549.02
                             4556.33  4657.11

 Zero-point correction=                           0.368124 (Hartree/Particle)
 Thermal correction to Energy=                    0.385651
 Thermal correction to Enthalpy=                  0.386595
 Thermal correction to Gibbs Free Energy=         0.324011
 Sum of electronic and zero-point Energies=           -736.214924
 Sum of electronic and thermal Energies=              -736.197397
 Sum of electronic and thermal Enthalpies=            -736.196453
 Sum of electronic and thermal Free Energies=         -736.259036

                     E (Thermal)             CV                S
                      KCal/Mol        Cal/Mol-Kelvin    Cal/Mol-Kelvin
 Total                  241.999             68.955            131.718
 Electronic               0.000              0.000              0.000
 Translational            0.889              2.981             42.280
 Rotational               0.889              2.981             32.608
 Vibrational            240.222             62.993             56.830
 Vibration     1          0.596              1.976              4.638
 Vibration     2          0.596              1.975              4.546
 Vibration     3          0.597              1.972              4.345
 Vibration     4          0.598              1.968              4.119
 Vibration     5          0.604              1.948              3.418
 Vibration     6          0.618              1.903              2.675
 Vibration     7          0.622              1.889              2.528
 Vibration     8          0.632              1.857              2.254
 Vibration     9          0.644              1.822              2.021
 Vibration    10          0.654              1.788              1.844
 Vibration    11          0.657              1.781              1.811
 Vibration    12          0.657              1.780              1.808
 Vibration    13          0.666              1.752              1.687
 Vibration    14          0.672              1.735              1.621
 Vibration    15          0.678              1.718              1.559
 Vibration    16          0.698              1.658              1.372
 Vibration    17          0.704              1.640              1.322
 Vibration    18          0.727              1.575              1.165
 Vibration    19          0.743              1.533              1.078
 Vibration    20          0.744              1.529              1.069
 Vibration    21          0.766              1.471              0.963
 Vibration    22          0.798              1.387              0.833
 Vibration    23          0.807              1.365              0.802
 Vibration    24          0.846              1.273              0.684
 Vibration    25          0.859              1.241              0.648
 Vibration    26          0.894              1.163              0.567
 Vibration    27          0.918              1.112              0.518
 Vibration    28          0.980              0.989              0.416

                           ! Non-Optimized Parameters !
 Normal termination of Gaussian 16 at Fri Dec 11 13:23:26 2020.

 ----------------------------------------------------------------------
 # B3LYP/6-311++G(d,p) empiricaldispersion=gd3bj scf=xqc pop=npa geom=c
 heck
 ----------------------------------------------------------------------

 ------------------------------------
 CID_578234_JID_7604_Energie_neutraal
 ------------------------------------
 Structure from the checkpoint file:  "JID_7604.chk"
 Charge =  0 Multiplicity = 1

 SCF Done:  E(RB3LYP) =  -736.785590035     A.U. after   15 cycles
 Normal termination of Gaussian 16 at Fri Dec 11 13:31:58 2020.

 ----------------------------------------------------------------------
 # B3LYP/6-311++G(d,p) empiricaldispersion=gd3bj scf=xqc pop=npa geom=c
 heck
 ----------------------------------------------------------------------

 ----------------------------------
 CID_578234_JID_7604_Energie_kation
 ----------------------------------
 Structure from the checkpoint file:  "JID_7604.chk"
 Charge =  1 Multiplicity = 2

 SCF Done:  E(UB3LYP) =  -736.462062495     A.U. after   30 cycles
 Normal termination of Gaussian 16 at Fri Dec 11 13:54:18 2020.
 Gaussian 16:  ES64L-G16RevA.03 25-Dec-2016

 ----------------------------------------------------------------------
 # B3LYP/6-311++G(d,p) empiricaldispersion=gd3bj scf=xqc pop=npa geom=c
 heck
 ----------------------------------------------------------------------

 ---------------------------------
 CID_578234_JID_7604_Energie_anion
 ---------------------------------
 Structure from the checkpoint file:  "JID_7604.chk"
 Charge = -1 Multiplicity = 2

                         Standard orientation:
 ---------------------------------------------------------------------
 Center     Atomic      Atomic             Coordinates (Angstroms)
 Number     Number       Type             X           Y           Z
 ---------------------------------------------------------------------
      1          6           0        2.414689   -1.363050    1.892604
      2          6           0        2.010033   -1.351369    0.417183
      3          6           0        3.082224   -0.702269   -0.488212
      4          6           0        2.304533   -0.031094   -1.628002
      5          6           0        0.992694    0.476153   -0.982857
      6          6           0        0.656898   -0.649537    0.055463
      7          6           0       -0.287740   -0.248646    1.204171
      8          6           0       -1.701216   -0.572322    0.691226
      9          6           0       -1.427827   -1.648505   -0.357451
     10          8           0       -2.210292   -2.408426   -0.873430
     11          8           0       -0.108917   -1.656488   -0.684444
     12          6           0       -2.511882    0.608886    0.088780
     13          6           0       -3.903407    0.148260   -0.365873
     14          6           0       -2.640506    1.761485    1.092160
     15          6           0        1.083382    1.887967   -0.434138
     16          6           0        0.248722    2.832281   -0.883724
     17          6           0        2.145709    2.236646    0.579504
     18          1           0        3.405689   -1.818922    1.996001
     19          1           0        1.722945   -1.946049    2.509297
     20          1           0        2.474694   -0.353029    2.313459
     21          1           0        1.873073   -2.391109    0.103011
     22          1           0        3.803408   -1.440896   -0.852732
     23          1           0        3.652952    0.038509    0.081980
     24          1           0        2.863485    0.768398   -2.124576
     25          1           0        2.047705   -0.776780   -2.388495
     26          1           0        0.189311    0.477295   -1.724281
     27          1           0       -0.078388   -0.858263    2.086127
     28          1           0       -0.156463    0.794200    1.489920
     29          1           0       -2.317442   -1.020315    1.478945
     30          1           0       -1.968313    0.983532   -0.788054
     31          1           0       -4.494392   -0.191174    0.494546
     32          1           0       -4.442715    0.979899   -0.833137
     33          1           0       -3.847451   -0.678781   -1.075968
     34          1           0       -1.675156    2.215626    1.331015
     35          1           0       -3.279616    2.549920    0.679178
     36          1           0       -3.101553    1.414288    2.025670
     37          1           0        0.300691    3.857243   -0.525432
     38          1           0       -0.508469    2.619716   -1.633292
     39          1           0        2.115265    1.575278    1.452641
     40          1           0        3.150633    2.146045    0.150699
     41          1           0        2.025951    3.265361    0.931462
 ---------------------------------------------------------------------

 SCF Done:  E(UB3LYP) =  -736.773526193     A.U. after   33 cycles
 SCF Done:  E(UB3LYP) =  -736.773526193     a.u. after    1 cycles

 The electronic state is 2-A.
 Alpha  occ. eigenvalues --  -19.07121 -19.01875 -10.20755 -10.15262 -10.10213
 Alpha  occ. eigenvalues --  -10.09633 -10.09590 -10.09231 -10.08640 -10.08568
 Alpha  occ. eigenvalues --  -10.07905 -10.07371 -10.07257 -10.06931 -10.06875
 Alpha  occ. eigenvalues --  -10.06869 -10.06850  -1.01295  -0.93571  -0.76566
 Alpha  occ. eigenvalues --   -0.74035  -0.71039  -0.67753  -0.65556  -0.63229
 Alpha  occ. eigenvalues --   -0.59990  -0.59759  -0.57661  -0.55053  -0.51444
 Alpha  occ. eigenvalues --   -0.49289  -0.47549  -0.46412  -0.43913  -0.41891
 Alpha  occ. eigenvalues --   -0.39978  -0.38052  -0.37471  -0.37347  -0.35554
 Alpha  occ. eigenvalues --   -0.35087  -0.34446  -0.33780  -0.33353  -0.32593
 Alpha  occ. eigenvalues --   -0.31429  -0.31352  -0.30308  -0.29943  -0.29286
 Alpha  occ. eigenvalues --   -0.28725  -0.27978  -0.27242  -0.26620  -0.26224
 Alpha  occ. eigenvalues --   -0.25564  -0.24919  -0.24437  -0.23749  -0.23692
 Alpha  occ. eigenvalues --   -0.23228  -0.22580  -0.20354  -0.18008  -0.16187
 Alpha  occ. eigenvalues --    0.04125
 Alpha virt. eigenvalues --    0.06143   0.06499   0.07061   0.07742   0.08203
 Alpha virt. eigenvalues --    0.08354   0.08849   0.08879   0.09477   0.09918
 Alpha virt. eigenvalues --    0.10624   0.10730   0.11013   0.11656   0.11853

  Beta  occ. eigenvalues --  -19.07120 -19.01874 -10.20755 -10.15262 -10.10206
  Beta  occ. eigenvalues --  -10.09628 -10.09588 -10.09228 -10.08634 -10.08550
  Beta  occ. eigenvalues --  -10.07895 -10.07352 -10.07214 -10.06910 -10.06866
  Beta  occ. eigenvalues --  -10.06841 -10.06811  -1.01291  -0.93569  -0.76552
  Beta  occ. eigenvalues --   -0.74018  -0.71017  -0.67731  -0.65524  -0.63208
  Beta  occ. eigenvalues --   -0.59931  -0.59721  -0.57612  -0.55018  -0.51411
  Beta  occ. eigenvalues --   -0.49251  -0.47505  -0.46388  -0.43875  -0.41865
  Beta  occ. eigenvalues --   -0.39956  -0.38030  -0.37452  -0.37323  -0.35529
  Beta  occ. eigenvalues --   -0.35058  -0.34415  -0.33752  -0.33323  -0.32570
  Beta  occ. eigenvalues --   -0.31395  -0.31322  -0.30282  -0.29919  -0.29260
  Beta  occ. eigenvalues --   -0.28693  -0.27942  -0.27220  -0.26601  -0.26194
  Beta  occ. eigenvalues --   -0.25538  -0.24897  -0.24411  -0.23724  -0.23669
  Beta  occ. eigenvalues --   -0.23206  -0.22557  -0.20344  -0.18001  -0.16167
  Beta virt. eigenvalues --    0.06236   0.06836   0.07092   0.07701   0.07958
  Beta virt. eigenvalues --    0.08528   0.08618   0.09078   0.09265   0.09810
  Beta virt. eigenvalues --    0.10313   0.10890   0.11036   0.11389   0.11961

 Mulliken charges and spin densities:
               1          2
     1  C    0.949139  -1.542774
     2  C   -1.273772   1.550620
     3  C    0.638660  -1.096884
     4  C   -0.251183  -0.334368
     5  C   -0.087431   0.645099
     6  C   -0.447372  -0.180004
     7  C    1.194023  -1.317327
     8  C   -0.336847   0.126433
     9  C    0.327899  -0.451203
    10  O   -0.298540   0.009917
    11  O    0.017813   0.014456
    12  C   -0.365591   0.951526
    13  C   -0.367517  -0.273423
    14  C    0.206761  -0.919892
    15  C   -2.304002   2.642670
    16  C    0.860425  -1.617952
    17  C    1.884651  -2.501550
    18  H   -0.440818   0.604540
    19  H   -0.176207   0.308893
    20  H   -0.260370   0.420215
    21  H    0.100501   0.120254
    22  H   -0.272828   0.460023
    23  H    0.099815   0.024974
    24  H   -0.091731   0.279561
    25  H    0.218414  -0.061212
    26  H    0.118187   0.158132
    27  H   -0.046397   0.259492
    28  H    0.461770  -0.322409
    29  H    0.002259   0.253865
    30  H    0.086666  -0.005608
    31  H    0.096658   0.031928
    32  H   -0.052007   0.190093
    33  H    0.175657  -0.004334
    34  H   -0.153581   0.294697
    35  H   -0.018702   0.163334
    36  H   -0.250985   0.406154
    37  H   -0.390446   0.532842
    38  H    0.166221  -0.040611
    39  H   -0.251978   0.401893
    40  H   -0.190812   0.379822
    41  H   -0.276401   0.438115
 Sum of Mulliken charges =  -1.00000   1.00000

 Dipole moment (field-independent basis, Debye):
    X=             -2.8325    Y=             -1.2809    Z=             -3.6594  Tot=              4.8016
 Quadrupole moment (field-independent basis, Debye-Ang):
   XX=           -177.5085   YY=           -169.6735   ZZ=           -151.0646
   XY=             -3.1170   XZ=             -8.2214   YZ=             -5.7711

 Summary of Natural Population Analysis:

                                       Natural Population
                Natural  -----------------------------------------------
    Atom  No    Charge         Core      Valence    Rydberg      Total
 -----------------------------------------------------------------------
      C    1   -0.28442      0.99964     2.27882    0.00595     3.28442
      C    2   -0.12052      0.99954     2.10950    0.01149     3.12052
      C    3   -0.18943      0.99962     2.18164    0.00818     3.18943
      C    4   -0.18902      0.99962     2.18008    0.00933     3.18902
      C    5   -0.13306      0.99949     2.12014    0.01343     3.13306
      C    6    0.15662      0.99949     1.82672    0.01717     2.84338
      C    7   -0.20848      0.99957     2.19842    0.01048     3.20848
      C    8   -0.15381      0.99954     2.14316    0.01111     3.15381
      C    9    0.41490      0.99964     1.55898    0.02648     2.58510
      O   10   -0.29964      0.99986     3.29413    0.00565     4.29964
      O   11   -0.28506      0.99985     3.27740    0.00781     4.28506
      C   12   -0.11152      0.99959     2.10282    0.00911     3.11152
      C   13   -0.28598      0.99965     2.28139    0.00494     3.28598
      C   14   -0.28399      0.99964     2.27807    0.00628     3.28399
      C   15    0.00039      0.99949     1.98753    0.01259     2.99961
      C   16   -0.19170      0.99947     2.18363    0.00860     3.19170
      C   17   -0.30327      0.99960     2.29663    0.00704     3.30327
      H   18    0.10487      0.00000     0.39392    0.00122     0.39513
      H   19    0.10025      0.00000     0.39853    0.00123     0.39975
      H   20    0.09930      0.00000     0.39906    0.00164     0.40070
      H   21    0.10775      0.00000     0.39067    0.00158     0.39225
      H   22    0.10236      0.00000     0.39666    0.00099     0.39764
      H   23    0.09810      0.00000     0.40017    0.00173     0.40190
      H   24    0.10314      0.00000     0.39605    0.00081     0.39686
      H   25    0.10147      0.00000     0.39741    0.00112     0.39853
      H   26    0.10841      0.00000     0.38985    0.00174     0.39159
      H   27    0.10955      0.00000     0.38894    0.00151     0.39045
      H   28    0.11539      0.00000     0.38260    0.00201     0.38461
      H   29    0.11255      0.00000     0.38625    0.00120     0.38745
      H   30    0.09608      0.00000     0.40127    0.00265     0.40392
      H   31    0.09560      0.00000     0.40359    0.00081     0.40440
      H   32    0.09697      0.00000     0.40232    0.00071     0.40303
      H   33    0.11077      0.00000     0.38832    0.00091     0.38923
      H   34    0.10489      0.00000     0.39370    0.00141     0.39511
      H   35    0.10053      0.00000     0.39851    0.00096     0.39947
      H   36    0.09688      0.00000     0.40204    0.00108     0.40312
      H   37    0.09624      0.00000     0.40272    0.00103     0.40376
      H   38    0.09144      0.00000     0.40734    0.00122     0.40856
      H   39    0.10306      0.00000     0.39487    0.00206     0.39694
      H   40    0.10558      0.00000     0.39296    0.00147     0.39442
      H   41    0.10682      0.00000     0.39181    0.00137     0.39318
 =======================================================================
   * Total *    0.00000     16.99331    47.79863    0.20806    65.00000

 Normal termination of Gaussian 16 at Fri Dec 11 14:19:06 2020.
