 Gaussian 16, Revision A.03,

 -----------------------------------------------------------
 # opt freq B3LYP/6-31G(d) empiricaldispersion=gd3bj scf=xqc
 -----------------------------------------------------------

 ------------------------------
 CID_80895557_JID_6885_neutraal
 ------------------------------
 Symbolic Z-matrix:
 Charge =  0 Multiplicity = 1

 SCF Done:  E(RB3LYP) =  -704.338660836     A.U. after   14 cycles
 SCF Done:  E(RB3LYP) =  -704.350079240     A.U. after   13 cycles
 SCF Done:  E(RB3LYP) =  -704.352117077     A.U. after   12 cycles
 SCF Done:  E(RB3LYP) =  -704.352623549     A.U. after   12 cycles
 SCF Done:  E(RB3LYP) =  -704.352965673     A.U. after   11 cycles
 SCF Done:  E(RB3LYP) =  -704.353324698     A.U. after   12 cycles
 SCF Done:  E(RB3LYP) =  -704.354782373     A.U. after   14 cycles
 SCF Done:  E(RB3LYP) =  -704.355873315     A.U. after   12 cycles
 SCF Done:  E(RB3LYP) =  -704.358502681     A.U. after   12 cycles
 SCF Done:  E(RB3LYP) =  -704.359612739     A.U. after   12 cycles
 SCF Done:  E(RB3LYP) =  -704.360232437     A.U. after    9 cycles
 SCF Done:  E(RB3LYP) =  -704.360234231     A.U. after    9 cycles
 SCF Done:  E(RB3LYP) =  -704.360235480     A.U. after    9 cycles
 SCF Done:  E(RB3LYP) =  -704.360235916     A.U. after    8 cycles
 SCF Done:  E(RB3LYP) =  -704.360236055     A.U. after    7 cycles
 Optimization completed.
    -- Stationary point found.
 Normal termination of Gaussian 16 at Fri Dec 11 01:07:57 2020.

 --------------------------------------------------------------------
 #N Geom=AllCheck Guess=TCheck SCRF=Check GenChk RB3LYP/6-31G(d) Freq
 --------------------------------------------------------------------

 Structure from the checkpoint file:  "JID_6885.chk"
 ------------------------------
 CID_80895557_JID_6885_neutraal
 ------------------------------
 Charge =  0 Multiplicity = 1

 SCF Done:  E(RB3LYP) =  -704.360236055     A.U. after    1 cycles

  Exact polarizability: 205.011  -9.501 144.338  -7.250 -12.752 106.994
 Approx polarizability: 286.419 -17.957 212.860 -16.769 -34.591 168.056

                      1                      2                      3
                      A                      A                      A
 Frequencies --     28.7260                39.8639                52.1430
 Red. masses --      4.2553                 2.5584                 2.9899
 Frc consts  --      0.0021                 0.0024                 0.0048
 IR Inten    --      1.0803                 0.2864                 0.0442

                      4                      5                      6
                      A                      A                      A
 Frequencies --     58.5320                79.6832               105.1020
 Red. masses --      4.1166                 4.1961                 3.1176
 Frc consts  --      0.0083                 0.0157                 0.0203
 IR Inten    --      0.1801                 2.6553                 4.4189

                      7                      8                      9
                      A                      A                      A
 Frequencies --    115.4476               170.3301               190.4786
 Red. masses --      2.4632                 2.5267                 4.0683
 Frc consts  --      0.0193                 0.0432                 0.0870
 IR Inten    --      2.1028                 8.1972                 1.4952

                     10                     11                     12
                      A                      A                      A
 Frequencies --    197.5554               230.6554               258.0069
 Red. masses --      2.7402                 1.8583                 1.6081
 Frc consts  --      0.0630                 0.0582                 0.0631
 IR Inten    --      0.9882                11.7635                 5.8429

                     13                     14                     15
                      A                      A                      A
 Frequencies --    263.3906               278.7749               303.4414
 Red. masses --      3.3732                 2.6797                 1.8963
 Frc consts  --      0.1379                 0.1227                 0.1029
 IR Inten    --      3.4666                22.2572                30.8271

                     16                     17                     18
                      A                      A                      A
 Frequencies --    335.4919               362.0542               411.3423
 Red. masses --      2.9556                 2.2130                 3.8241
 Frc consts  --      0.1960                 0.1709                 0.3812
 IR Inten    --     14.0011                 1.8104                 7.9398

                     19                     20                     21
                      A                      A                      A
 Frequencies --    448.0322               487.3023               520.0150
 Red. masses --      1.7462                 6.2951                 4.7555
 Frc consts  --      0.2065                 0.8808                 0.7577
 IR Inten    --      2.3597                 9.6113                 4.0999

                     22                     23                     24
                      A                      A                      A
 Frequencies --    564.5986               576.4175               609.1709
 Red. masses --      2.6325                 2.5515                 3.9582
 Frc consts  --      0.4944                 0.4995                 0.8654
 IR Inten    --      4.8578                59.4500                 7.2657

                     25                     26                     27
                      A                      A                      A
 Frequencies --    668.8857               685.7811               738.5924
 Red. masses --      2.5505                 5.3643                 2.4153
 Frc consts  --      0.6723                 1.4864                 0.7763
 IR Inten    --     62.4357                12.5500                20.1764

                     28                     29                     30
                      A                      A                      A
 Frequencies --    766.2720               776.1157               788.2661
 Red. masses --      2.4565                 1.2107                 1.4678
 Frc consts  --      0.8498                 0.4297                 0.5374
 IR Inten    --      1.2629                 0.4715                 3.8188

                     31                     32                     33
                      A                      A                      A
 Frequencies --    807.9039               827.2420               849.1694
 Red. masses --      1.5455                 1.5402                 1.6487
 Frc consts  --      0.5943                 0.6210                 0.7004
 IR Inten    --      8.2710                28.8734                 9.2718

                     34                     35                     36
                      A                      A                      A
 Frequencies --    864.7502               879.6942               898.1088
 Red. masses --      2.6663                 1.4065                 1.7554
 Frc consts  --      1.1747                 0.6413                 0.8342
 IR Inten    --      1.1588                 2.9668                25.3260

                     37                     38                     39
                      A                      A                      A
 Frequencies --    914.0676               932.7061               939.5790
 Red. masses --      1.6231                 1.8314                 2.0097
 Frc consts  --      0.7990                 0.9387                 1.0453
 IR Inten    --      7.6603                64.5503                73.9714

                     40                     41                     42
                      A                      A                      A
 Frequencies --    967.5307              1006.9866              1017.1174
 Red. masses --      2.4977                 2.8633                 4.2841
 Frc consts  --      1.3776                 1.7107                 2.6113
 IR Inten    --     18.8272                 4.5433                 4.6943

                     43                     44                     45
                      A                      A                      A
 Frequencies --   1046.0628              1065.4319              1078.2304
 Red. masses --      1.8832                 1.4740                 2.3299
 Frc consts  --      1.2141                 0.9858                 1.5960
 IR Inten    --      5.2518                17.4925                13.5203

                     46                     47                     48
                      A                      A                      A
 Frequencies --   1086.5054              1121.8091              1135.9211
 Red. masses --      1.3719                 1.8982                 1.4407
 Frc consts  --      0.9542                 1.4074                 1.0953
 IR Inten    --      2.5810                 8.7195                23.7302

                     49                     50                     51
                      A                      A                      A
 Frequencies --   1149.7715              1178.6490              1194.4824
 Red. masses --      1.3994                 2.5907                 2.2173
 Frc consts  --      1.0900                 2.1205                 1.8639
 IR Inten    --      8.5331                31.9418                55.9008

                     52                     53                     54
                      A                      A                      A
 Frequencies --   1208.0729              1222.0068              1236.2202
 Red. masses --      1.4094                 1.9004                 2.2915
 Frc consts  --      1.2119                 1.6720                 2.0633
 IR Inten    --      0.2626                12.7562                 8.7092

                     55                     56                     57
                      A                      A                      A
 Frequencies --   1244.6638              1285.2470              1311.0349
 Red. masses --      2.0080                 2.9275                 1.4357
 Frc consts  --      1.8329                 2.8492                 1.4539
 IR Inten    --     23.0954               148.9661                11.7647

                     58                     59                     60
                      A                      A                      A
 Frequencies --   1316.3492              1324.7258              1330.4699
 Red. masses --      1.6689                 1.3857                 1.2341
 Frc consts  --      1.7038                 1.4327                 1.2871
 IR Inten    --     13.4747                21.2589                 5.2553

                     61                     62                     63
                      A                      A                      A
 Frequencies --   1355.3859              1383.4330              1398.3397
 Red. masses --      1.5282                 1.3067                 1.4155
 Frc consts  --      1.6541                 1.4734                 1.6307
 IR Inten    --     64.4792                24.8372                18.9545

                     64                     65                     66
                      A                      A                      A
 Frequencies --   1419.4226              1440.4354              1445.8492
 Red. masses --      1.3053                 1.7208                 1.6774
 Frc consts  --      1.5495                 2.1037                 2.0660
 IR Inten    --     14.2569                21.2695                26.9553

                     67                     68                     69
                      A                      A                      A
 Frequencies --   1447.0775              1454.7061              1498.1331
 Red. masses --      1.3945                 1.8985                 1.0892
 Frc consts  --      1.7204                 2.3671                 1.4403
 IR Inten    --     13.8975                18.0768                 0.4133

                     70                     71                     72
                      A                      A                      A
 Frequencies --   1500.3779              1511.0159              1515.1901
 Red. masses --      1.4067                 1.2907                 1.3602
 Frc consts  --      1.8658                 1.7362                 1.8399
 IR Inten    --    186.1708                84.2520                75.8247

                     73                     74                     75
                      A                      A                      A
 Frequencies --   1525.6204              1530.5035              1537.1834
 Red. masses --      1.0711                 1.2460                 1.0600
 Frc consts  --      1.4689                 1.7196                 1.4757
 IR Inten    --      8.5274                 2.5882                 7.3124

                     76                     77                     78
                      A                      A                      A
 Frequencies --   1541.0423              1567.0085              1604.2919
 Red. masses --      1.3476                 2.3741                 5.4291
 Frc consts  --      1.8856                 3.4347                 8.2327
 IR Inten    --      9.6760               162.9474               232.7330

                     79                     80                     81
                      A                      A                      A
 Frequencies --   1629.4575              1723.9090              3026.5745
 Red. masses --      5.1590                 1.1329                 1.0614
 Frc consts  --      8.0705                 1.9837                 5.7282
 IR Inten    --    164.3913                34.2360                21.8220

                     82                     83                     84
                      A                      A                      A
 Frequencies --   3042.6017              3056.3031              3057.1843
 Red. masses --      1.0705                 1.0477                 1.0581
 Frc consts  --      5.8390                 5.7659                 5.8265
 IR Inten    --     56.6814                35.0561                47.9726

                     85                     86                     87
                      A                      A                      A
 Frequencies --   3059.7159              3102.0860              3121.8038
 Red. masses --      1.0971                 1.0985                 1.1018
 Frc consts  --      6.0517                 6.2283                 6.3263
 IR Inten    --     36.2471                 8.7419                47.2594

                     88                     89                     90
                      A                      A                      A
 Frequencies --   3132.6797              3143.0915              3150.1167
 Red. masses --      1.1024                 1.0541                 1.0858
 Frc consts  --      6.3739                 6.1357                 6.3481
 IR Inten    --     25.5480                24.1057                25.0509

                     91                     92                     93
                      A                      A                      A
 Frequencies --   3152.8369              3159.8351              3219.2832
 Red. masses --      1.0926                 1.0600                 1.1106
 Frc consts  --      6.3988                 6.2356                 6.7817
 IR Inten    --      7.7230                 8.3196                 7.8063

                     94                     95                     96
                      A                      A                      A
 Frequencies --   3221.7352              3238.6340              3242.0999
 Red. masses --      1.0963                 1.0921                 1.1140
 Frc consts  --      6.7045                 6.7488                 6.8992
 IR Inten    --     37.0923                 2.9575                16.4199

                     97                     98                     99
                      A                      A                      A
 Frequencies --   3436.4137              3493.6826              3558.2241
 Red. masses --      1.0522                 1.0752                 1.0914
 Frc consts  --      7.3205                 7.7322                 8.1418
 IR Inten    --     15.0818                 6.1879                 1.3455

 - Thermochemistry -
 -------------------
 Temperature   298.150 Kelvin.  Pressure   1.00000 Atm.
 Atom     1 has atomic number  6 and mass  12.00000

 Molecular mass:   221.16405 amu.
 Principal axes and moments of inertia in atomic units:
                           1         2         3
     Eigenvalues --  2492.680835286.083886999.05814
           X            0.99993   0.01161  -0.00387
           Y           -0.01156   0.99985   0.01309
           Z            0.00402  -0.01304   0.99991
 This molecule is an asymmetric top.
 Rotational symmetry number  1.
 Warning -- assumption of classical behavior for rotation
           may cause significant error
 Rotational temperatures (Kelvin)      0.03475     0.01639     0.01238
 Rotational constants (GHZ):           0.72402     0.34141     0.25785
 Zero-point vibrational energy     802659.9 (Joules/Mol)
                                  191.84033 (Kcal/Mol)
 Warning -- explicit consideration of  24 degrees of freedom as
           vibrations may cause significant error
 Vibrational temperatures:     41.33    57.36    75.02    84.21   114.65
          (Kelvin)            151.22   166.10   245.07   274.06   284.24
                              331.86   371.21   378.96   401.09   436.58
                              482.70   520.92   591.83   644.62   701.12
                              748.19   812.33   829.34   876.46   962.38
                              986.69  1062.67  1102.49  1116.66  1134.14
                             1162.39  1190.22  1221.77  1244.18  1265.68
                             1292.18  1315.14  1341.96  1351.84  1392.06
                             1448.83  1463.41  1505.05  1532.92  1551.33
                             1563.24  1614.03  1634.34  1654.26  1695.81
                             1718.59  1738.15  1758.20  1778.65  1790.79
                             1849.18  1886.29  1893.93  1905.98  1914.25
                             1950.10  1990.45  2011.90  2042.23  2072.47
                             2080.25  2082.02  2093.00  2155.48  2158.71
                             2174.01  2180.02  2195.03  2202.05  2211.66
                             2217.22  2254.58  2308.22  2344.43  2480.32
                             4354.57  4377.63  4397.34  4398.61  4402.25
                             4463.21  4491.58  4507.23  4522.21  4532.32
                             4536.23  4546.30  4631.83  4635.36  4659.67
                             4664.66  4944.23  5026.63  5119.49

 Zero-point correction=                           0.305717 (Hartree/Particle)
 Thermal correction to Energy=                    0.322123
 Thermal correction to Enthalpy=                  0.323067
 Thermal correction to Gibbs Free Energy=         0.260389
 Sum of electronic and zero-point Energies=           -704.054519
 Sum of electronic and thermal Energies=              -704.038113
 Sum of electronic and thermal Enthalpies=            -704.037169
 Sum of electronic and thermal Free Energies=         -704.099847

                     E (Thermal)             CV                S
                      KCal/Mol        Cal/Mol-Kelvin    Cal/Mol-Kelvin
 Total                  202.135             61.538            131.917
 Electronic               0.000              0.000              0.000
 Translational            0.889              2.981             42.084
 Rotational               0.889              2.981             32.889
 Vibrational            200.358             55.577             56.944
 Vibration     1          0.593              1.984              5.916
 Vibration     2          0.594              1.981              5.266
 Vibration     3          0.596              1.977              4.734
 Vibration     4          0.596              1.974              4.506
 Vibration     5          0.600              1.963              3.899
 Vibration     6          0.605              1.945              3.357
 Vibration     7          0.608              1.937              3.175
 Vibration     8          0.625              1.879              2.432
 Vibration     9          0.634              1.853              2.223
 Vibration    10          0.637              1.843              2.156
 Vibration    11          0.652              1.794              1.874
 Vibration    12          0.667              1.749              1.675
 Vibration    13          0.670              1.740              1.639
 Vibration    14          0.679              1.713              1.541
 Vibration    15          0.695              1.667              1.398
 Vibration    16          0.717              1.605              1.234
 Vibration    17          0.736              1.550              1.113
 Vibration    18          0.775              1.446              0.922
 Vibration    19          0.807              1.365              0.802
 Vibration    20          0.843              1.278              0.691
 Vibration    21          0.875              1.206              0.610
 Vibration    22          0.920              1.108              0.515
 Vibration    23          0.933              1.082              0.492
 Vibration    24          0.968              1.012              0.434

 Optimization completed.
    -- Stationary point found.
 Normal termination of Gaussian 16 at Fri Dec 11 01:19:45 2020.

 ----------------------------------------------------------------------
 # B3LYP/6-311++G(d,p) empiricaldispersion=gd3bj scf=xqc pop=npa geom=c
 heck
 ----------------------------------------------------------------------

 --------------------------------------
 CID_80895557_JID_6885_Energie_neutraal
 --------------------------------------
 Structure from the checkpoint file:  "JID_6885.chk"
 Charge =  0 Multiplicity = 1

 SCF Done:  E(RB3LYP) =  -704.559970108     A.U. after   14 cycles
 Normal termination of Gaussian 16 at Fri Dec 11 01:24:33 2020.

 ----------------------------------------------------------------------
 # B3LYP/6-311++G(d,p) empiricaldispersion=gd3bj scf=xqc pop=npa geom=c
 heck
 ----------------------------------------------------------------------

 ------------------------------------
 CID_80895557_JID_6885_Energie_kation
 ------------------------------------
 Structure from the checkpoint file:  "JID_6885.chk"
 Charge =  1 Multiplicity = 2

 SCF Done:  E(UB3LYP) =  -704.304473846     A.U. after   21 cycles
 Normal termination of Gaussian 16 at Fri Dec 11 01:34:13 2020.
 Gaussian 16:  ES64L-G16RevA.03 25-Dec-2016

 ----------------------------------------------------------------------
 # B3LYP/6-311++G(d,p) empiricaldispersion=gd3bj scf=xqc pop=npa geom=c
 heck
 ----------------------------------------------------------------------

 -----------------------------------
 CID_80895557_JID_6885_Energie_anion
 -----------------------------------
 Structure from the checkpoint file:  "JID_6885.chk"
 Charge = -1 Multiplicity = 2

                         Standard orientation:
 ---------------------------------------------------------------------
 Center     Atomic      Atomic             Coordinates (Angstroms)
 Number     Number       Type             X           Y           Z
 ---------------------------------------------------------------------
      1          6           0        0.296524    3.213015    0.955132
      2          6           0       -0.906993    3.121646    0.015267
      3          6           0       -0.933904    1.836072   -0.824058
      4          7           0       -1.014398    0.618446   -0.019071
      5          6           0       -2.347276    0.219120    0.416187
      6          6           0       -3.116401   -0.591156   -0.610210
      7          6           0       -3.032716   -2.095482   -0.660790
      8          6           0       -4.294624   -1.425773   -0.172843
      9          6           0        0.100449   -0.156717    0.204976
     10          7           0        1.263751    0.275431   -0.311863
     11          6           0        2.365714   -0.440891   -0.071730
     12          6           0        2.335868   -1.627039    0.679908
     13          7           0        1.178560   -2.064744    1.180105
     14          6           0        0.073277   -1.359935    0.956774
     15          7           0        3.535505    0.103366   -0.583479
     16          7           0        4.632631   -0.757656   -0.766061
     17          1           0        0.291572    2.389432    1.676151
     18          1           0        0.285259    4.154183    1.516153
     19          1           0        1.237600    3.151627    0.399370
     20          1           0       -1.836246    3.199283    0.596857
     21          1           0       -0.910417    3.973577   -0.678732
     22          1           0       -1.798787    1.855798   -1.499748
     23          1           0       -0.034683    1.772568   -1.437301
     24          1           0       -2.283153   -0.326444    1.362255
     25          1           0       -2.903213    1.137879    0.638747
     26          1           0       -3.219124   -0.091755   -1.572140
     27          1           0       -3.045883   -2.573052   -1.636291
     28          1           0       -2.410638   -2.604504    0.068148
     29          1           0       -4.511637   -1.474039    0.891796
     30          1           0       -5.178005   -1.449058   -0.804364
     31          1           0        3.235330   -2.201132    0.864489
     32          1           0       -0.843376   -1.757343    1.374882
     33          1           0        3.351328    0.805079   -1.297110
     34          1           0        4.676906   -1.100170   -1.726724
     35          1           0        5.485317   -0.242997   -0.565537
 ---------------------------------------------------------------------

 SCF Done:  E(UB3LYP) =  -704.549981874     A.U. after   33 cycles
 SCF Done:  E(UB3LYP) =  -704.549981874     a.u. after    1 cycles

 The electronic state is 2-A.
 Alpha  occ. eigenvalues --  -14.24610 -14.23838 -14.22890 -14.21175 -14.19842
 Alpha  occ. eigenvalues --  -10.14772 -10.13873 -10.12121 -10.10200 -10.09404
 Alpha  occ. eigenvalues --  -10.08947 -10.08919 -10.08686 -10.08177 -10.07613
 Alpha  occ. eigenvalues --  -10.06276  -0.90237  -0.87637  -0.83921  -0.79237
 Alpha  occ. eigenvalues --   -0.77451  -0.70550  -0.68756  -0.63854  -0.62482
 Alpha  occ. eigenvalues --   -0.59063  -0.54265  -0.52330  -0.51782  -0.50205
 Alpha  occ. eigenvalues --   -0.47606  -0.44562  -0.44378  -0.40786  -0.40292
 Alpha  occ. eigenvalues --   -0.39574  -0.39161  -0.38764  -0.38002  -0.36472
 Alpha  occ. eigenvalues --   -0.34786  -0.33654  -0.32646  -0.31523  -0.30111
 Alpha  occ. eigenvalues --   -0.28957  -0.28695  -0.28118  -0.26198  -0.25579
 Alpha  occ. eigenvalues --   -0.24823  -0.23380  -0.22245  -0.21557  -0.20709
 Alpha  occ. eigenvalues --   -0.19442  -0.17351  -0.14498  -0.13898  -0.09837
 Alpha  occ. eigenvalues --    0.04022
 Alpha virt. eigenvalues --    0.05378   0.06404   0.06492   0.07294   0.08086
 Alpha virt. eigenvalues --    0.08601   0.08826   0.09539   0.09555   0.10148
 Alpha virt. eigenvalues --    0.10687   0.10977   0.11711   0.11855   0.12298

  Beta  occ. eigenvalues --  -14.24592 -14.23840 -14.22811 -14.21121 -14.19791
  Beta  occ. eigenvalues --  -10.14770 -10.13864 -10.12114 -10.10188 -10.09392
  Beta  occ. eigenvalues --  -10.08931 -10.08911 -10.08678 -10.08176 -10.07596
  Beta  occ. eigenvalues --  -10.06266  -0.90175  -0.87591  -0.83871  -0.79152
  Beta  occ. eigenvalues --   -0.77425  -0.70458  -0.68718  -0.63793  -0.62460
  Beta  occ. eigenvalues --   -0.59034  -0.54199  -0.52296  -0.51739  -0.50163
  Beta  occ. eigenvalues --   -0.47564  -0.44497  -0.44345  -0.40706  -0.40243
  Beta  occ. eigenvalues --   -0.39533  -0.39138  -0.38709  -0.37972  -0.36429
  Beta  occ. eigenvalues --   -0.34760  -0.33627  -0.32578  -0.31467  -0.30086
  Beta  occ. eigenvalues --   -0.28939  -0.28663  -0.28097  -0.26174  -0.25551
  Beta  occ. eigenvalues --   -0.24799  -0.23211  -0.22173  -0.21521  -0.20690
  Beta  occ. eigenvalues --   -0.19370  -0.17273  -0.14433  -0.13793  -0.09792
  Beta virt. eigenvalues --    0.06003   0.06615   0.06848   0.07212   0.07592
  Beta virt. eigenvalues --    0.08328   0.08856   0.09104   0.09758   0.10148
  Beta virt. eigenvalues --    0.10671   0.10812   0.11266   0.11730   0.11951

 Mulliken charges and spin densities:
               1          2
     1  C   -0.040140  -0.448012
     2  C    0.101629  -0.318121
     3  C   -0.149274  -0.073563
     4  N    0.349799   0.009753
     5  C    0.270489  -1.213656
     6  C   -0.552186   1.114034
     7  C   -0.149391  -0.196607
     8  C    0.612177  -1.106021
     9  C    0.116307  -0.423939
    10  N   -0.157777   0.025922
    11  C   -0.626886   0.326104
    12  C    0.576920  -0.481488
    13  N   -0.031672   0.015676
    14  C   -0.568044   0.228315
    15  N   -0.143173   0.029050
    16  N   -0.190921  -0.171535
    17  H    0.167511  -0.012773
    18  H   -0.007231   0.139882
    19  H    0.083610   0.066102
    20  H   -0.105467   0.215751
    21  H   -0.106539   0.244546
    22  H   -0.213575   0.328829
    23  H   -0.004598   0.240074
    24  H    0.092338   0.062573
    25  H    0.125318   0.022448
    26  H   -0.224658   0.466533
    27  H    0.029752   0.120653
    28  H    0.125401   0.015472
    29  H    0.078089   0.039860
    30  H   -0.235400   0.395315
    31  H    0.217447   0.012147
    32  H    0.122807   0.010783
    33  H   -0.087352   0.341792
    34  H   -0.281720   0.526133
    35  H   -0.193591   0.447967
 Sum of Mulliken charges =  -1.00000   1.00000

 Dipole moment (field-independent basis, Debye):
    X=             -5.3511    Y=              0.3029    Z=              3.7941  Tot=              6.5667
 Quadrupole moment (field-independent basis, Debye-Ang):
   XX=           -194.7069   YY=           -142.4465   ZZ=           -130.0230
   XY=              5.1428   XZ=              1.7439   YZ=              2.7706

 Summary of Natural Population Analysis:

                                       Natural Population
                Natural  -----------------------------------------------
    Atom  No    Charge         Core      Valence    Rydberg      Total
 -----------------------------------------------------------------------
      C    1   -0.28725      0.99966     2.28294    0.00464     3.28725
      C    2   -0.19330      0.99964     2.18634    0.00733     3.19330
      C    3   -0.08550      0.99960     2.07463    0.01127     3.08550
      N    4   -0.25061      0.99964     2.73888    0.01209     3.75061
      C    5   -0.08091      0.99958     2.06952    0.01181     3.08091
      C    6   -0.12201      0.99958     2.11135    0.01108     3.12201
      C    7   -0.19592      0.99962     2.18823    0.00807     3.19592
      C    8   -0.20021      0.99962     2.19267    0.00792     3.20021
      C    9    0.20214      0.99952     1.78495    0.01339     2.79786
      N   10   -0.27099      0.99964     2.76128    0.01008     3.77099
      C   11    0.19395      0.99953     1.79042    0.01609     2.80605
      C   12   -0.04235      0.99955     2.02863    0.01417     3.04235
      N   13   -0.19943      0.99972     2.68931    0.01041     3.69943
      C   14   -0.04074      0.99957     2.02918    0.01200     3.04074
      N   15   -0.22757      0.99967     2.71203    0.01587     3.72757
      N   16   -0.32125      0.99976     2.80870    0.01279     3.82125
      H   17    0.09886      0.00000     0.40008    0.00107     0.40114
      H   18    0.09410      0.00000     0.40509    0.00081     0.40590
      H   19    0.10327      0.00000     0.39553    0.00120     0.39673
      H   20    0.09017      0.00000     0.40862    0.00120     0.40983
      H   21    0.09587      0.00000     0.40291    0.00122     0.40413
      H   22    0.09380      0.00000     0.40474    0.00146     0.40620
      H   23    0.11300      0.00000     0.38480    0.00221     0.38700
      H   24    0.09740      0.00000     0.40115    0.00145     0.40260
      H   25    0.09947      0.00000     0.39933    0.00120     0.40053
      H   26    0.10612      0.00000     0.39229    0.00159     0.39388
      H   27    0.10349      0.00000     0.39574    0.00077     0.39651
      H   28    0.10289      0.00000     0.39599    0.00112     0.39711
      H   29    0.09814      0.00000     0.40104    0.00082     0.40186
      H   30    0.10409      0.00000     0.39479    0.00111     0.39591
      H   31    0.10197      0.00000     0.39640    0.00164     0.39803
      H   32    0.08642      0.00000     0.41159    0.00199     0.41358
      H   33    0.17962      0.00000     0.31579    0.00459     0.32038
      H   34    0.17427      0.00000     0.31910    0.00663     0.32573
      H   35    0.17902      0.00000     0.31683    0.00415     0.32098
 =======================================================================
   * Total *   -0.00000     15.99389    43.79087    0.21523    60.00000

 Normal termination of Gaussian 16 at Fri Dec 11 01:49:19 2020.
