 Gaussian 16, Revision A.03,

 -----------------------------------------------------------
 # opt freq B3LYP/6-31G(d) empiricaldispersion=gd3bj scf=xqc
 -----------------------------------------------------------

 ------------------------------
 CID_61619330_JID_6922_neutraal
 ------------------------------
 Symbolic Z-matrix:
 Charge =  0 Multiplicity = 1

 SCF Done:  E(RB3LYP) =  -713.251957480     A.U. after   13 cycles
 SCF Done:  E(RB3LYP) =  -713.255848506     A.U. after   12 cycles
 SCF Done:  E(RB3LYP) =  -713.257319373     A.U. after   12 cycles
 SCF Done:  E(RB3LYP) =  -713.258222211     A.U. after   12 cycles
 SCF Done:  E(RB3LYP) =  -713.258607369     A.U. after   11 cycles
 SCF Done:  E(RB3LYP) =  -713.258529619     A.U. after   11 cycles
 SCF Done:  E(RB3LYP) =  -713.258749486     A.U. after   11 cycles
 SCF Done:  E(RB3LYP) =  -713.258887378     A.U. after   10 cycles
 SCF Done:  E(RB3LYP) =  -713.258933379     A.U. after   10 cycles
 SCF Done:  E(RB3LYP) =  -713.258942640     A.U. after    9 cycles
 SCF Done:  E(RB3LYP) =  -713.258967929     A.U. after    9 cycles
 SCF Done:  E(RB3LYP) =  -713.258969107     A.U. after    8 cycles
 SCF Done:  E(RB3LYP) =  -713.258969364     A.U. after    7 cycles
 SCF Done:  E(RB3LYP) =  -713.258969409     A.U. after    7 cycles
 SCF Done:  E(RB3LYP) =  -713.258969419     A.U. after    6 cycles
 Optimization completed.
    -- Stationary point found.
 Normal termination of Gaussian 16 at Fri Dec 11 01:13:21 2020.

 --------------------------------------------------------------------
 #N Geom=AllCheck Guess=TCheck SCRF=Check GenChk RB3LYP/6-31G(d) Freq
 --------------------------------------------------------------------

 Structure from the checkpoint file:  "JID_6922.chk"
 ------------------------------
 CID_61619330_JID_6922_neutraal
 ------------------------------
 Charge =  0 Multiplicity = 1

 SCF Done:  E(RB3LYP) =  -713.258969419     A.U. after    1 cycles

  Exact polarizability: 180.186  -2.348 139.206  -0.091 -15.384 126.564
 Approx polarizability: 247.024  -7.386 199.535   3.406 -43.307 199.396

                      1                      2                      3
                      A                      A                      A
 Frequencies --     25.3142                41.7495                72.9902
 Red. masses --      3.5350                 3.0402                 2.3906
 Frc consts  --      0.0013                 0.0031                 0.0075
 IR Inten    --      0.6047                 0.8044                 2.5254

                      4                      5                      6
                      A                      A                      A
 Frequencies --     81.1246                88.8788                98.0074
 Red. masses --      2.7279                 2.8129                 2.8026
 Frc consts  --      0.0106                 0.0131                 0.0159
 IR Inten    --      1.4260                 1.3995                 1.8870

                      7                      8                      9
                      A                      A                      A
 Frequencies --    135.0794               174.3376               204.3537
 Red. masses --      3.4671                 2.4427                 2.4520
 Frc consts  --      0.0373                 0.0437                 0.0603
 IR Inten    --      0.7061                 5.4927                 1.7605

                     10                     11                     12
                      A                      A                      A
 Frequencies --    219.0670               229.9790               241.1222
 Red. masses --      1.8000                 1.4685                 1.5589
 Frc consts  --      0.0509                 0.0458                 0.0534
 IR Inten    --      2.9497                28.7789                 8.7778

                     13                     14                     15
                      A                      A                      A
 Frequencies --    252.4214               265.7495               276.2185
 Red. masses --      1.7427                 2.6808                 2.0684
 Frc consts  --      0.0654                 0.1115                 0.0930
 IR Inten    --      2.1313                 7.0089                 3.2797

                     16                     17                     18
                      A                      A                      A
 Frequencies --    287.6824               302.8040               318.5130
 Red. masses --      1.5894                 2.9970                 2.7687
 Frc consts  --      0.0775                 0.1619                 0.1655
 IR Inten    --      0.5843                 2.3598                 5.3425

                     19                     20                     21
                      A                      A                      A
 Frequencies --    335.7050               440.2132               449.9072
 Red. masses --      2.3054                 3.7240                 3.0449
 Frc consts  --      0.1531                 0.4252                 0.3631
 IR Inten    --      1.5956                 3.0564                 2.7767

                     22                     23                     24
                      A                      A                      A
 Frequencies --    458.0635               480.9277               508.7184
 Red. masses --      3.2259                 4.6382                 3.8227
 Frc consts  --      0.3988                 0.6321                 0.5829
 IR Inten    --      2.6988                 6.0845                 9.5150

                     25                     26                     27
                      A                      A                      A
 Frequencies --    554.1180               579.6242               606.5433
 Red. masses --      4.0371                 4.7464                 3.7881
 Frc consts  --      0.7303                 0.9395                 0.8211
 IR Inten    --      0.8718                 2.2842                 5.9798

                     28                     29                     30
                      A                      A                      A
 Frequencies --    689.2783               707.8414               774.0638
 Red. masses --      4.1606                 2.8590                 1.8571
 Frc consts  --      1.1647                 0.8440                 0.6556
 IR Inten    --      2.3745                 6.8874                54.4274

                     31                     32                     33
                      A                      A                      A
 Frequencies --    786.1498               804.7138               828.8445
 Red. masses --      1.4621                 1.6114                 1.3590
 Frc consts  --      0.5324                 0.6148                 0.5501
 IR Inten    --      8.1382                32.2963                10.4274

                     34                     35                     36
                      A                      A                      A
 Frequencies --    843.1025               874.6761               885.1364
 Red. masses --      2.3668                 1.5934                 2.1043
 Frc consts  --      0.9912                 0.7183                 0.9714
 IR Inten    --     13.5416                32.3981                 5.8980

                     37                     38                     39
                      A                      A                      A
 Frequencies --    891.6380               920.3210               938.7257
 Red. masses --      1.7531                 1.4659                 1.6127
 Frc consts  --      0.8212                 0.7315                 0.8373
 IR Inten    --      2.6194                43.1705                18.7668

                     40                     41                     42
                      A                      A                      A
 Frequencies --    966.4385               979.1810              1001.3112
 Red. masses --      1.2664                 2.5118                 3.0383
 Frc consts  --      0.6969                 1.4189                 1.7948
 IR Inten    --      0.5329                 8.7051                15.7182

                     43                     44                     45
                      A                      A                      A
 Frequencies --   1019.2766              1061.5428              1069.2461
 Red. masses --      5.7636                 2.4876                 1.9905
 Frc consts  --      3.5280                 1.6516                 1.3408
 IR Inten    --      1.1065                 2.9378                 0.2605

                     46                     47                     48
                      A                      A                      A
 Frequencies --   1095.4886              1099.2923              1117.7762
 Red. masses --      2.7435                 3.1592                 1.9414
 Frc consts  --      1.9399                 2.2493                 1.4292
 IR Inten    --     49.6860                61.9057                35.1686

                     49                     50                     51
                      A                      A                      A
 Frequencies --   1133.5102              1150.5046              1157.6503
 Red. masses --      1.7034                 2.2731                 2.2576
 Frc consts  --      1.2895                 1.7727                 1.7826
 IR Inten    --      0.4517                90.8724                57.4954

                     52                     53                     54
                      A                      A                      A
 Frequencies --   1187.1846              1201.6050              1209.5945
 Red. masses --      1.2730                 1.7230                 1.2402
 Frc consts  --      1.0571                 1.4658                 1.0691
 IR Inten    --      0.6253                 5.9527                 3.1209

                     55                     56                     57
                      A                      A                      A
 Frequencies --   1213.1540              1228.5015              1242.0811
 Red. masses --      1.6808                 1.5586                 1.3060
 Frc consts  --      1.4575                 1.3859                 1.1871
 IR Inten    --     20.9796                 8.5146                 2.0793

                     58                     59                     60
                      A                      A                      A
 Frequencies --   1286.4363              1305.3290              1335.1581
 Red. masses --      2.9707                 1.2580                 1.5965
 Frc consts  --      2.8966                 1.2629                 1.6768
 IR Inten    --    133.1977                 6.6670               103.7564

                     61                     62                     63
                      A                      A                      A
 Frequencies --   1343.8388              1351.6200              1381.5378
 Red. masses --      1.1120                 1.2870                 4.7472
 Frc consts  --      1.1832                 1.3853                 5.3384
 IR Inten    --      9.1055                 4.1646                32.5992

                     64                     65                     66
                      A                      A                      A
 Frequencies --   1384.2910              1400.7318              1422.4818
 Red. masses --      1.4290                 1.2967                 1.2544
 Frc consts  --      1.6134                 1.4990                 1.4955
 IR Inten    --     18.8817                 2.2391                 8.7926

                     67                     68                     69
                      A                      A                      A
 Frequencies --   1429.2437              1438.6412              1445.9405
 Red. masses --      1.3850                 1.3568                 1.2705
 Frc consts  --      1.6669                 1.6545                 1.5651
 IR Inten    --     10.3882                13.4415                21.6649

                     70                     71                     72
                      A                      A                      A
 Frequencies --   1449.8842              1490.1634              1506.1036
 Red. masses --      1.2703                 1.7902                 1.6158
 Frc consts  --      1.5733                 2.3422                 2.1595
 IR Inten    --      4.4471                58.0346                 2.6446

                     73                     74                     75
                      A                      A                      A
 Frequencies --   1516.2031              1517.2750              1520.5723
 Red. masses --      1.0846                 1.0474                 1.0480
 Frc consts  --      1.4690                 1.4207                 1.4277
 IR Inten    --      2.5973                 6.1753                 4.7317

                     76                     77                     78
                      A                      A                      A
 Frequencies --   1528.8770              1531.4499              1536.8370
 Red. masses --      1.0644                 1.0539                 1.3774
 Frc consts  --      1.4659                 1.4564                 1.9167
 IR Inten    --      1.9302                 5.0019                17.2399

                     79                     80                     81
                      A                      A                      A
 Frequencies --   1537.8768              1539.2728              1548.9978
 Red. masses --      1.1022                 1.4262                 1.0937
 Frc consts  --      1.5358                 1.9910                 1.5461
 IR Inten    --     36.6531                11.0717                 5.8458

                     82                     83                     84
                      A                      A                      A
 Frequencies --   1642.6622              1670.7058              1695.2909
 Red. masses --      5.4981                 6.0243                 1.0903
 Frc consts  --      8.7410                 9.9073                 1.8463
 IR Inten    --     69.8390                62.6911                36.0688

                     85                     86                     87
                      A                      A                      A
 Frequencies --   2942.2488              2998.4379              3020.5030
 Red. masses --      1.0820                 1.0718                 1.0351
 Frc consts  --      5.5189                 5.6774                 5.5638
 IR Inten    --     61.7118                76.2569                61.7823

                     88                     89                     90
                      A                      A                      A
 Frequencies --   3037.0240              3048.3243              3055.8159
 Red. masses --      1.0691                 1.0378                 1.0410
 Frc consts  --      5.8099                 5.6819                 5.7272
 IR Inten    --     32.0524                18.2108                22.5614

                     91                     92                     93
                      A                      A                      A
 Frequencies --   3066.9399              3076.7295              3084.6565
 Red. masses --      1.0825                 1.1063                 1.0914
 Frc consts  --      5.9990                 6.1703                 6.1183
 IR Inten    --     27.4793                46.8138                36.6873

                     94                     95                     96
                      A                      A                      A
 Frequencies --   3092.2041              3116.8196              3119.7140
 Red. masses --      1.0942                 1.1006                 1.1017
 Frc consts  --      6.1644                 6.2992                 6.3176
 IR Inten    --      5.7377                43.8110                49.7597

                     97                     98                     99
                      A                      A                      A
 Frequencies --   3127.6777              3149.8323              3154.4470
 Red. masses --      1.0961                 1.1029                 1.0992
 Frc consts  --      6.3176                 6.4473                 6.4445
 IR Inten    --     39.8694                21.9956                29.4029

                    100                    101                    102
                      A                      A                      A
 Frequencies --   3185.2028              3213.8962              3227.8806
 Red. masses --      1.0875                 1.0921                 1.0919
 Frc consts  --      6.5009                 6.6462                 6.7033
 IR Inten    --     14.2302                10.6764                16.5477

                    103                    104                    105
                      A                      A                      A
 Frequencies --   3251.2155              3484.7322              3585.5449
 Red. masses --      1.0906                 1.0526                 1.0891
 Frc consts  --      6.7919                 7.5312                 8.2497
 IR Inten    --      9.9814                 1.4471                 0.2942

 - Thermochemistry -
 -------------------
 Temperature   298.150 Kelvin.  Pressure   1.00000 Atm.
 Atom     1 has atomic number  6 and mass  12.00000

 Molecular mass:   223.15723 amu.
 Principal axes and moments of inertia in atomic units:
                           1         2         3
     Eigenvalues --  2685.388715064.382036023.45024
           X            0.99983   0.01838   0.00048
           Y           -0.01839   0.99908   0.03882
           Z            0.00024  -0.03882   0.99925
 This molecule is an asymmetric top.
 Rotational symmetry number  1.
 Warning -- assumption of classical behavior for rotation
           may cause significant error
 Rotational temperatures (Kelvin)      0.03225     0.01710     0.01438
 Rotational constants (GHZ):           0.67206     0.35636     0.29962
 Zero-point vibrational energy     858944.5 (Joules/Mol)
                                  205.29267 (Kcal/Mol)
 Warning -- explicit consideration of  27 degrees of freedom as
           vibrations may cause significant error
 Vibrational temperatures:     36.42    60.07   105.02   116.72   127.88
          (Kelvin)            141.01   194.35   250.83   294.02   315.19
                              330.89   346.92   363.18   382.35   397.42
                              413.91   435.67   458.27   483.00   633.37
                              647.32   659.05   691.95   731.93   797.25
                              833.95   872.68   991.72  1018.43  1113.71
                             1131.09  1157.80  1192.52  1213.04  1258.46
                             1273.51  1282.87  1324.14  1350.62  1390.49
                             1408.82  1440.66  1466.51  1527.32  1538.41
                             1576.16  1581.64  1608.23  1630.87  1655.32
                             1665.60  1708.09  1728.84  1740.34  1745.46
                             1767.54  1787.08  1850.89  1878.08  1920.99
                             1933.48  1944.68  1987.72  1991.69  2015.34
                             2046.63  2056.36  2069.88  2080.39  2086.06
                             2144.01  2166.95  2181.48  2183.02  2187.76
                             2199.71  2203.41  2211.17  2212.66  2214.67
                             2228.66  2363.42  2403.77  2439.15  4233.24
                             4314.08  4345.83  4369.60  4385.86  4396.64
                             4412.64  4426.73  4438.13  4448.99  4484.41
                             4488.57  4500.03  4531.91  4538.55  4582.80
                             4624.08  4644.20  4677.77  5013.75  5158.80

 Zero-point correction=                           0.327155 (Hartree/Particle)
 Thermal correction to Energy=                    0.344424
 Thermal correction to Enthalpy=                  0.345369
 Thermal correction to Gibbs Free Energy=         0.281852
 Sum of electronic and zero-point Energies=           -712.931815
 Sum of electronic and thermal Energies=              -712.914545
 Sum of electronic and thermal Enthalpies=            -712.913601
 Sum of electronic and thermal Free Energies=         -712.977117

                     E (Thermal)             CV                S
                      KCal/Mol        Cal/Mol-Kelvin    Cal/Mol-Kelvin
 Total                  216.130             65.046            133.681
 Electronic               0.000              0.000              0.000
 Translational            0.889              2.981             42.111
 Rotational               0.889              2.981             32.771
 Vibrational            214.352             59.084             58.800
 Vibration     1          0.593              1.985              6.166
 Vibration     2          0.594              1.980              5.174
 Vibration     3          0.599              1.967              4.071
 Vibration     4          0.600              1.962              3.863
 Vibration     5          0.602              1.957              3.685
 Vibration     6          0.603              1.951              3.494
 Vibration     7          0.613              1.918              2.872
 Vibration     8          0.627              1.874              2.388
 Vibration     9          0.640              1.834              2.094
 Vibration    10          0.647              1.812              1.967
 Vibration    11          0.652              1.795              1.879
 Vibration    12          0.658              1.777              1.795
 Vibration    13          0.664              1.759              1.714
 Vibration    14          0.672              1.736              1.624
 Vibration    15          0.678              1.717              1.557
 Vibration    16          0.685              1.697              1.488
 Vibration    17          0.694              1.668              1.401
 Vibration    18          0.705              1.638              1.318
 Vibration    19          0.717              1.604              1.232
 Vibration    20          0.800              1.382              0.826
 Vibration    21          0.809              1.361              0.796
 Vibration    22          0.816              1.343              0.772
 Vibration    23          0.837              1.292              0.708
 Vibration    24          0.864              1.231              0.637
 Vibration    25          0.910              1.131              0.536
 Vibration    26          0.936              1.075              0.486
 Vibration    27          0.965              1.018              0.439

 Optimization completed.
    -- Stationary point found.
 Normal termination of Gaussian 16 at Fri Dec 11 01:25:57 2020.

 ----------------------------------------------------------------------
 # B3LYP/6-311++G(d,p) empiricaldispersion=gd3bj scf=xqc pop=npa geom=c
 heck
 ----------------------------------------------------------------------

 --------------------------------------
 CID_61619330_JID_6922_Energie_neutraal
 --------------------------------------
 Structure from the checkpoint file:  "JID_6922.chk"
 Charge =  0 Multiplicity = 1

 SCF Done:  E(RB3LYP) =  -713.464502322     A.U. after   14 cycles
 Normal termination of Gaussian 16 at Fri Dec 11 01:31:09 2020.

 ----------------------------------------------------------------------
 # B3LYP/6-311++G(d,p) empiricaldispersion=gd3bj scf=xqc pop=npa geom=c
 heck
 ----------------------------------------------------------------------

 ------------------------------------
 CID_61619330_JID_6922_Energie_kation
 ------------------------------------
 Structure from the checkpoint file:  "JID_6922.chk"
 Charge =  1 Multiplicity = 2

 SCF Done:  E(UB3LYP) =  -713.179248651     A.U. after   27 cycles
 Normal termination of Gaussian 16 at Fri Dec 11 01:44:23 2020.
 Gaussian 16:  ES64L-G16RevA.03 25-Dec-2016

 ----------------------------------------------------------------------
 # B3LYP/6-311++G(d,p) empiricaldispersion=gd3bj scf=xqc pop=npa geom=c
 heck
 ----------------------------------------------------------------------

 -----------------------------------
 CID_61619330_JID_6922_Energie_anion
 -----------------------------------
 Structure from the checkpoint file:  "JID_6922.chk"
 Charge = -1 Multiplicity = 2

                         Standard orientation:
 ---------------------------------------------------------------------
 Center     Atomic      Atomic             Coordinates (Angstroms)
 Number     Number       Type             X           Y           Z
 ---------------------------------------------------------------------
      1          6           0        2.893423    2.583121    1.270786
      2          6           0        2.027378    2.266098    0.049234
      3          6           0        2.129992    0.810037   -0.448783
      4          6           0        1.465688   -0.177327    0.539114
      5          6           0       -0.059635   -0.277133    0.583052
      6          6           0       -0.923792    0.484401   -0.198657
      7          6           0       -2.314024    0.357225   -0.052750
      8          6           0       -2.850612   -0.535501    0.876474
      9          6           0       -1.976141   -1.297451    1.659910
     10          6           0       -0.600986   -1.172360    1.523630
     11          8           0       -3.058766    1.153452   -0.879274
     12          6           0       -4.468384    1.061200   -0.789510
     13          8           0        2.080177   -1.478146    0.538125
     14          6           0        2.155426   -2.218750   -0.672005
     15          6           0        0.820153   -2.679098   -1.256493
     16          7           0        1.572640    0.763234   -1.810163
     17          1           0        2.581228    2.021861    2.158071
     18          1           0        2.830875    3.647321    1.522203
     19          1           0        3.947177    2.344595    1.082184
     20          1           0        0.978238    2.506344    0.253147
     21          1           0        2.333635    2.920057   -0.778733
     22          1           0        3.199218    0.530213   -0.423440
     23          1           0        1.763783    0.181788    1.529900
     24          1           0       -0.540593    1.150890   -0.959794
     25          1           0       -3.921279   -0.647377    0.999529
     26          1           0       -2.387325   -1.993395    2.386438
     27          1           0        0.070046   -1.774123    2.127622
     28          1           0       -4.823585    0.049351   -1.027675
     29          1           0       -4.829483    1.339424    0.209945
     30          1           0       -4.864184    1.764645   -1.524391
     31          1           0        2.736112   -1.664273   -1.426376
     32          1           0        2.755996   -3.095249   -0.406078
     33          1           0        0.202732   -1.844347   -1.598907
     34          1           0        1.007210   -3.342992   -2.109535
     35          1           0        0.243109   -3.226957   -0.506302
     36          1           0        2.147956    1.338960   -2.422616
     37          1           0        1.598455   -0.178612   -2.188881
 ---------------------------------------------------------------------

 SCF Done:  E(UB3LYP) =  -713.450259757     A.U. after   33 cycles
 SCF Done:  E(UB3LYP) =  -713.450259758     a.u. after    1 cycles

 The electronic state is 2-A.
 Alpha  occ. eigenvalues --  -19.05766 -19.02754 -14.19701 -10.13716 -10.13253
 Alpha  occ. eigenvalues --  -10.12667 -10.12355 -10.10817 -10.08634 -10.08129
 Alpha  occ. eigenvalues --  -10.07616 -10.07530 -10.07268 -10.06927 -10.06690
 Alpha  occ. eigenvalues --  -10.06621  -0.97355  -0.93775  -0.79611  -0.75947
 Alpha  occ. eigenvalues --   -0.69478  -0.67223  -0.66193  -0.65504  -0.60587
 Alpha  occ. eigenvalues --   -0.59945  -0.56161  -0.51801  -0.51440  -0.49647
 Alpha  occ. eigenvalues --   -0.46380  -0.43654  -0.41255  -0.39934  -0.38966
 Alpha  occ. eigenvalues --   -0.38675  -0.37895  -0.37470  -0.36261  -0.35349
 Alpha  occ. eigenvalues --   -0.33411  -0.33343  -0.33052  -0.32223  -0.30508
 Alpha  occ. eigenvalues --   -0.30095  -0.29384  -0.28442  -0.27399  -0.27206
 Alpha  occ. eigenvalues --   -0.26814  -0.26231  -0.25212  -0.24856  -0.23623
 Alpha  occ. eigenvalues --   -0.22387  -0.20444  -0.17046  -0.15582  -0.14704
 Alpha  occ. eigenvalues --   -0.12830   0.04154
 Alpha virt. eigenvalues --    0.05456   0.06540   0.06971   0.07605   0.08028
 Alpha virt. eigenvalues --    0.08463   0.08697   0.08922   0.09274   0.09615
 Alpha virt. eigenvalues --    0.10305   0.10487   0.11128   0.11665   0.11804

  Beta  occ. eigenvalues --  -19.05758 -19.02750 -14.19668 -10.13717 -10.13251
  Beta  occ. eigenvalues --  -10.12624 -10.12334 -10.10805 -10.08633 -10.08122
  Beta  occ. eigenvalues --  -10.07602 -10.07515 -10.07250 -10.06925 -10.06687
  Beta  occ. eigenvalues --  -10.06605  -0.97338  -0.93764  -0.79560  -0.75936
  Beta  occ. eigenvalues --   -0.69446  -0.67197  -0.66171  -0.65482  -0.60553
  Beta  occ. eigenvalues --   -0.59897  -0.56118  -0.51752  -0.51414  -0.49612
  Beta  occ. eigenvalues --   -0.46338  -0.43619  -0.41226  -0.39909  -0.38940
  Beta  occ. eigenvalues --   -0.38644  -0.37860  -0.37442  -0.36229  -0.35323
  Beta  occ. eigenvalues --   -0.33379  -0.33322  -0.33020  -0.32194  -0.30480
  Beta  occ. eigenvalues --   -0.30073  -0.29360  -0.28422  -0.27379  -0.27180
  Beta  occ. eigenvalues --   -0.26776  -0.26202  -0.25184  -0.24835  -0.23595
  Beta  occ. eigenvalues --   -0.22371  -0.20426  -0.17021  -0.15569  -0.14674
  Beta  occ. eigenvalues --   -0.12820
  Beta virt. eigenvalues --    0.06187   0.06602   0.06966   0.07430   0.07860
  Beta virt. eigenvalues --    0.08423   0.08712   0.08892   0.09229   0.09752
  Beta virt. eigenvalues --    0.09915   0.10618   0.10895   0.11281   0.11929

 Mulliken charges and spin densities:
               1          2
     1  C    0.297287  -0.935240
     2  C   -0.365134   0.066270
     3  C    0.056646  -0.015290
     4  C    0.486286  -0.780668
     5  C    0.478253   0.170612
     6  C   -0.508332   0.014084
     7  C   -0.984374   0.438409
     8  C    0.023590   0.254249
     9  C    0.793856  -1.236623
    10  C   -0.190407  -0.050462
    11  O   -0.191598   0.051856
    12  C    0.714491  -1.043440
    13  O   -0.086473   0.028866
    14  C    0.177964  -0.381422
    15  C   -0.188615  -0.362703
    16  N   -0.413940   0.002073
    17  H   -0.085361   0.209926
    18  H   -0.011656   0.153348
    19  H   -0.032197   0.168491
    20  H    0.193483  -0.051589
    21  H   -0.278738   0.412367
    22  H   -0.096879   0.327085
    23  H    0.299958  -0.102614
    24  H    0.384750  -0.061674
    25  H   -0.360834   0.545574
    26  H   -0.131146   0.300626
    27  H    0.131770   0.041412
    28  H   -0.242062   0.394319
    29  H   -0.234743   0.386014
    30  H   -0.369700   0.537081
    31  H   -0.281874   0.422148
    32  H   -0.093051   0.268149
    33  H    0.088959   0.080999
    34  H   -0.148832   0.290873
    35  H    0.133197   0.024426
    36  H   -0.181457   0.423888
    37  H    0.216913   0.008581
 Sum of Mulliken charges =  -1.00000   1.00000

 Dipole moment (field-independent basis, Debye):
    X=              1.8630    Y=             -1.1493    Z=              2.7696  Tot=              3.5302
 Quadrupole moment (field-independent basis, Debye-Ang):
   XX=           -191.2706   YY=           -142.0299   ZZ=           -138.4425
   XY=              0.7637   XZ=              5.4949   YZ=              2.2961

 Summary of Natural Population Analysis:

                                       Natural Population
                Natural  -----------------------------------------------
    Atom  No    Charge         Core      Valence    Rydberg      Total
 -----------------------------------------------------------------------
      C    1   -0.28504      0.99966     2.28122    0.00416     3.28504
      C    2   -0.19200      0.99962     2.18335    0.00903     3.19200
      C    3   -0.02347      0.99957     2.01039    0.01351     3.02347
      C    4    0.05912      0.99946     1.92579    0.01564     2.94088
      C    5   -0.02214      0.99949     2.01237    0.01028     3.02214
      C    6   -0.12504      0.99947     2.11576    0.00981     3.12504
      C    7    0.16304      0.99938     1.82418    0.01340     2.83696
      C    8   -0.14880      0.99952     2.14029    0.00900     3.14880
      C    9   -0.09273      0.99957     2.08290    0.01025     3.09273
      C   10   -0.11413      0.99951     2.10475    0.00986     3.11413
      O   11   -0.27162      0.99986     3.26222    0.00954     4.27162
      C   12   -0.10089      0.99960     2.09223    0.00906     3.10089
      O   13   -0.30450      0.99989     3.29549    0.00912     4.30450
      C   14   -0.01120      0.99958     1.99891    0.01270     3.01120
      C   15   -0.30626      0.99966     2.30177    0.00484     3.30626
      N   16   -0.42685      0.99976     2.91588    0.01121     3.92685
      H   17    0.09500      0.00000     0.40402    0.00098     0.40500
      H   18    0.09891      0.00000     0.40034    0.00075     0.40109
      H   19    0.09786      0.00000     0.40100    0.00114     0.40214
      H   20    0.10110      0.00000     0.39757    0.00133     0.39890
      H   21    0.09775      0.00000     0.40106    0.00119     0.40225
      H   22    0.08649      0.00000     0.41078    0.00273     0.41351
      H   23    0.09974      0.00000     0.39848    0.00178     0.40026
      H   24    0.12405      0.00000     0.37334    0.00261     0.37595
      H   25    0.10665      0.00000     0.39182    0.00153     0.39335
      H   26    0.09910      0.00000     0.40006    0.00084     0.40090
      H   27    0.10455      0.00000     0.39396    0.00148     0.39545
      H   28    0.08513      0.00000     0.41311    0.00175     0.41487
      H   29    0.08478      0.00000     0.41342    0.00180     0.41522
      H   30    0.09376      0.00000     0.40510    0.00114     0.40624
      H   31    0.07621      0.00000     0.42210    0.00169     0.42379
      H   32    0.08835      0.00000     0.41048    0.00116     0.41165
      H   33    0.10340      0.00000     0.39523    0.00137     0.39660
      H   34    0.09982      0.00000     0.39922    0.00096     0.40018
      H   35    0.10327      0.00000     0.39579    0.00095     0.39673
      H   36    0.17902      0.00000     0.31823    0.00274     0.32098
      H   37    0.17754      0.00000     0.32027    0.00219     0.32246
 =======================================================================
   * Total *    0.00000     15.99359    44.81289    0.19352    61.00000

 Normal termination of Gaussian 16 at Fri Dec 11 02:00:36 2020.
