 Gaussian 16, Revision A.03,

 -----------------------------------------------------------
 # opt freq B3LYP/6-31G(d) empiricaldispersion=gd3bj scf=xqc
 -----------------------------------------------------------

 -------------------------------
 CID_107654560_JID_7539_neutraal
 -------------------------------
 Symbolic Z-matrix:
 Charge =  0 Multiplicity = 1

 SCF Done:  E(RB3LYP) =  -747.581769453     A.U. after   15 cycles
 SCF Done:  E(RB3LYP) =  -747.578819106     A.U. after   13 cycles
 SCF Done:  E(RB3LYP) =  -747.588384643     A.U. after   12 cycles
 SCF Done:  E(RB3LYP) =  -747.589341207     A.U. after   12 cycles
 SCF Done:  E(RB3LYP) =  -747.589979720     A.U. after   12 cycles
 SCF Done:  E(RB3LYP) =  -747.590311019     A.U. after   11 cycles
 SCF Done:  E(RB3LYP) =  -747.590643320     A.U. after   12 cycles
 SCF Done:  E(RB3LYP) =  -747.591017527     A.U. after   12 cycles
 SCF Done:  E(RB3LYP) =  -747.591386974     A.U. after   11 cycles
 SCF Done:  E(RB3LYP) =  -747.591605296     A.U. after   12 cycles
 SCF Done:  E(RB3LYP) =  -747.591726270     A.U. after    8 cycles
 SCF Done:  E(RB3LYP) =  -747.591727407     A.U. after    9 cycles
 SCF Done:  E(RB3LYP) =  -747.591727566     A.U. after    7 cycles
 SCF Done:  E(RB3LYP) =  -747.591727645     A.U. after    7 cycles
 Optimization completed.
    -- Stationary point found.
 Normal termination of Gaussian 16 at Fri Dec 11 12:37:58 2020.

 --------------------------------------------------------------------
 #N Geom=AllCheck Guess=TCheck SCRF=Check GenChk RB3LYP/6-31G(d) Freq
 --------------------------------------------------------------------

 Structure from the checkpoint file:  "JID_7539.chk"
 -------------------------------
 CID_107654560_JID_7539_neutraal
 -------------------------------
 Charge =  0 Multiplicity = 1

 SCF Done:  E(RB3LYP) =  -747.591727645     A.U. after    1 cycles

  Exact polarizability: 158.838  -2.075 163.678 -17.370  -2.652 129.166
 Approx polarizability: 211.222  -8.823 265.402 -36.279  -2.757 201.556

                      1                      2                      3
                      A                      A                      A
 Frequencies --     23.2767                28.6230                43.2413
 Red. masses --      4.6208                 3.0755                 3.7480
 Frc consts  --      0.0015                 0.0015                 0.0041
 IR Inten    --      0.0435                 0.3243                 0.2755

                      4                      5                      6
                      A                      A                      A
 Frequencies --     48.5011                70.4241                91.9771
 Red. masses --      3.4242                 7.6678                 5.1140
 Frc consts  --      0.0047                 0.0224                 0.0255
 IR Inten    --      0.7098                 1.9070                 0.4688

                      7                      8                      9
                      A                      A                      A
 Frequencies --    118.3164               153.6548               183.3559
 Red. masses --      2.5081                 3.3762                 2.7701
 Frc consts  --      0.0207                 0.0470                 0.0549
 IR Inten    --      2.4141                 0.3861                 1.9541

                     10                     11                     12
                      A                      A                      A
 Frequencies --    201.0786               227.2908               231.9299
 Red. masses --      3.3457                 1.6706                 2.0521
 Frc consts  --      0.0797                 0.0508                 0.0650
 IR Inten    --      2.0951                10.7171                15.4907

                     13                     14                     15
                      A                      A                      A
 Frequencies --    271.7796               281.6045               301.7388
 Red. masses --      1.1144                 1.6236                 2.6982
 Frc consts  --      0.0485                 0.0759                 0.1447
 IR Inten    --      6.1281                 2.0984                 5.0886

                     16                     17                     18
                      A                      A                      A
 Frequencies --    317.7503               343.3890               373.0340
 Red. masses --      2.0262                 2.3150                 2.6747
 Frc consts  --      0.1205                 0.1608                 0.2193
 IR Inten    --     10.6980                 1.9260                 3.3870

                     19                     20                     21
                      A                      A                      A
 Frequencies --    406.6043               417.5454               440.4511
 Red. masses --      2.9518                 3.0120                 2.6094
 Frc consts  --      0.2875                 0.3094                 0.2983
 IR Inten    --      3.8376                 0.6052                 6.0001

                     22                     23                     24
                      A                      A                      A
 Frequencies --    455.7789               472.7569               519.6021
 Red. masses --      2.4753                 3.0830                 2.6519
 Frc consts  --      0.3030                 0.4060                 0.4218
 IR Inten    --      0.4550                 2.6552                 6.1247

                     25                     26                     27
                      A                      A                      A
 Frequencies --    546.6015               595.1827               601.6151
 Red. masses --      2.3666                 1.9517                 2.9808
 Frc consts  --      0.4166                 0.4073                 0.6357
 IR Inten    --      2.2053                71.6371                24.1814

                     28                     29                     30
                      A                      A                      A
 Frequencies --    636.1194               652.8187               711.2794
 Red. masses --      5.8869                 1.5969                 2.7422
 Frc consts  --      1.4035                 0.4010                 0.8174
 IR Inten    --      1.9509                71.1238                15.7238

                     31                     32                     33
                      A                      A                      A
 Frequencies --    722.3768               748.1384               777.1068
 Red. masses --      2.5208                 1.4688                 7.5896
 Frc consts  --      0.7750                 0.4844                 2.7004
 IR Inten    --     29.7735                29.9224                50.9239

                     34                     35                     36
                      A                      A                      A
 Frequencies --    801.9804               812.9324               855.4925
 Red. masses --      3.4749                 4.1217                 2.0570
 Frc consts  --      1.3168                 1.6048                 0.8870
 IR Inten    --      2.7690                 9.3650                26.7298

                     37                     38                     39
                      A                      A                      A
 Frequencies --    863.9906               869.0052               904.6593
 Red. masses --      1.2550                 1.9970                 1.4775
 Frc consts  --      0.5520                 0.8885                 0.7125
 IR Inten    --      1.9151                51.9477                36.5481

                     40                     41                     42
                      A                      A                      A
 Frequencies --    912.8058               920.2565               969.3349
 Red. masses --      1.6892                 1.3542                 1.5215
 Frc consts  --      0.8293                 0.6757                 0.8423
 IR Inten    --    118.0278                 2.5468                 1.2701

                     43                     44                     45
                      A                      A                      A
 Frequencies --    971.9719               986.0322               999.3609
 Red. masses --      1.3463                 1.6248                 1.2987
 Frc consts  --      0.7494                 0.9308                 0.7642
 IR Inten    --      0.1351                 8.9134                 2.4422

                     46                     47                     48
                      A                      A                      A
 Frequencies --   1021.8445              1023.3376              1039.6127
 Red. masses --      4.6731                 1.6468                 1.9989
 Frc consts  --      2.8749                 1.0161                 1.2729
 IR Inten    --      0.4980                 4.2061                 3.2222

                     49                     50                     51
                      A                      A                      A
 Frequencies --   1060.0937              1063.7153              1082.7382
 Red. masses --      2.2718                 1.7900                 1.6790
 Frc consts  --      1.5042                 1.1933                 1.1597
 IR Inten    --      3.2799                 6.5742                16.8498

                     52                     53                     54
                      A                      A                      A
 Frequencies --   1114.5508              1149.4992              1166.6274
 Red. masses --      1.6587                 2.4788                 2.7359
 Frc consts  --      1.2140                 1.9298                 2.1939
 IR Inten    --     18.1639                11.9706                20.2784

                     55                     56                     57
                      A                      A                      A
 Frequencies --   1191.2554              1194.3873              1207.6417
 Red. masses --      2.0046                 1.0988                 2.9114
 Frc consts  --      1.6761                 0.9235                 2.5017
 IR Inten    --     14.6480                 0.1927                21.0624

                     58                     59                     60
                      A                      A                      A
 Frequencies --   1216.4904              1236.6591              1273.8728
 Red. masses --      1.1414                 2.8809                 1.3460
 Frc consts  --      0.9952                 2.5959                 1.2869
 IR Inten    --      1.8080                 8.8375                 3.4175

                     61                     62                     63
                      A                      A                      A
 Frequencies --   1285.8069              1294.6006              1336.9613
 Red. masses --      1.5026                 1.3046                 2.1472
 Frc consts  --      1.4636                 1.2882                 2.2613
 IR Inten    --     38.9664                 3.4451                37.7990

                     64                     65                     66
                      A                      A                      A
 Frequencies --   1347.7908              1369.7253              1378.6756
 Red. masses --      1.3103                 2.3453                 1.2762
 Frc consts  --      1.4024                 2.5925                 1.4292
 IR Inten    --     14.1196                 5.7595                16.6178

                     67                     68                     69
                      A                      A                      A
 Frequencies --   1389.3190              1398.2910              1419.4866
 Red. masses --      1.2825                 1.6047                 1.3413
 Frc consts  --      1.4585                 1.8486                 1.5924
 IR Inten    --      5.3966                78.9180                 4.0637

                     70                     71                     72
                      A                      A                      A
 Frequencies --   1428.1594              1439.4019              1448.2330
 Red. masses --      1.2105                 1.2673                 1.4201
 Frc consts  --      1.4547                 1.5470                 1.7549
 IR Inten    --      9.6156                 4.2056                20.7633

                     73                     74                     75
                      A                      A                      A
 Frequencies --   1458.9243              1477.0333              1490.4078
 Red. masses --      2.7008                 1.4099                 1.3263
 Frc consts  --      3.3870                 1.8122                 1.7358
 IR Inten    --    193.0691                 4.6237                 1.0214

                     76                     77                     78
                      A                      A                      A
 Frequencies --   1506.6653              1512.3950              1519.3732
 Red. masses --      2.1006                 1.0944                 1.0581
 Frc consts  --      2.8094                 1.4749                 1.4392
 IR Inten    --     13.6724                 3.1286                10.9034

                     79                     80                     81
                      A                      A                      A
 Frequencies --   1526.0164              1532.6857              1533.7555
 Red. masses --      1.0688                 1.0685                 1.1389
 Frc consts  --      1.4664                 1.4789                 1.5785
 IR Inten    --      4.4831                 2.6981                37.3500

                     82                     83                     84
                      A                      A                      A
 Frequencies --   1538.2117              1550.1746              1649.6377
 Red. masses --      1.0538                 2.0767                 5.5150
 Frc consts  --      1.4691                 2.9402                 8.8424
 IR Inten    --      9.7458                 6.8006                 0.4315

                     85                     86                     87
                      A                      A                      A
 Frequencies --   1669.0327              1697.8384              1789.2537
 Red. masses --      5.4891                 1.0916                 5.5930
 Frc consts  --      9.0091                 1.8541                10.5496
 IR Inten    --      2.4768                21.2758               454.5599

                     88                     89                     90
                      A                      A                      A
 Frequencies --   3020.7454              3033.6577              3047.2175
 Red. masses --      1.0708                 1.0779                 1.0392
 Frc consts  --      5.7566                 5.8445                 5.6852
 IR Inten    --     11.9251                44.2630                27.7211

                     91                     92                     93
                      A                      A                      A
 Frequencies --   3050.2777              3053.3614              3070.7553
 Red. masses --      1.0408                 1.0595                 1.0984
 Frc consts  --      5.7054                 5.8200                 6.1022
 IR Inten    --     19.2130                27.4136                16.5189

                     94                     95                     96
                      A                      A                      A
 Frequencies --   3080.1323              3107.9855              3115.3889
 Red. masses --      1.1039                 1.0988                 1.0929
 Frc consts  --      6.1704                 6.2538                 6.2495
 IR Inten    --     26.1366                40.9951                 4.0972

                     97                     98                     99
                      A                      A                      A
 Frequencies --   3134.8113              3138.0926              3144.7761
 Red. masses --      1.0918                 1.0996                 1.0985
 Frc consts  --      6.3213                 6.3797                 6.4005
 IR Inten    --     23.7137                43.3418                29.9641

                    100                    101                    102
                      A                      A                      A
 Frequencies --   3168.6393              3185.7164              3195.0673
 Red. masses --      1.0875                 1.0862                 1.0903
 Frc consts  --      6.4329                 6.4948                 6.5580
 IR Inten    --     11.7066                 0.5339                17.8965

                    103                    104                    105
                      A                      A                      A
 Frequencies --   3204.8980              3212.9184              3471.3181
 Red. masses --      1.0934                 1.0975                 1.0498
 Frc consts  --      6.6169                 6.6753                 7.4535
 IR Inten    --     25.7886                15.9389                 2.0413

                    106                    107                    108
                      A                      A                      A
 Frequencies --   3561.1898              3588.1426              3612.0820
 Red. masses --      1.0909                 1.0753                 1.0761
 Frc consts  --      8.1514                 8.1571                 8.2721
 IR Inten    --      0.8927                20.9732                30.5303

 - Thermochemistry -
 -------------------
 Temperature   298.150 Kelvin.  Pressure   1.00000 Atm.
 Atom     1 has atomic number  6 and mass  12.00000

 Molecular mass:   235.16846 amu.
 Principal axes and moments of inertia in atomic units:
                           1         2         3
     Eigenvalues --  2898.687925647.681306877.47551
           X            0.99995  -0.01023  -0.00128
           Y            0.01022   0.99994  -0.00478
           Z            0.00133   0.00477   0.99999
 This molecule is an asymmetric top.
 Rotational symmetry number  1.
 Warning -- assumption of classical behavior for rotation
           may cause significant error
 Rotational temperatures (Kelvin)      0.02988     0.01534     0.01259
 Rotational constants (GHZ):           0.62261     0.31955     0.26241
 Zero-point vibrational energy     879913.9 (Joules/Mol)
                                  210.30448 (Kcal/Mol)
 Warning -- explicit consideration of  27 degrees of freedom as
           vibrations may cause significant error
 Vibrational temperatures:     33.49    41.18    62.21    69.78   101.32
          (Kelvin)            132.33   170.23   221.08   263.81   289.31
                              327.02   333.70   391.03   405.17   434.13
                              457.17   494.06   536.71   585.01   600.75
                              633.71   655.76   680.19   747.59   786.44
                              856.34   865.59   915.23   939.26  1023.37
                             1039.34  1076.40  1118.08  1153.87  1169.63
                             1230.86  1243.09  1250.30  1301.60  1313.32
                             1324.04  1394.66  1398.45  1418.68  1437.86
                             1470.21  1472.35  1495.77  1525.24  1530.45
                             1557.82  1603.59  1653.87  1678.52  1713.95
                             1718.46  1737.53  1750.26  1779.28  1832.82
                             1849.99  1862.64  1923.59  1939.17  1970.73
                             1983.61  1998.92  2011.83  2042.32  2054.80
                             2070.98  2083.68  2099.07  2125.12  2144.36
                             2167.76  2176.00  2186.04  2195.60  2205.19
                             2206.73  2213.14  2230.36  2373.46  2401.37
                             2442.81  2574.34  4346.18  4364.76  4384.27
                             4388.67  4393.11  4418.13  4431.62  4471.70
                             4482.35  4510.29  4515.02  4524.63  4558.97
                             4583.54  4596.99  4611.13  4622.67  4994.45
                             5123.76  5162.54  5196.98

 Zero-point correction=                           0.335142 (Hartree/Particle)
 Thermal correction to Energy=                    0.352827
 Thermal correction to Enthalpy=                  0.353771
 Thermal correction to Gibbs Free Energy=         0.288029
 Sum of electronic and zero-point Energies=           -747.256586
 Sum of electronic and thermal Energies=              -747.238900
 Sum of electronic and thermal Enthalpies=            -747.237956
 Sum of electronic and thermal Free Energies=         -747.303699

                     E (Thermal)             CV                S
                      KCal/Mol        Cal/Mol-Kelvin    Cal/Mol-Kelvin
 Total                  221.402             67.214            138.366
 Electronic               0.000              0.000              0.000
 Translational            0.889              2.981             42.267
 Rotational               0.889              2.981             33.087
 Vibrational            219.625             61.253             63.012
 Vibration     1          0.593              1.985              6.333
 Vibration     2          0.593              1.984              5.923
 Vibration     3          0.595              1.980              5.105
 Vibration     4          0.595              1.978              4.878
 Vibration     5          0.598              1.968              4.141
 Vibration     6          0.602              1.955              3.618
 Vibration     7          0.608              1.934              3.128
 Vibration     8          0.619              1.899              2.626
 Vibration     9          0.631              1.862              2.294
 Vibration    10          0.638              1.838              2.123
 Vibration    11          0.651              1.799              1.900
 Vibration    12          0.653              1.792              1.864
 Vibration    13          0.675              1.725              1.585
 Vibration    14          0.681              1.708              1.524
 Vibration    15          0.694              1.670              1.407
 Vibration    16          0.704              1.640              1.322
 Vibration    17          0.722              1.589              1.196
 Vibration    18          0.744              1.527              1.067
 Vibration    19          0.771              1.456              0.939
 Vibration    20          0.781              1.432              0.900
 Vibration    21          0.800              1.382              0.825
 Vibration    22          0.814              1.348              0.778
 Vibration    23          0.830              1.310              0.730
 Vibration    24          0.875              1.207              0.611
 Vibration    25          0.902              1.147              0.551
 Vibration    26          0.953              1.042              0.458
 Vibration    27          0.960              1.028              0.447

                           ! Non-Optimized Parameters !
 Normal termination of Gaussian 16 at Fri Dec 11 12:54:13 2020.

 ----------------------------------------------------------------------
 # B3LYP/6-311++G(d,p) empiricaldispersion=gd3bj scf=xqc pop=npa geom=c
 heck
 ----------------------------------------------------------------------

 ---------------------------------------
 CID_107654560_JID_7539_Energie_neutraal
 ---------------------------------------
 Structure from the checkpoint file:  "JID_7539.chk"
 Charge =  0 Multiplicity = 1

 SCF Done:  E(RB3LYP) =  -747.814983182     A.U. after   15 cycles
 Normal termination of Gaussian 16 at Fri Dec 11 13:02:24 2020.

 ----------------------------------------------------------------------
 # B3LYP/6-311++G(d,p) empiricaldispersion=gd3bj scf=xqc pop=npa geom=c
 heck
 ----------------------------------------------------------------------

 -------------------------------------
 CID_107654560_JID_7539_Energie_kation
 -------------------------------------
 Structure from the checkpoint file:  "JID_7539.chk"
 Charge =  1 Multiplicity = 2

 SCF Done:  E(UB3LYP) =  -747.510599630     A.U. after   33 cycles
 SCF Done:  E(UB3LYP) =  -747.514335559     a.u. after   11 cycles
 Normal termination of Gaussian 16 at Fri Dec 11 16:29:04 2020.
 Gaussian 16:  ES64L-G16RevA.03 25-Dec-2016

 ----------------------------------------------------------------------
 # B3LYP/6-311++G(d,p) empiricaldispersion=gd3bj scf=xqc pop=npa geom=c
 heck
 ----------------------------------------------------------------------

 ------------------------------------
 CID_107654560_JID_7539_Energie_anion
 ------------------------------------
 Structure from the checkpoint file:  "JID_7539.chk"
 Charge = -1 Multiplicity = 2

                         Standard orientation:
 ---------------------------------------------------------------------
 Center     Atomic      Atomic             Coordinates (Angstroms)
 Number     Number       Type             X           Y           Z
 ---------------------------------------------------------------------
      1          6           0        2.653105   -1.741730   -1.222272
      2          6           0        3.387941   -0.582383   -0.543773
      3          6           0        2.435279    0.552526   -0.091556
      4          6           0        1.170636    0.172423    0.702905
      5          6           0        1.435881   -0.464016    2.069148
      6          7           0        0.324376    1.349198    0.942210
      7          6           0       -0.203278    2.236874    0.029439
      8          8           0       -0.456632    3.397690    0.345120
      9          7           0       -0.461941    1.796328   -1.264918
     10          6           0       -0.841853    0.452713   -1.690748
     11          6           0       -1.828041   -0.278540   -0.796597
     12          6           0       -1.774926   -1.673688   -0.712101
     13          6           0       -2.687765   -2.375441    0.075440
     14          6           0       -3.662519   -1.683950    0.795221
     15          6           0       -3.716471   -0.290920    0.721409
     16          6           0       -2.805195    0.407759   -0.069296
     17          7           0        4.289750   -1.131128    0.479584
     18          1           0        2.003592   -2.274966   -0.516594
     19          1           0        3.375292   -2.461411   -1.617645
     20          1           0        2.027487   -1.383615   -2.047537
     21          1           0        4.046214   -0.129167   -1.297628
     22          1           0        3.008998    1.281995    0.498501
     23          1           0        2.099698    1.088279   -0.988932
     24          1           0        0.585023   -0.547053    0.128677
     25          1           0        2.110371    0.155683    2.673454
     26          1           0        0.492173   -0.583504    2.610711
     27          1           0        1.887500   -1.453498    1.965849
     28          1           0        0.517497    1.841960    1.805927
     29          1           0       -0.910141    2.549712   -1.768830
     30          1           0       -1.276358    0.572817   -2.690282
     31          1           0        0.047999   -0.170901   -1.834004
     32          1           0       -1.009372   -2.214275   -1.265293
     33          1           0       -2.632344   -3.459062    0.132050
     34          1           0       -4.371304   -2.226039    1.414744
     35          1           0       -4.466949    0.255265    1.285969
     36          1           0       -2.840403    1.492467   -0.106550
     37          1           0        4.757517   -0.369986    0.970044
     38          1           0        3.758507   -1.636765    1.184965
 ---------------------------------------------------------------------

 SCF Done:  E(UB3LYP) =  -747.806036874     A.U. after   33 cycles
 SCF Done:  E(UB3LYP) =  -747.806036874     a.u. after    1 cycles

 The electronic state is 2-A.
 Alpha  occ. eigenvalues --  -18.98514 -14.23829 -14.23578 -14.20074 -10.20006
 Alpha  occ. eigenvalues --  -10.12420 -10.12375 -10.11189 -10.09382 -10.08812
 Alpha  occ. eigenvalues --  -10.08685 -10.08560 -10.08534 -10.08402 -10.07875
 Alpha  occ. eigenvalues --  -10.07594 -10.06982  -0.95270  -0.83909  -0.81893
 Alpha  occ. eigenvalues --   -0.79789  -0.76847  -0.69187  -0.67888  -0.65919
 Alpha  occ. eigenvalues --   -0.65084  -0.60434  -0.60295  -0.53772  -0.52413
 Alpha  occ. eigenvalues --   -0.51798  -0.49826  -0.48125  -0.43622  -0.42141
 Alpha  occ. eigenvalues --   -0.40453  -0.39973  -0.38594  -0.38147  -0.37489
 Alpha  occ. eigenvalues --   -0.36195  -0.35038  -0.34248  -0.34012  -0.33232
 Alpha  occ. eigenvalues --   -0.32891  -0.32120  -0.31494  -0.30707  -0.30130
 Alpha  occ. eigenvalues --   -0.28467  -0.27721  -0.27251  -0.26832  -0.26224
 Alpha  occ. eigenvalues --   -0.25570  -0.24753  -0.24202  -0.18395  -0.17188
 Alpha  occ. eigenvalues --   -0.16664  -0.16184  -0.15686  -0.14817   0.03822
 Alpha virt. eigenvalues --    0.05633   0.06062   0.06847   0.07107   0.07435
 Alpha virt. eigenvalues --    0.07804   0.08422   0.09019   0.09090   0.09412
 Alpha virt. eigenvalues --    0.10331   0.10855   0.11360   0.11764   0.12275

  Beta  occ. eigenvalues --  -18.98511 -14.23815 -14.23572 -14.20046 -10.20007
  Beta  occ. eigenvalues --  -10.12415 -10.12351 -10.11181 -10.09353 -10.08808
  Beta  occ. eigenvalues --  -10.08670 -10.08537 -10.08523 -10.08392 -10.07843
  Beta  occ. eigenvalues --  -10.07582 -10.06955  -0.95263  -0.83893  -0.81866
  Beta  occ. eigenvalues --   -0.79744  -0.76808  -0.69155  -0.67830  -0.65885
  Beta  occ. eigenvalues --   -0.65038  -0.60388  -0.60245  -0.53721  -0.52379
  Beta  occ. eigenvalues --   -0.51759  -0.49779  -0.48080  -0.43586  -0.42106
  Beta  occ. eigenvalues --   -0.40404  -0.39925  -0.38563  -0.38113  -0.37455
  Beta  occ. eigenvalues --   -0.36152  -0.35013  -0.34218  -0.33983  -0.33202
  Beta  occ. eigenvalues --   -0.32858  -0.32083  -0.31459  -0.30680  -0.30100
  Beta  occ. eigenvalues --   -0.28434  -0.27677  -0.27204  -0.26801  -0.26181
  Beta  occ. eigenvalues --   -0.25541  -0.24720  -0.24169  -0.18372  -0.17158
  Beta  occ. eigenvalues --   -0.16621  -0.16145  -0.15610  -0.14791
  Beta virt. eigenvalues --    0.05914   0.06472   0.06636   0.07128   0.07413
  Beta virt. eigenvalues --    0.07776   0.08207   0.08747   0.09313   0.09508
  Beta virt. eigenvalues --    0.09928   0.10477   0.11039   0.11768   0.12061

 Mulliken charges and spin densities:
               1          2
     1  C   -0.409382  -0.191140
     2  C    1.191093  -1.519564
     3  C   -0.933316   0.598191
     4  C   -0.606161   0.807041
     5  C    0.235830  -0.934341
     6  N   -0.163272   0.067497
     7  C   -0.145302   0.146799
     8  O   -0.340769   0.006071
     9  N   -0.235667  -0.008543
    10  C    1.697185  -2.398860
    11  C    0.554618   0.029611
    12  C   -1.781286   1.659330
    13  C   -0.415742   0.074728
    14  C    0.762096  -1.104494
    15  C   -0.835835   0.606717
    16  C    0.179720  -0.244972
    17  N   -0.407733   0.174119
    18  H   -0.116249   0.294746
    19  H   -0.149978   0.333925
    20  H   -0.251081   0.390280
    21  H    0.089175   0.121516
    22  H   -0.012186   0.183370
    23  H    0.188354  -0.029439
    24  H    1.848231  -1.877011
    25  H   -0.214804   0.395188
    26  H   -0.027793   0.173202
    27  H   -0.263930   0.408894
    28  H    0.304398   0.006904
    29  H    0.122333   0.219347
    30  H   -0.865934   1.081693
    31  H    0.848531  -0.624305
    32  H   -0.360851   0.534377
    33  H   -0.543219   0.722222
    34  H   -0.076049   0.223299
    35  H   -0.027469   0.193602
    36  H    0.071306   0.144831
    37  H   -0.056824   0.278506
    38  H    0.147960   0.056667
 Sum of Mulliken charges =  -1.00000   1.00000

 Dipole moment (field-independent basis, Debye):
    X=             -0.9854    Y=              1.3673    Z=              1.4513  Tot=              2.2242
 Quadrupole moment (field-independent basis, Debye-Ang):
   XX=           -173.0364   YY=           -166.8398   ZZ=           -147.8032
   XY=              3.3667   XZ=             -6.2402   YZ=             -0.6669

 Summary of Natural Population Analysis:

                                       Natural Population
                Natural  -----------------------------------------------
    Atom  No    Charge         Core      Valence    Rydberg      Total
 -----------------------------------------------------------------------
      C    1   -0.28971      0.99964     2.28430    0.00577     3.28971
      C    2   -0.01536      0.99962     2.00419    0.01156     3.01536
      C    3   -0.20073      0.99959     2.19255    0.00860     3.20073
      C    4   -0.02127      0.99958     2.01052    0.01116     3.02127
      C    5   -0.28598      0.99964     2.27935    0.00699     3.28598
      N    6   -0.32964      0.99966     2.82032    0.00966     3.82964
      C    7    0.40947      0.99969     1.56786    0.02297     2.59053
      O    8   -0.34453      0.99988     3.33972    0.00493     4.34453
      N    9   -0.33463      0.99968     2.82461    0.01034     3.83463
      C   10   -0.09902      0.99957     2.08650    0.01296     3.09902
      C   11   -0.02060      0.99950     2.01033    0.01078     3.02060
      C   12   -0.10265      0.99950     2.09309    0.01006     3.10265
      C   13   -0.09680      0.99956     2.08679    0.01045     3.09680
      C   14   -0.10213      0.99956     2.09326    0.00931     3.10213
      C   15   -0.09763      0.99956     2.08886    0.00920     3.09763
      C   16   -0.09987      0.99950     2.09078    0.00959     3.09987
      N   17   -0.42084      0.99977     2.91128    0.00980     3.92084
      H   18    0.09563      0.00000     0.40307    0.00130     0.40437
      H   19    0.10580      0.00000     0.39319    0.00101     0.39420
      H   20    0.09968      0.00000     0.39888    0.00144     0.40032
      H   21    0.08851      0.00000     0.40994    0.00155     0.41149
      H   22    0.09745      0.00000     0.40122    0.00133     0.40255
      H   23    0.10588      0.00000     0.39243    0.00168     0.39412
      H   24    0.10072      0.00000     0.39512    0.00416     0.39928
      H   25    0.09797      0.00000     0.40078    0.00125     0.40203
      H   26    0.10629      0.00000     0.39255    0.00116     0.39371
      H   27    0.10046      0.00000     0.39832    0.00122     0.39954
      H   28    0.19275      0.00000     0.30520    0.00205     0.30725
      H   29    0.19672      0.00000     0.30113    0.00215     0.30328
      H   30    0.11143      0.00000     0.38583    0.00274     0.38857
      H   31    0.09690      0.00000     0.40077    0.00234     0.40310
      H   32    0.10273      0.00000     0.39550    0.00176     0.39727
      H   33    0.10251      0.00000     0.39625    0.00124     0.39749
      H   34    0.09993      0.00000     0.39921    0.00086     0.40007
      H   35    0.09928      0.00000     0.39996    0.00077     0.40072
      H   36    0.10596      0.00000     0.39254    0.00150     0.39404
      H   37    0.17401      0.00000     0.32402    0.00197     0.32599
      H   38    0.17132      0.00000     0.32646    0.00222     0.32868
 =======================================================================
   * Total *    0.00000     16.99350    46.79666    0.20984    64.00000

 Normal termination of Gaussian 16 at Fri Dec 11 16:52:35 2020.
