 Gaussian 16, Revision A.03,

 -----------------------------------------------------------
 # opt freq B3LYP/6-31G(d) empiricaldispersion=gd3bj scf=xqc
 -----------------------------------------------------------

 -----------------------------
 CID_82416123_JID_778_neutraal
 -----------------------------
 Symbolic Z-matrix:
 Charge =  0 Multiplicity = 1

 SCF Done:  E(RB3LYP) =  -816.385455595     A.U. after   15 cycles
 SCF Done:  E(RB3LYP) =  -816.387809990     A.U. after   12 cycles
 SCF Done:  E(RB3LYP) =  -816.386822616     A.U. after   13 cycles
 SCF Done:  E(RB3LYP) =  -816.388292544     A.U. after   12 cycles
 SCF Done:  E(RB3LYP) =  -816.388343074     A.U. after   11 cycles
 SCF Done:  E(RB3LYP) =  -816.388345005     A.U. after   10 cycles
 SCF Done:  E(RB3LYP) =  -816.388353009     A.U. after   10 cycles
 SCF Done:  E(RB3LYP) =  -816.388354003     A.U. after    9 cycles
 SCF Done:  E(RB3LYP) =  -816.388354701     A.U. after    8 cycles
 SCF Done:  E(RB3LYP) =  -816.388354786     A.U. after    8 cycles
 SCF Done:  E(RB3LYP) =  -816.388354818     A.U. after    7 cycles
 Optimization completed.
    -- Stationary point found.
 Normal termination of Gaussian 16 at Tue Dec  8 12:29:38 2020.

 --------------------------------------------------------------------
 #N Geom=AllCheck Guess=TCheck SCRF=Check GenChk RB3LYP/6-31G(d) Freq
 --------------------------------------------------------------------

 Structure from the checkpoint file:  "JID_778.chk"
 -----------------------------
 CID_82416123_JID_778_neutraal
 -----------------------------
 Charge =  0 Multiplicity = 1

 SCF Done:  E(RB3LYP) =  -816.388354818     A.U. after    1 cycles

  Exact polarizability: 126.806   3.037  89.321  -1.541   5.643  57.121
 Approx polarizability: 190.021   3.464 159.575  -5.014  18.271  88.318

                      1                      2                      3
                      A                      A                      A
 Frequencies --     54.7137                64.8840               139.0360
 Red. masses --      6.4884                 2.9334                 5.2581
 Frc consts  --      0.0114                 0.0073                 0.0599
 IR Inten    --      1.8330                 0.2685                 0.7423

                      4                      5                      6
                      A                      A                      A
 Frequencies --    161.6176               220.2088               228.0728
 Red. masses --      6.0700                 1.1407                 1.3159
 Frc consts  --      0.0934                 0.0326                 0.0403
 IR Inten    --      4.1621                42.6767                 7.2967

                      7                      8                      9
                      A                      A                      A
 Frequencies --    258.4114               304.6756               332.6100
 Red. masses --      2.5090                 5.8826                 3.4141
 Frc consts  --      0.0987                 0.3217                 0.2225
 IR Inten    --      6.6718                 1.9316                25.3603

                     10                     11                     12
                      A                      A                      A
 Frequencies --    430.3618               485.4077               504.2418
 Red. masses --      3.2709                 4.5270                 5.6769
 Frc consts  --      0.3569                 0.6285                 0.8504
 IR Inten    --      3.8376                 2.9161                 1.5776

                     13                     14                     15
                      A                      A                      A
 Frequencies --    627.4125               638.2678               728.7097
 Red. masses --     10.0794                 8.5863                 4.1019
 Frc consts  --      2.3377                 2.0609                 1.2834
 IR Inten    --      2.7894                 1.7729                 0.1288

                     16                     17                     18
                      A                      A                      A
 Frequencies --    761.4763               778.0879               790.7266
 Red. masses --      1.8853                 2.0089                 3.5583
 Frc consts  --      0.6441                 0.7166                 1.3108
 IR Inten    --      5.4363                 5.0895                11.5804

                     19                     20                     21
                      A                      A                      A
 Frequencies --    846.8096               880.3071               897.3609
 Red. masses --      1.3947                 4.8350                 3.8262
 Frc consts  --      0.5892                 2.2076                 1.8153
 IR Inten    --     38.7775               107.0194                 0.6482

                     22                     23                     24
                      A                      A                      A
 Frequencies --    929.8569               954.6157              1024.2879
 Red. masses --      2.6111                 1.5905                 1.4792
 Frc consts  --      1.3302                 0.8540                 0.9143
 IR Inten    --      4.7038               193.1814                19.0469

                     25                     26                     27
                      A                      A                      A
 Frequencies --   1031.2299              1101.4717              1165.1687
 Red. masses --      2.0662                 1.5008                 2.1098
 Frc consts  --      1.2946                 1.0728                 1.6876
 IR Inten    --     31.4666                66.4617                19.3212

                     28                     29                     30
                      A                      A                      A
 Frequencies --   1186.7244              1261.1020              1298.1898
 Red. masses --      1.7353                 1.6012                 1.6456
 Frc consts  --      1.4399                 1.5003                 1.6340
 IR Inten    --     56.9109                13.8181                 6.9048

                     31                     32                     33
                      A                      A                      A
 Frequencies --   1335.3842              1360.4691              1415.0150
 Red. masses --      1.5569                 3.4727                 1.2336
 Frc consts  --      1.6358                 3.7870                 1.4553
 IR Inten    --      1.7119                 5.3766                 3.8065

                     34                     35                     36
                      A                      A                      A
 Frequencies --   1429.4036              1502.2779              1523.2205
 Red. masses --      1.3266                 6.8295                 1.2683
 Frc consts  --      1.5970                 9.0812                 1.7337
 IR Inten    --      6.5863                98.1480                15.6965

                     37                     38                     39
                      A                      A                      A
 Frequencies --   1526.5464              1529.3050              1710.7434
 Red. masses --      1.0877                 3.3255                 1.0879
 Frc consts  --      1.4934                 4.5824                 1.8758
 IR Inten    --      9.4522                21.7793                21.3750

                     40                     41                     42
                      A                      A                      A
 Frequencies --   1773.8670              3055.7437              3081.1926
 Red. masses --     11.9272                 1.0394                 1.0824
 Frc consts  --     22.1121                 5.7184                 6.0546
 IR Inten    --    151.6593                16.8064                12.2740

                     43                     44                     45
                      A                      A                      A
 Frequencies --   3130.1316              3154.5959              3250.7645
 Red. masses --      1.0980                 1.1040                 1.0945
 Frc consts  --      6.3383                 6.4730                 6.8147
 IR Inten    --     21.0662                18.8876                 0.5725

                     46                     47                     48
                      A                      A                      A
 Frequencies --   3296.2574              3451.6943              3529.6296
 Red. masses --      1.0945                 1.0504                 1.0902
 Frc consts  --      7.0066                 7.3732                 8.0026
 IR Inten    --      6.3724                 0.7271                 0.5782

 - Thermochemistry -
 -------------------
 Temperature   298.150 Kelvin.  Pressure   1.00000 Atm.
 Atom     1 has atomic number  6 and mass  12.00000

 Molecular mass:   156.03573 amu.
 Principal axes and moments of inertia in atomic units:
                           1         2         3
     Eigenvalues --   647.157142727.536823142.31255
           X            0.99996  -0.00764   0.00400
           Y            0.00773   0.99971  -0.02283
           Z           -0.00382   0.02286   0.99973
 This molecule is an asymmetric top.
 Rotational symmetry number  1.
 Warning -- assumption of classical behavior for rotation
           may cause significant error
 Rotational temperatures (Kelvin)      0.13384     0.03176     0.02756
 Rotational constants (GHZ):           2.78872     0.66167     0.57434
 Zero-point vibrational energy     365712.1 (Joules/Mol)
                                   87.40729 (Kcal/Mol)
 Warning -- explicit consideration of  12 degrees of freedom as
           vibrations may cause significant error
 Vibrational temperatures:     78.72    93.35   200.04   232.53   316.83
          (Kelvin)            328.15   371.80   438.36   478.55   619.19
                              698.39   725.49   902.71   918.33  1048.45
                             1095.59  1119.49  1137.68  1218.37  1266.57
                             1291.10  1337.86  1373.48  1473.72  1483.71
                             1584.77  1676.42  1707.43  1814.44  1867.81
                             1921.32  1957.41  2035.89  2056.59  2161.44
                             2191.57  2196.36  2200.33  2461.38  2552.20
                             4396.53  4433.15  4503.56  4538.76  4677.13
                             4742.58  4966.22  5078.35

 Zero-point correction=                           0.139292 (Hartree/Particle)
 Thermal correction to Energy=                    0.149215
 Thermal correction to Enthalpy=                  0.150159
 Thermal correction to Gibbs Free Energy=         0.103239
 Sum of electronic and zero-point Energies=           -816.249062
 Sum of electronic and thermal Energies=              -816.239140
 Sum of electronic and thermal Enthalpies=            -816.238196
 Sum of electronic and thermal Free Energies=         -816.285116

                     E (Thermal)             CV                S
                      KCal/Mol        Cal/Mol-Kelvin    Cal/Mol-Kelvin
 Total                   93.634             36.067             98.752
 Electronic               0.000              0.000              0.000
 Translational            0.889              2.981             41.044
 Rotational               0.889              2.981             30.096
 Vibrational             91.856             30.105             27.612
 Vibration     1          0.596              1.976              4.639
 Vibration     2          0.597              1.971              4.303
 Vibration     3          0.615              1.914              2.817
 Vibration     4          0.622              1.889              2.531
 Vibration     5          0.647              1.810              1.957
 Vibration     6          0.651              1.798              1.894
 Vibration     7          0.667              1.749              1.672
 Vibration     8          0.696              1.665              1.391
 Vibration     9          0.715              1.610              1.247
 Vibration    10          0.792              1.404              0.857
 Vibration    11          0.841              1.282              0.696
 Vibration    12          0.860              1.241              0.648

 Optimization completed.
    -- Stationary point found.
 Normal termination of Gaussian 16 at Tue Dec  8 12:39:32 2020.

 ----------------------------------------------------------------------
 # B3LYP/6-311++G(d,p) empiricaldispersion=gd3bj scf=xqc pop=npa geom=c
 heck
 ----------------------------------------------------------------------

 -------------------------------------
 CID_82416123_JID_778_Energie_neutraal
 -------------------------------------
 Structure from the checkpoint file:  "JID_778.chk"
 Charge =  0 Multiplicity = 1

 SCF Done:  E(RB3LYP) =  -816.539764774     A.U. after   15 cycles
 Normal termination of Gaussian 16 at Tue Dec  8 12:41:55 2020.

 ----------------------------------------------------------------------
 # B3LYP/6-311++G(d,p) empiricaldispersion=gd3bj scf=xqc pop=npa geom=c
 heck
 ----------------------------------------------------------------------

 -----------------------------------
 CID_82416123_JID_778_Energie_kation
 -----------------------------------
 Structure from the checkpoint file:  "JID_778.chk"
 Charge =  1 Multiplicity = 2

 SCF Done:  E(UB3LYP) =  -816.215645095     A.U. after   28 cycles
 Normal termination of Gaussian 16 at Tue Dec  8 12:49:34 2020.
 Gaussian 16:  ES64L-G16RevA.03 25-Dec-2016

 ----------------------------------------------------------------------
 # B3LYP/6-311++G(d,p) empiricaldispersion=gd3bj scf=xqc pop=npa geom=c
 heck
 ----------------------------------------------------------------------

 ----------------------------------
 CID_82416123_JID_778_Energie_anion
 ----------------------------------
 Structure from the checkpoint file:  "JID_778.chk"
 Charge = -1 Multiplicity = 2

                         Standard orientation:
 ---------------------------------------------------------------------
 Center     Atomic      Atomic             Coordinates (Angstroms)
 Number     Number       Type             X           Y           Z
 ---------------------------------------------------------------------
      1          6           0        2.215960   -1.315585    0.970611
      2          6           0        2.074398   -0.437667   -0.284311
      3          6           0        0.996379    0.623158   -0.026582
      4          8           0        1.290551    1.783659    0.222008
      5          6           0       -0.428719    0.199740   -0.058114
      6          6           0       -1.473306    1.046002    0.220382
      7         16           0       -2.973262    0.211181    0.080688
      8          6           0       -2.078710   -1.238375   -0.348668
      9          7           0       -0.790178   -1.096575   -0.380595
     10          7           0        3.367556    0.141394   -0.633910
     11          1           0        2.505127   -0.703955    1.833790
     12          1           0        3.000221   -2.057163    0.797223
     13          1           0        1.278792   -1.828565    1.202664
     14          1           0        1.738377   -1.076160   -1.108867
     15          1           0       -1.406982    2.089730    0.490757
     16          1           0       -2.598269   -2.164209   -0.565255
     17          1           0        3.273024    0.651538   -1.512203
     18          1           0        3.579845    0.863252    0.056447
 ---------------------------------------------------------------------

 SCF Done:  E(UB3LYP) =  -816.552382189     A.U. after   25 cycles

 The electronic state is 2-A.
 Alpha  occ. eigenvalues --  -88.72120 -18.91641 -14.16782 -14.15690 -10.07650
 Alpha  occ. eigenvalues --  -10.05508 -10.05150 -10.02856 -10.02332 -10.01547
 Alpha  occ. eigenvalues --   -7.80800  -5.77064  -5.76728  -5.76468  -0.85814
 Alpha  occ. eigenvalues --   -0.80782  -0.74729  -0.64259  -0.60802  -0.58297
 Alpha  occ. eigenvalues --   -0.49512  -0.43802  -0.43184  -0.37156  -0.36035
 Alpha  occ. eigenvalues --   -0.33069  -0.30967  -0.29152  -0.27286  -0.25965
 Alpha  occ. eigenvalues --   -0.25114  -0.24034  -0.23755  -0.21652  -0.21239
 Alpha  occ. eigenvalues --   -0.19261  -0.13942  -0.13289  -0.12029  -0.09669
 Alpha  occ. eigenvalues --   -0.07616   0.05317
 Alpha virt. eigenvalues --    0.09576   0.10134   0.11338   0.11820   0.12224
 Alpha virt. eigenvalues --    0.12736   0.13727   0.14401   0.14868   0.15495
 Alpha virt. eigenvalues --    0.15937   0.16615   0.17473   0.19166   0.19451

  Beta  occ. eigenvalues --  -88.72051 -18.91211 -14.16838 -14.15686 -10.07574
  Beta  occ. eigenvalues --  -10.05182 -10.05144 -10.02850 -10.02287 -10.00906
  Beta  occ. eigenvalues --   -7.80738  -5.77034  -5.76703  -5.76232  -0.85024
  Beta  occ. eigenvalues --   -0.80687  -0.74677  -0.63738  -0.60475  -0.57917
  Beta  occ. eigenvalues --   -0.49032  -0.43401  -0.42557  -0.36817  -0.35933
  Beta  occ. eigenvalues --   -0.32854  -0.30633  -0.29076  -0.26541  -0.25552
  Beta  occ. eigenvalues --   -0.24836  -0.23854  -0.23256  -0.21292  -0.20782
  Beta  occ. eigenvalues --   -0.17593  -0.13273  -0.12773  -0.11888  -0.07528
  Beta  occ. eigenvalues --   -0.07238
  Beta virt. eigenvalues --    0.09520   0.10101   0.11292   0.11792   0.12281
  Beta virt. eigenvalues --    0.12486   0.13698   0.13869   0.14441   0.14874
  Beta virt. eigenvalues --    0.15496   0.15990   0.16632   0.17458   0.19195

 Mulliken charges and spin densities:
               1          2
     1  C   -0.455448  -0.048700
     2  C   -0.276397   0.001722
     3  C   -0.497596   0.264599
     4  O   -0.439659   0.152923
     5  C   -1.000719  -0.053983
     6  C    0.822537   0.505947
     7  S   -0.555732   0.116303
     8  C    0.233735   0.046668
     9  N    0.042285  -0.026020
    10  N   -0.305666  -0.001846
    11  H    0.127356  -0.006585
    12  H    0.072834   0.057445
    13  H    0.114939   0.020264
    14  H    0.175753   0.004965
    15  H    0.280283  -0.032436
    16  H    0.208059  -0.001837
    17  H    0.214314   0.000899
    18  H    0.239122  -0.000329
 Sum of Mulliken charges =  -1.00000   1.00000

 Dipole moment (field-independent basis, Debye):
    X=             -1.3895    Y=             -1.8613    Z=             -0.3082  Tot=              2.3431
 Quadrupole moment (field-independent basis, Debye-Ang):
   XX=            -99.0185   YY=            -81.9283   ZZ=            -73.3953
   XY=              2.5769   XZ=              0.3478   YZ=             -1.1076

 Summary of Natural Population Analysis:

                                       Natural Population
                Natural  -----------------------------------------------
    Atom  No    Charge         Core      Valence    Rydberg      Total
 -----------------------------------------------------------------------
      C    1   -0.28008      0.99965     2.27545    0.00499     3.28008
      C    2   -0.05227      0.99960     2.04181    0.01086     3.05227
      C    3    0.31020      0.99959     1.66827    0.02194     2.68980
      O    4   -0.28046      0.99988     3.27271    0.00787     4.28046
      C    5   -0.00120      0.99944     1.98731    0.01445     3.00120
      C    6   -0.05350      0.99950     2.04314    0.01087     3.05350
      S    7    0.17666      4.99947     2.80047    0.02340     7.82334
      C    8   -0.06871      0.99967     2.05084    0.01820     3.06871
      N    9   -0.24810      0.99967     2.73744    0.01099     3.74810
      N   10   -0.42698      0.99977     2.91680    0.01042     3.92698
      H   11    0.09100      0.00000     0.40796    0.00104     0.40900
      H   12    0.09215      0.00000     0.40532    0.00254     0.40785
      H   13    0.10604      0.00000     0.39305    0.00091     0.39396
      H   14    0.09712      0.00000     0.40081    0.00207     0.40288
      H   15    0.10638      0.00000     0.39246    0.00116     0.39362
      H   16    0.08560      0.00000     0.41305    0.00135     0.41440
      H   17    0.17100      0.00000     0.32745    0.00155     0.32900
      H   18    0.17516      0.00000     0.32273    0.00211     0.32484
 =======================================================================
   * Total *   -0.00000     13.99625    26.85705    0.14670    41.00000

 Normal termination of Gaussian 16 at Tue Dec  8 13:04:47 2020.
