 Gaussian 16, Revision A.03,

 -----------------------------------------------------------
 # opt freq B3LYP/6-31G(d) empiricaldispersion=gd3bj scf=xqc
 -----------------------------------------------------------

 -------------------------------
 CID_129746774_JID_5453_neutraal
 -------------------------------
 Symbolic Z-matrix:
 Charge =  0 Multiplicity = 1

 SCF Done:  E(RB3LYP) =  -646.626266692     A.U. after   14 cycles
 SCF Done:  E(RB3LYP) =  -646.631317166     A.U. after   12 cycles
 SCF Done:  E(RB3LYP) =  -646.632309703     A.U. after   12 cycles
 SCF Done:  E(RB3LYP) =  -646.633595903     A.U. after   12 cycles
 SCF Done:  E(RB3LYP) =  -646.634223245     A.U. after   12 cycles
 SCF Done:  E(RB3LYP) =  -646.634821526     A.U. after   12 cycles
 SCF Done:  E(RB3LYP) =  -646.635011026     A.U. after   12 cycles
 SCF Done:  E(RB3LYP) =  -646.635202158     A.U. after   12 cycles
 SCF Done:  E(RB3LYP) =  -646.635308376     A.U. after   12 cycles
 SCF Done:  E(RB3LYP) =  -646.635381476     A.U. after   10 cycles
 SCF Done:  E(RB3LYP) =  -646.635468567     A.U. after   10 cycles
 SCF Done:  E(RB3LYP) =  -646.635470277     A.U. after    8 cycles
 SCF Done:  E(RB3LYP) =  -646.635470996     A.U. after    7 cycles
 SCF Done:  E(RB3LYP) =  -646.635471361     A.U. after    8 cycles
 SCF Done:  E(RB3LYP) =  -646.635471700     A.U. after    7 cycles
 SCF Done:  E(RB3LYP) =  -646.635471824     A.U. after    7 cycles
 Optimization completed.
    -- Stationary point found.
 Normal termination of Gaussian 16 at Thu Dec 10 16:14:47 2020.

 --------------------------------------------------------------------
 #N Geom=AllCheck Guess=TCheck SCRF=Check GenChk RB3LYP/6-31G(d) Freq
 --------------------------------------------------------------------

 Structure from the checkpoint file:  "JID_5453.chk"
 -------------------------------
 CID_129746774_JID_5453_neutraal
 -------------------------------
 Charge =  0 Multiplicity = 1

 SCF Done:  E(RB3LYP) =  -646.635471824     A.U. after    1 cycles

  Exact polarizability: 195.257   7.938 138.221   3.119  -5.275  75.100
 Approx polarizability: 258.004  18.142 226.435   3.477 -15.687 119.835

                      1                      2                      3
                      A                      A                      A
 Frequencies --     36.2466                67.3154               104.6490
 Red. masses --      4.7325                 3.5774                 4.5853
 Frc consts  --      0.0037                 0.0096                 0.0296
 IR Inten    --      2.8340                 1.4332                 0.1101

                      4                      5                      6
                      A                      A                      A
 Frequencies --    121.5510               166.3766               181.7731
 Red. masses --      2.6059                 1.2119                 2.9245
 Frc consts  --      0.0227                 0.0198                 0.0569
 IR Inten    --      0.1335                40.6768                 3.0172

                      7                      8                      9
                      A                      A                      A
 Frequencies --    228.3091               276.6632               282.1538
 Red. masses --      3.7375                 4.1940                 2.5370
 Frc consts  --      0.1148                 0.1891                 0.1190
 IR Inten    --      5.6397                 3.6333                 4.2147

                     10                     11                     12
                      A                      A                      A
 Frequencies --    315.5257               333.6686               370.3711
 Red. masses --      1.8889                 2.3214                 4.4565
 Frc consts  --      0.1108                 0.1523                 0.3602
 IR Inten    --     10.9714                44.4948                 0.3714

                     13                     14                     15
                      A                      A                      A
 Frequencies --    388.2214               437.7852               460.3299
 Red. masses --      2.9435                 3.1774                 2.6874
 Frc consts  --      0.2614                 0.3588                 0.3355
 IR Inten    --     10.4742                10.6874                19.2473

                     16                     17                     18
                      A                      A                      A
 Frequencies --    493.6250               543.5861               619.6515
 Red. masses --      2.4457                 3.6240                 4.4415
 Frc consts  --      0.3511                 0.6309                 1.0048
 IR Inten    --      0.7510                 4.3414                 0.0869

                     19                     20                     21
                      A                      A                      A
 Frequencies --    646.2454               650.7418               682.7596
 Red. masses --      2.9438                 2.6714                 3.0180
 Frc consts  --      0.7244                 0.6665                 0.8289
 IR Inten    --     74.5173                27.7736                 7.2634

                     22                     23                     24
                      A                      A                      A
 Frequencies --    692.5511               699.9033               719.8107
 Red. masses --      1.5238                 2.3649                 2.5395
 Frc consts  --      0.4306                 0.6826                 0.7752
 IR Inten    --     23.7245                 3.4471                 8.9960

                     25                     26                     27
                      A                      A                      A
 Frequencies --    726.0726               743.4417               782.3133
 Red. masses --      2.5388                 3.3869                 1.6173
 Frc consts  --      0.7886                 1.1029                 0.5832
 IR Inten    --     72.6793                 9.1482               245.6860

                     28                     29                     30
                      A                      A                      A
 Frequencies --    817.3907               845.1796               867.6897
 Red. masses --      1.2260                 1.4908                 2.3802
 Frc consts  --      0.4826                 0.6274                 1.0558
 IR Inten    --      4.1627                 1.2849                 1.1162

                     31                     32                     33
                      A                      A                      A
 Frequencies --    931.4377               937.6966               946.8544
 Red. masses --      1.4800                 2.8362                 6.3511
 Frc consts  --      0.7565                 1.4693                 3.3548
 IR Inten    --      0.1725                10.3996                20.2239

                     34                     35                     36
                      A                      A                      A
 Frequencies --    974.5217              1025.5639              1063.2920
 Red. masses --      2.0368                 2.4870                 4.7153
 Frc consts  --      1.1397                 1.5412                 3.1410
 IR Inten    --      0.4728                 7.2507                 7.4631

                     37                     38                     39
                      A                      A                      A
 Frequencies --   1078.6812              1094.2577              1113.9907
 Red. masses --      1.9389                 1.4112                 1.8126
 Frc consts  --      1.3292                 0.9956                 1.3253
 IR Inten    --      1.2955                13.0626                 1.1049

                     40                     41                     42
                      A                      A                      A
 Frequencies --   1120.7545              1148.8000              1168.5091
 Red. masses --      1.5925                 2.2902                 1.6678
 Frc consts  --      1.1786                 1.7808                 1.3417
 IR Inten    --      3.3432                 5.7769                 6.1898

                     43                     44                     45
                      A                      A                      A
 Frequencies --   1173.1002              1178.8830              1212.6516
 Red. masses --      1.5281                 1.6747                 1.8940
 Frc consts  --      1.2390                 1.3712                 1.6410
 IR Inten    --      7.4482                 9.5329                18.9641

                     46                     47                     48
                      A                      A                      A
 Frequencies --   1239.2884              1278.1914              1294.7672
 Red. masses --      1.8225                 1.2704                 1.2841
 Frc consts  --      1.6492                 1.2229                 1.2683
 IR Inten    --      4.1892                 9.1102                 0.5830

                     49                     50                     51
                      A                      A                      A
 Frequencies --   1310.0148              1336.7246              1363.5139
 Red. masses --      2.7560                 2.1868                 1.8256
 Frc consts  --      2.7866                 2.3022                 1.9998
 IR Inten    --     22.5511                16.9072                12.2661

                     52                     53                     54
                      A                      A                      A
 Frequencies --   1374.1729              1386.5802              1394.0707
 Red. masses --      2.1913                 1.4628                 1.4066
 Frc consts  --      2.4380                 1.6570                 1.6106
 IR Inten    --     11.4785                 0.2376                 2.0965

                     55                     56                     57
                      A                      A                      A
 Frequencies --   1411.8011              1458.0663              1484.2022
 Red. masses --      1.8775                 3.2147                 3.9862
 Frc consts  --      2.2048                 4.0267                 5.1736
 IR Inten    --      3.7499                30.3785                 0.6422

                     58                     59                     60
                      A                      A                      A
 Frequencies --   1504.7600              1515.9767              1518.9752
 Red. masses --      1.1858                 1.0986                 1.1457
 Frc consts  --      1.5820                 1.4875                 1.5574
 IR Inten    --      6.9028                 2.2295                 3.5590

                     61                     62                     63
                      A                      A                      A
 Frequencies --   1530.5360              1532.6814              1550.3755
 Red. masses --      1.1286                 3.7415                 5.3943
 Frc consts  --      1.5577                 5.1784                 7.6394
 IR Inten    --      0.9915                 5.9126               179.2340

                     64                     65                     66
                      A                      A                      A
 Frequencies --   1588.9921              1635.3511              1643.6450
 Red. masses --      8.6030                 3.8294                 4.1702
 Frc consts  --     12.7981                 6.0340                 6.6378
 IR Inten    --    177.3890               156.3805                77.6997

                     67                     68                     69
                      A                      A                      A
 Frequencies --   1694.8815              3005.7845              3031.1637
 Red. masses --      1.3179                 1.0697                 1.0694
 Frc consts  --      2.2305                 5.6939                 5.7893
 IR Inten    --    110.8675                51.1933                23.5779

                     70                     71                     72
                      A                      A                      A
 Frequencies --   3034.6710              3037.8423              3054.1517
 Red. masses --      1.0662                 1.0634                 1.0890
 Frc consts  --      5.7851                 5.7821                 5.9851
 IR Inten    --     12.3686                25.6620                62.1989

                     73                     74                     75
                      A                      A                      A
 Frequencies --   3078.3828              3080.3346              3085.9201
 Red. masses --      1.0925                 1.0983                 1.1042
 Frc consts  --      6.0999                 6.1399                 6.1952
 IR Inten    --     26.8619                78.4818                60.3713

                     76                     77                     78
                      A                      A                      A
 Frequencies --   3247.6846              3284.2571              3289.0804
 Red. masses --      1.0921                 1.0990                 1.0984
 Frc consts  --      6.7870                 6.9846                 7.0011
 IR Inten    --      8.7452                 0.6672                 2.4541

                     79                     80                     81
                      A                      A                      A
 Frequencies --   3518.3451              3621.9215              3673.7142
 Red. masses --      1.0513                 1.0932                 1.0807
 Frc consts  --      7.6676                 8.4495                 8.5938
 IR Inten    --      8.4346                14.9245                72.8573

 - Thermochemistry -
 -------------------
 Temperature   298.150 Kelvin.  Pressure   1.00000 Atm.
 Atom     1 has atomic number  6 and mass  12.00000

 Molecular mass:   202.12185 amu.
 Principal axes and moments of inertia in atomic units:
                           1         2         3
     Eigenvalues --  1167.185545269.103016262.68951
           X            0.99995  -0.00998   0.00318
           Y            0.00998   0.99995   0.00061
           Z           -0.00319  -0.00058   0.99999
 This molecule is an asymmetric top.
 Rotational symmetry number  1.
 Warning -- assumption of classical behavior for rotation
           may cause significant error
 Rotational temperatures (Kelvin)      0.07421     0.01644     0.01383
 Rotational constants (GHZ):           1.54623     0.34251     0.28817
 Zero-point vibrational energy     643361.9 (Joules/Mol)
                                  153.76720 (Kcal/Mol)
 Warning -- explicit consideration of  18 degrees of freedom as
           vibrations may cause significant error
 Vibrational temperatures:     52.15    96.85   150.57   174.88   239.38
          (Kelvin)            261.53   328.49   398.06   405.96   453.97
                              480.07   532.88   558.56   629.88   662.31
                              710.22   782.10   891.54   929.80   936.27
                              982.34   996.43  1007.00  1035.65  1044.66
                             1069.65  1125.57  1176.04  1216.02  1248.41
                             1340.13  1349.14  1362.31  1402.12  1475.56
                             1529.84  1551.98  1574.39  1602.78  1612.52
                             1652.87  1681.22  1687.83  1696.15  1744.74
                             1783.06  1839.03  1862.88  1884.82  1923.25
                             1961.79  1977.13  1994.98  2005.76  2031.27
                             2097.83  2135.44  2165.01  2181.15  2185.47
                             2202.10  2205.19  2230.64  2286.21  2352.91
                             2364.84  2438.56  4324.65  4361.17  4366.21
                             4370.78  4394.24  4429.11  4431.91  4439.95
                             4672.69  4725.31  4732.25  5062.11  5211.14
                             5285.66

 Zero-point correction=                           0.245044 (Hartree/Particle)
 Thermal correction to Energy=                    0.257906
 Thermal correction to Enthalpy=                  0.258850
 Thermal correction to Gibbs Free Energy=         0.205475
 Sum of electronic and zero-point Energies=           -646.390428
 Sum of electronic and thermal Energies=              -646.377566
 Sum of electronic and thermal Enthalpies=            -646.376622
 Sum of electronic and thermal Free Energies=         -646.429997

                     E (Thermal)             CV                S
                      KCal/Mol        Cal/Mol-Kelvin    Cal/Mol-Kelvin
 Total                  161.838             51.040            112.337
 Electronic               0.000              0.000              0.000
 Translational            0.889              2.981             41.816
 Rotational               0.889              2.981             32.021
 Vibrational            160.061             45.078             38.500
 Vibration     1          0.594              1.982              5.454
 Vibration     2          0.598              1.970              4.230
 Vibration     3          0.605              1.946              3.366
 Vibration     4          0.609              1.931              3.076
 Vibration     5          0.624              1.884              2.476
 Vibration     6          0.630              1.865              2.310
 Vibration     7          0.651              1.798              1.892
 Vibration     8          0.678              1.717              1.554
 Vibration     9          0.681              1.707              1.521
 Vibration    10          0.703              1.644              1.333
 Vibration    11          0.715              1.608              1.242
 Vibration    12          0.742              1.533              1.078
 Vibration    13          0.756              1.495              1.007
 Vibration    14          0.798              1.388              0.834
 Vibration    15          0.818              1.338              0.765
 Vibration    16          0.849              1.264              0.674
 Vibration    17          0.899              1.154              0.558
 Vibration    18          0.980              0.990              0.417

 Optimization completed.
    -- Stationary point found.
 Normal termination of Gaussian 16 at Thu Dec 10 16:23:20 2020.

 ----------------------------------------------------------------------
 # B3LYP/6-311++G(d,p) empiricaldispersion=gd3bj scf=xqc pop=npa geom=c
 heck
 ----------------------------------------------------------------------

 ---------------------------------------
 CID_129746774_JID_5453_Energie_neutraal
 ---------------------------------------
 Structure from the checkpoint file:  "JID_5453.chk"
 Charge =  0 Multiplicity = 1

 SCF Done:  E(RB3LYP) =  -646.813276027     A.U. after   15 cycles
 Normal termination of Gaussian 16 at Thu Dec 10 16:29:01 2020.

 ----------------------------------------------------------------------
 # B3LYP/6-311++G(d,p) empiricaldispersion=gd3bj scf=xqc pop=npa geom=c
 heck
 ----------------------------------------------------------------------

 -------------------------------------
 CID_129746774_JID_5453_Energie_kation
 -------------------------------------
 Structure from the checkpoint file:  "JID_5453.chk"
 Charge =  1 Multiplicity = 2

 SCF Done:  E(UB3LYP) =  -646.551161188     A.U. after   26 cycles
 Normal termination of Gaussian 16 at Thu Dec 10 16:44:15 2020.
 Gaussian 16:  ES64L-G16RevA.03 25-Dec-2016

 ----------------------------------------------------------------------
 # B3LYP/6-311++G(d,p) empiricaldispersion=gd3bj scf=xqc pop=npa geom=c
 heck
 ----------------------------------------------------------------------

 ------------------------------------
 CID_129746774_JID_5453_Energie_anion
 ------------------------------------
 Structure from the checkpoint file:  "JID_5453.chk"
 Charge = -1 Multiplicity = 2

                         Standard orientation:
 ---------------------------------------------------------------------
 Center     Atomic      Atomic             Coordinates (Angstroms)
 Number     Number       Type             X           Y           Z
 ---------------------------------------------------------------------
      1          6           0        3.803770   -0.960866    0.214016
      2          6           0        2.765434   -1.798090   -0.548046
      3          6           0        1.328345   -1.477746   -0.095208
      4          6           0        1.169304    0.006780    0.008298
      5          6           0        2.189761    0.933681    0.007675
      6          6           0        3.637510    0.540123   -0.082836
      7          6           0        1.597725    2.233047    0.094704
      8          6           0        0.237379    2.063821    0.145611
      9          7           0       -0.034663    0.701750    0.096083
     10          6           0       -1.325943    0.166854    0.121650
     11          7           0       -1.556882   -1.059843    0.575260
     12          7           0       -2.906503   -1.214916    0.404946
     13          6           0       -3.510936   -0.108958   -0.104800
     14          6           0       -2.507774    0.819666   -0.322735
     15          7           0       -4.896347   -0.051079   -0.269972
     16          1           0        3.678784   -1.132341    1.292121
     17          1           0        4.818900   -1.284461   -0.045524
     18          1           0        2.860955   -1.590666   -1.622929
     19          1           0        2.962189   -2.868019   -0.411383
     20          1           0        0.599148   -1.904354   -0.793326
     21          1           0        1.119503   -1.955471    0.871616
     22          1           0        4.245494    1.132234    0.613992
     23          1           0        4.031141    0.758421   -1.087682
     24          1           0        2.119474    3.180588    0.127244
     25          1           0       -0.567447    2.774751    0.253472
     26          1           0       -3.354880   -2.018274    0.816496
     27          1           0       -2.600089    1.789396   -0.786655
     28          1           0       -5.186662    0.814411   -0.710207
     29          1           0       -5.273199   -0.837469   -0.791430
 ---------------------------------------------------------------------

 SCF Done:  E(UB3LYP) =  -646.806479078     A.U. after   28 cycles

 The electronic state is 2-A.
 Alpha  occ. eigenvalues --  -14.26963 -14.26868 -14.21888 -14.20997 -10.13982
 Alpha  occ. eigenvalues --  -10.12991 -10.09811 -10.09623 -10.08642 -10.08509
 Alpha  occ. eigenvalues --  -10.08258 -10.07834 -10.06521 -10.06410 -10.05606
 Alpha  occ. eigenvalues --   -0.94270  -0.89073  -0.80667  -0.74709  -0.72024
 Alpha  occ. eigenvalues --   -0.67454  -0.66473  -0.64563  -0.62512  -0.55300
 Alpha  occ. eigenvalues --   -0.52257  -0.51022  -0.49583  -0.46774  -0.44056
 Alpha  occ. eigenvalues --   -0.42486  -0.40909  -0.38395  -0.37736  -0.35967
 Alpha  occ. eigenvalues --   -0.35031  -0.34782  -0.33930  -0.32928  -0.32408
 Alpha  occ. eigenvalues --   -0.31578  -0.30637  -0.29811  -0.28411  -0.27645
 Alpha  occ. eigenvalues --   -0.24741  -0.24165  -0.23317  -0.21664  -0.19423
 Alpha  occ. eigenvalues --   -0.18093  -0.12650  -0.11376  -0.10742   0.04352
 Alpha virt. eigenvalues --    0.05758   0.07215   0.08021   0.08196   0.08257
 Alpha virt. eigenvalues --    0.09457   0.09515   0.09968   0.10594   0.10790
 Alpha virt. eigenvalues --    0.11457   0.12302   0.12636   0.13065   0.14359

  Beta  occ. eigenvalues --  -14.26962 -14.26824 -14.21880 -14.20875 -10.13977
  Beta  occ. eigenvalues --  -10.12990 -10.09811 -10.09620 -10.08640 -10.08505
  Beta  occ. eigenvalues --  -10.08253 -10.07832 -10.06520 -10.06409 -10.05584
  Beta  occ. eigenvalues --   -0.94240  -0.89066  -0.80522  -0.74693  -0.71986
  Beta  occ. eigenvalues --   -0.67424  -0.66416  -0.64537  -0.62503  -0.55284
  Beta  occ. eigenvalues --   -0.52241  -0.50970  -0.49546  -0.46754  -0.43923
  Beta  occ. eigenvalues --   -0.42469  -0.40864  -0.38289  -0.37717  -0.35951
  Beta  occ. eigenvalues --   -0.35013  -0.34729  -0.33916  -0.32912  -0.32360
  Beta  occ. eigenvalues --   -0.31552  -0.30619  -0.29804  -0.28404  -0.27635
  Beta  occ. eigenvalues --   -0.24733  -0.24157  -0.23309  -0.21589  -0.19403
  Beta  occ. eigenvalues --   -0.18069  -0.12628  -0.11369  -0.10692
  Beta virt. eigenvalues --    0.05748   0.07199   0.07703   0.08072   0.08651
  Beta virt. eigenvalues --    0.09023   0.09532   0.10009   0.10147   0.10726
  Beta virt. eigenvalues --    0.11137   0.11696   0.12854   0.12967   0.12992

 Mulliken charges and spin densities:
               1          2
     1  C   -0.203346  -0.042692
     2  C   -0.536805   0.060278
     3  C   -0.212855  -0.349869
     4  C    0.577428  -0.259040
     5  C   -0.196279  -0.005810
     6  C   -0.556807  -0.100718
     7  C   -0.390235   0.250198
     8  C    0.390344  -0.421230
     9  N    0.370833  -0.007383
    10  C    0.998241  -1.479069
    11  N   -0.405605   0.196443
    12  N    0.221295  -0.319871
    13  C    0.046797  -0.611590
    14  C    0.372331   0.337126
    15  N   -0.328670   0.014821
    16  H    0.103173   0.022285
    17  H    0.057064   0.089198
    18  H    0.093782   0.041722
    19  H    0.070880   0.083476
    20  H    0.116026   0.092199
    21  H    0.176800   0.032216
    22  H    0.112673   0.020466
    23  H    0.115034   0.025900
    24  H    0.079230   0.070522
    25  H    0.099005   0.049754
    26  H   -0.228909   0.545186
    27  H   -0.528601   0.710910
    28  H   -0.666316   0.943031
    29  H   -0.746507   1.011542
 Sum of Mulliken charges =  -1.00000   1.00000

 Dipole moment (field-independent basis, Debye):
    X=             14.7271    Y=              1.1797    Z=              2.3033  Tot=             14.9527
 Quadrupole moment (field-independent basis, Debye-Ang):
   XX=           -207.8654   YY=           -120.6064   ZZ=           -115.0556
   XY=             -5.0935   XZ=            -14.5450   YZ=              1.9354

 Summary of Natural Population Analysis:

                                       Natural Population
                Natural  -----------------------------------------------
    Atom  No    Charge         Core      Valence    Rydberg      Total
 -----------------------------------------------------------------------
      C    1   -0.18659      0.99964     2.17950    0.00745     3.18659
      C    2   -0.18545      0.99964     2.17849    0.00732     3.18545
      C    3   -0.20454      0.99960     2.19712    0.00782     3.20454
      C    4    0.08532      0.99945     1.90457    0.01066     2.91468
      C    5   -0.06132      0.99946     2.05340    0.00846     3.06132
      C    6   -0.19147      0.99960     2.18411    0.00776     3.19147
      C    7   -0.14329      0.99953     2.13404    0.00972     3.14329
      C    8   -0.01327      0.99957     2.00336    0.01034     3.01327
      N    9   -0.19996      0.99959     2.69200    0.00837     3.69996
      C   10    0.17226      0.99956     1.81204    0.01614     2.82774
      N   11   -0.18002      0.99970     2.66772    0.01261     3.68002
      N   12   -0.18434      0.99965     2.67074    0.01394     3.68434
      C   13    0.18824      0.99954     1.79830    0.01392     2.81176
      C   14   -0.19603      0.99947     2.18698    0.00957     3.19603
      N   15   -0.40312      0.99972     2.89308    0.01032     3.90312
      H   16    0.09340      0.00000     0.40515    0.00145     0.40660
      H   17    0.09427      0.00000     0.40445    0.00128     0.40573
      H   18    0.09297      0.00000     0.40560    0.00143     0.40703
      H   19    0.09664      0.00000     0.40217    0.00119     0.40336
      H   20    0.11305      0.00000     0.38549    0.00146     0.38695
      H   21    0.10633      0.00000     0.39203    0.00164     0.39367
      H   22    0.09779      0.00000     0.40069    0.00152     0.40221
      H   23    0.09491      0.00000     0.40339    0.00170     0.40509
      H   24    0.10121      0.00000     0.39804    0.00076     0.39879
      H   25    0.10275      0.00000     0.39626    0.00100     0.39725
      H   26    0.20260      0.00000     0.29326    0.00414     0.29740
      H   27    0.11235      0.00000     0.38640    0.00125     0.38765
      H   28    0.19614      0.00000     0.28926    0.01460     0.30386
      H   29    0.19916      0.00000     0.26679    0.03405     0.30084
 =======================================================================
   * Total *   -0.00000     14.99372    38.78443    0.22185    54.00000

 Normal termination of Gaussian 16 at Thu Dec 10 16:58:19 2020.
