 Gaussian 16, Revision A.03,

 -----------------------------------------------------------
 # opt freq B3LYP/6-31G(d) empiricaldispersion=gd3bj scf=xqc
 -----------------------------------------------------------

 ------------------------------
 CID_70382633_JID_2905_neutraal
 ------------------------------
 Symbolic Z-matrix:
 Charge =  0 Multiplicity = 1

 SCF Done:  E(RB3LYP) =  -554.773631784     A.U. after   15 cycles
 SCF Done:  E(RB3LYP) =  -554.776299689     A.U. after   12 cycles
 SCF Done:  E(RB3LYP) =  -554.775828005     A.U. after   12 cycles
 SCF Done:  E(RB3LYP) =  -554.777175719     A.U. after   12 cycles
 SCF Done:  E(RB3LYP) =  -554.777303421     A.U. after   11 cycles
 SCF Done:  E(RB3LYP) =  -554.777370425     A.U. after   11 cycles
 SCF Done:  E(RB3LYP) =  -554.777395250     A.U. after   10 cycles
 SCF Done:  E(RB3LYP) =  -554.777406671     A.U. after   10 cycles
 SCF Done:  E(RB3LYP) =  -554.777409260     A.U. after    9 cycles
 SCF Done:  E(RB3LYP) =  -554.777411521     A.U. after   10 cycles
 SCF Done:  E(RB3LYP) =  -554.777477835     A.U. after   11 cycles
 SCF Done:  E(RB3LYP) =  -554.777478933     A.U. after   11 cycles
 SCF Done:  E(RB3LYP) =  -554.777480112     A.U. after   11 cycles
 SCF Done:  E(RB3LYP) =  -554.777480730     A.U. after    9 cycles
 SCF Done:  E(RB3LYP) =  -554.777480790     A.U. after    7 cycles
 Optimization completed.
    -- Stationary point found.
 Normal termination of Gaussian 16 at Wed Dec  9 18:06:33 2020.

 --------------------------------------------------------------------
 #N Geom=AllCheck Guess=TCheck SCRF=Check GenChk RB3LYP/6-31G(d) Freq
 --------------------------------------------------------------------

 Structure from the checkpoint file:  "JID_2905.chk"
 ------------------------------
 CID_70382633_JID_2905_neutraal
 ------------------------------
 Charge =  0 Multiplicity = 1

 SCF Done:  E(RB3LYP) =  -554.777480790     A.U. after    1 cycles

  Exact polarizability:  92.250  14.283  96.332 -11.892   4.259  99.538
 Approx polarizability: 121.967  27.083 143.274 -28.225   5.464 172.815

                      1                      2                      3
                      A                      A                      A
 Frequencies --     13.5860                23.9748                49.4486
 Red. masses --      4.0921                 4.2471                 3.6616
 Frc consts  --      0.0004                 0.0014                 0.0053
 IR Inten    --      0.2211                 0.6975                 0.8450

                      4                      5                      6
                      A                      A                      A
 Frequencies --     60.8181                84.4828               112.9252
 Red. masses --      3.3100                 4.5504                 3.4579
 Frc consts  --      0.0072                 0.0191                 0.0260
 IR Inten    --      0.5780                 0.9251                 0.3124

                      7                      8                      9
                      A                      A                      A
 Frequencies --    233.5866               305.2629               324.6532
 Red. masses --      4.6568                 4.3817                 3.6250
 Frc consts  --      0.1497                 0.2406                 0.2251
 IR Inten    --      1.8742                 6.6643                 6.9441

                     10                     11                     12
                      A                      A                      A
 Frequencies --    364.0718               417.7990               430.3502
 Red. masses --      2.2394                 2.2560                 2.2584
 Frc consts  --      0.1749                 0.2320                 0.2464
 IR Inten    --      4.3569                 2.1416                 0.7612

                     13                     14                     15
                      A                      A                      A
 Frequencies --    583.0500               623.0625               625.0634
 Red. masses --      3.5218                 3.7673                 3.9818
 Frc consts  --      0.7054                 0.8617                 0.9166
 IR Inten    --     11.4808                 3.5771                 3.7057

                     16                     17                     18
                      A                      A                      A
 Frequencies --    668.2120               670.9681               707.2478
 Red. masses --      1.4772                 2.3345                 2.7364
 Frc consts  --      0.3886                 0.6192                 0.8064
 IR Inten    --      5.9928                20.6411                 8.7837

                     19                     20                     21
                      A                      A                      A
 Frequencies --    728.8999               798.7123               815.7451
 Red. masses --      1.1639                 1.8535                 2.2557
 Frc consts  --      0.3643                 0.6967                 0.8844
 IR Inten    --     88.8485                 0.8115                 1.7798

                     22                     23                     24
                      A                      A                      A
 Frequencies --    855.6300               864.3327               894.4247
 Red. masses --      3.7419                 1.2520                 5.7035
 Frc consts  --      1.6140                 0.5511                 2.6883
 IR Inten    --      7.0881                 0.1827                 0.0520

                     25                     26                     27
                      A                      A                      A
 Frequencies --    937.5786               963.4016               976.4152
 Red. masses --      1.6009                 1.3473                 2.4670
 Frc consts  --      0.8292                 0.7367                 1.3857
 IR Inten    --      6.0638                36.5310                17.0216

                     28                     29                     30
                      A                      A                      A
 Frequencies --    995.7312              1005.5046              1024.7778
 Red. masses --      2.0211                 2.0328                 1.9707
 Frc consts  --      1.1807                 1.2109                 1.2193
 IR Inten    --     11.8852                 2.2988               114.9081

                     31                     32                     33
                      A                      A                      A
 Frequencies --   1030.0474              1091.2427              1102.5212
 Red. masses --      1.6418                 2.3121                 1.2765
 Frc consts  --      1.0263                 1.6222                 0.9142
 IR Inten    --     13.0894                 1.5854                14.1813

                     34                     35                     36
                      A                      A                      A
 Frequencies --   1121.1236              1185.6515              1196.8570
 Red. masses --      1.3212                 1.5487                 1.9436
 Frc consts  --      0.9784                 1.2827                 1.6403
 IR Inten    --     25.7979                74.7677                 7.7574

                     37                     38                     39
                      A                      A                      A
 Frequencies --   1285.3143              1309.5218              1317.1382
 Red. masses --      2.0919                 1.2339                 1.3862
 Frc consts  --      2.0362                 1.2467                 1.4169
 IR Inten    --    173.2975                20.9906                42.0172

                     40                     41                     42
                      A                      A                      A
 Frequencies --   1328.9078              1335.4507              1378.3358
 Red. masses --      3.7928                 1.2927                 1.4871
 Frc consts  --      3.9464                 1.3584                 1.6646
 IR Inten    --     43.4665                13.2269                18.2058

                     43                     44                     45
                      A                      A                      A
 Frequencies --   1406.9122              1440.5582              1443.1732
 Red. masses --      1.3892                 3.1436                 4.6647
 Frc consts  --      1.6202                 3.8436                 5.7241
 IR Inten    --     15.3332                 5.0224                 2.8131

                     46                     47                     48
                      A                      A                      A
 Frequencies --   1476.2477              1495.5942              1517.8105
 Red. masses --      1.1810                 1.1501                 1.1230
 Frc consts  --      1.5165                 1.5157                 1.5243
 IR Inten    --      5.7631                 6.9316                16.2515

                     49                     50                     51
                      A                      A                      A
 Frequencies --   1545.0686              1582.7374              1737.6208
 Red. masses --      2.7329                 4.0935                 4.4745
 Frc consts  --      3.8439                 6.0417                 7.9598
 IR Inten    --     45.1105                 0.9214                 0.9547

                     52                     53                     54
                      A                      A                      A
 Frequencies --   1834.3433              3091.6085              3094.7180
 Red. masses --     11.1881                 1.0602                 1.0580
 Frc consts  --     22.1802                 5.9704                 5.9701
 IR Inten    --    187.9588                18.2302                32.3315

                     55                     56                     57
                      A                      A                      A
 Frequencies --   3150.2709              3152.8552              3164.9614
 Red. masses --      1.1060                 1.1061                 1.0601
 Frc consts  --      6.4669                 6.4783                 6.2564
 IR Inten    --      2.4928                 6.7565                 9.1377

                     58                     59                     60
                      A                      A                      A
 Frequencies --   3179.8674              3248.3490              3250.8238
 Red. masses --      1.0941                 1.1167                 1.0880
 Frc consts  --      6.5179                 6.9422                 6.7742
 IR Inten    --      7.2978                11.6284                 4.2343

                     61                     62                     63
                      A                      A                      A
 Frequencies --   3262.1796              3277.4605              3283.8330
 Red. masses --      1.0927                 1.0996                 1.1060
 Frc consts  --      6.8510                 6.9590                 7.0270
 IR Inten    --      5.7864                 3.7175                 1.5561

 - Thermochemistry -
 -------------------
 Temperature   298.150 Kelvin.  Pressure   1.00000 Atm.
 Atom     1 has atomic number  6 and mass  12.00000

 Molecular mass:   165.07898 amu.
 Principal axes and moments of inertia in atomic units:
                           1         2         3
     Eigenvalues --  1253.026322752.422923156.39799
           X            0.99989  -0.01465  -0.00161
           Y            0.01469   0.99943   0.03041
           Z            0.00117  -0.03043   0.99954
 This molecule is an asymmetric top.
 Rotational symmetry number  1.
 Warning -- assumption of classical behavior for rotation
           may cause significant error
 Rotational temperatures (Kelvin)      0.06912     0.03147     0.02744
 Rotational constants (GHZ):           1.44031     0.65569     0.57177
 Zero-point vibrational energy     493332.9 (Joules/Mol)
                                  117.90940 (Kcal/Mol)
 Warning -- explicit consideration of  13 degrees of freedom as
           vibrations may cause significant error
 Vibrational temperatures:     19.55    34.49    71.15    87.50   121.55
          (Kelvin)            162.47   336.08   439.21   467.10   523.82
                              601.12   619.18   838.88   896.45   899.33
                              961.41   965.37  1017.57  1048.72  1149.17
                             1173.68  1231.06  1243.58  1286.88  1348.97
                             1386.12  1404.84  1432.64  1446.70  1474.43
                             1482.01  1570.05  1586.28  1613.05  1705.89
                             1722.01  1849.28  1884.11  1895.07  1912.00
                             1921.42  1983.12  2024.23  2072.64  2076.40
                             2123.99  2151.83  2183.79  2223.01  2277.21
                             2500.05  2639.21  4448.14  4452.61  4532.54
                             4536.26  4553.67  4575.12  4673.65  4677.21
                             4693.55  4715.53  4724.70

 Zero-point correction=                           0.187901 (Hartree/Particle)
 Thermal correction to Energy=                    0.199637
 Thermal correction to Enthalpy=                  0.200581
 Thermal correction to Gibbs Free Energy=         0.146436
 Sum of electronic and zero-point Energies=           -554.589580
 Sum of electronic and thermal Energies=              -554.577844
 Sum of electronic and thermal Enthalpies=            -554.576899
 Sum of electronic and thermal Free Energies=         -554.631044

                     E (Thermal)             CV                S
                      KCal/Mol        Cal/Mol-Kelvin    Cal/Mol-Kelvin
 Total                  125.274             42.022            113.958
 Electronic               0.000              0.000              0.000
 Translational            0.889              2.981             41.212
 Rotational               0.889              2.981             30.766
 Vibrational            123.497             36.060             41.980
 Vibration     1          0.593              1.986              7.402
 Vibration     2          0.593              1.985              6.274
 Vibration     3          0.595              1.978              4.839
 Vibration     4          0.597              1.973              4.430
 Vibration     5          0.601              1.960              3.784
 Vibration     6          0.607              1.939              3.218
 Vibration     7          0.654              1.790              1.851
 Vibration     8          0.696              1.664              1.388
 Vibration     9          0.709              1.626              1.287
 Vibration    10          0.738              1.546              1.105
 Vibration    11          0.781              1.432              0.899
 Vibration    12          0.792              1.404              0.858
 Vibration    13          0.940              1.068              0.480

                           ! Non-Optimized Parameters !
 Normal termination of Gaussian 16 at Wed Dec  9 18:11:44 2020.

 ----------------------------------------------------------------------
 # B3LYP/6-311++G(d,p) empiricaldispersion=gd3bj scf=xqc pop=npa geom=c
 heck
 ----------------------------------------------------------------------

 --------------------------------------
 CID_70382633_JID_2905_Energie_neutraal
 --------------------------------------
 Structure from the checkpoint file:  "JID_2905.chk"
 Charge =  0 Multiplicity = 1

 SCF Done:  E(RB3LYP) =  -554.938925942     A.U. after   14 cycles
 Normal termination of Gaussian 16 at Wed Dec  9 18:14:07 2020.

 ----------------------------------------------------------------------
 # B3LYP/6-311++G(d,p) empiricaldispersion=gd3bj scf=xqc pop=npa geom=c
 heck
 ----------------------------------------------------------------------

 ------------------------------------
 CID_70382633_JID_2905_Energie_kation
 ------------------------------------
 Structure from the checkpoint file:  "JID_2905.chk"
 Charge =  1 Multiplicity = 2

 SCF Done:  E(UB3LYP) =  -554.640908449     A.U. after   27 cycles
 Normal termination of Gaussian 16 at Wed Dec  9 18:20:10 2020.
 Gaussian 16:  ES64L-G16RevA.03 25-Dec-2016

 ----------------------------------------------------------------------
 # B3LYP/6-311++G(d,p) empiricaldispersion=gd3bj scf=xqc pop=npa geom=c
 heck
 ----------------------------------------------------------------------

 -----------------------------------
 CID_70382633_JID_2905_Energie_anion
 -----------------------------------
 Structure from the checkpoint file:  "JID_2905.chk"
 Charge = -1 Multiplicity = 2

                         Standard orientation:
 ---------------------------------------------------------------------
 Center     Atomic      Atomic             Coordinates (Angstroms)
 Number     Number       Type             X           Y           Z
 ---------------------------------------------------------------------
      1          6           0        2.814193   -1.766811   -0.771873
      2          6           0        2.162890   -1.421686    0.337439
      3          6           0        2.323784   -0.089736    1.004579
      4          8           0        1.058935    0.627658    0.985056
      5          6           0        0.773231    1.285316   -0.154647
      6          8           0        1.545537    1.472305   -1.066970
      7          6           0       -0.684204    1.742550   -0.148554
      8          7           0       -1.583870    0.609414   -0.097368
      9          6           0       -1.864701   -0.213742   -1.169607
     10          6           0       -2.594088   -1.284989   -0.704870
     11          6           0       -2.747540   -1.116768    0.703373
     12          6           0       -2.105720    0.051265    1.049406
     13          1           0        3.505542   -1.083537   -1.258776
     14          1           0        2.676122   -2.739236   -1.236117
     15          1           0        1.449444   -2.101689    0.799903
     16          1           0        2.552682   -0.188664    2.068695
     17          1           0        3.088830    0.516111    0.514937
     18          1           0       -0.871762    2.380715    0.719866
     19          1           0       -0.859749    2.319601   -1.058515
     20          1           0       -1.521066    0.043978   -2.161090
     21          1           0       -2.988347   -2.091074   -1.308472
     22          1           0       -3.282487   -1.769012    1.380084
     23          1           0       -1.964969    0.534814    2.004896
 ---------------------------------------------------------------------

 SCF Done:  E(UB3LYP) =  -554.921923605     A.U. after   33 cycles
 SCF Done:  E(UB3LYP) =  -554.921923605     a.u. after    1 cycles

 The electronic state is 2-A.
 Alpha  occ. eigenvalues --  -19.06453 -19.01289 -14.26122 -10.19890 -10.12752
 Alpha  occ. eigenvalues --  -10.12022 -10.08741 -10.08446 -10.07844 -10.07302
 Alpha  occ. eigenvalues --  -10.05652 -10.05343  -1.00579  -0.92188  -0.88522
 Alpha  occ. eigenvalues --   -0.71599  -0.69441  -0.62586  -0.62146  -0.58857
 Alpha  occ. eigenvalues --   -0.49248  -0.47526  -0.46249  -0.45304  -0.43747
 Alpha  occ. eigenvalues --   -0.40559  -0.38588  -0.37802  -0.35098  -0.34229
 Alpha  occ. eigenvalues --   -0.33777  -0.31940  -0.31146  -0.29945  -0.28409
 Alpha  occ. eigenvalues --   -0.27935  -0.27780  -0.26486  -0.25159  -0.20814
 Alpha  occ. eigenvalues --   -0.18987  -0.17635  -0.13759  -0.11517   0.05013
 Alpha virt. eigenvalues --    0.07347   0.07475   0.08125   0.08448   0.09023
 Alpha virt. eigenvalues --    0.09424   0.09803   0.10118   0.10761   0.11992
 Alpha virt. eigenvalues --    0.12236   0.12616   0.13129   0.13692   0.15423

  Beta  occ. eigenvalues --  -19.06429 -19.01263 -14.26123 -10.19845 -10.12729
  Beta  occ. eigenvalues --  -10.11984 -10.08727 -10.08420 -10.07803 -10.07267
  Beta  occ. eigenvalues --  -10.05649 -10.05335  -1.00520  -0.92137  -0.88509
  Beta  occ. eigenvalues --   -0.71547  -0.69362  -0.62521  -0.62110  -0.58788
  Beta  occ. eigenvalues --   -0.49150  -0.47505  -0.46162  -0.45238  -0.43690
  Beta  occ. eigenvalues --   -0.40456  -0.38494  -0.37734  -0.35040  -0.34170
  Beta  occ. eigenvalues --   -0.33738  -0.31899  -0.31087  -0.29866  -0.28356
  Beta  occ. eigenvalues --   -0.27899  -0.27757  -0.26411  -0.25121  -0.20715
  Beta  occ. eigenvalues --   -0.18918  -0.17445  -0.13737  -0.11479
  Beta virt. eigenvalues --    0.07230   0.07962   0.08292   0.08593   0.08871
  Beta virt. eigenvalues --    0.09412   0.09882   0.10011   0.11000   0.11284
  Beta virt. eigenvalues --    0.12162   0.12510   0.12875   0.13819   0.13853

 Mulliken charges and spin densities:
               1          2
     1  C   -0.138989  -0.365580
     2  C   -0.626682   1.035152
     3  C    1.373782  -1.858423
     4  O   -0.036658   0.068733
     5  C   -0.808967   1.007328
     6  O   -0.268936   0.029342
     7  C    1.827735  -2.419579
     8  N   -0.039957   0.281958
     9  C    0.275932  -0.387252
    10  C   -0.467268   0.174241
    11  C    0.838215  -0.992042
    12  C   -0.280853  -0.007239
    13  H   -0.009064   0.138688
    14  H   -0.047798   0.154554
    15  H   -0.039522   0.199365
    16  H   -0.628735   0.819144
    17  H   -0.032600   0.214239
    18  H   -0.928851   1.153853
    19  H   -0.217374   0.429694
    20  H    0.137018   0.005869
    21  H   -0.085063   0.221475
    22  H   -0.164553   0.313715
    23  H   -0.630812   0.782764
 Sum of Mulliken charges =  -1.00000   1.00000

 Dipole moment (field-independent basis, Debye):
    X=              0.1375    Y=             -3.3062    Z=             -4.2747  Tot=              5.4059
 Quadrupole moment (field-independent basis, Debye-Ang):
   XX=           -120.1896   YY=           -112.8480   ZZ=           -108.9878
   XY=              4.5558   XZ=              0.6210   YZ=             -5.0327

 Summary of Natural Population Analysis:

                                       Natural Population
                Natural  -----------------------------------------------
    Atom  No    Charge         Core      Valence    Rydberg      Total
 -----------------------------------------------------------------------
      C    1   -0.17179      0.99956     2.16567    0.00656     3.17179
      C    2   -0.09811      0.99956     2.08775    0.01081     3.09811
      C    3   -0.03375      0.99953     2.02030    0.01392     3.03375
      O    4   -0.27604      0.99986     3.26451    0.01167     4.27604
      C    5    0.41045      0.99970     1.56414    0.02572     2.58955
      O    6   -0.30200      0.99987     3.29638    0.00575     4.30200
      C    7   -0.12199      0.99956     2.10951    0.01291     3.12199
      N    8   -0.20507      0.99966     2.69256    0.01285     3.70507
      C    9   -0.01831      0.99955     2.00766    0.01109     3.01831
      C   10   -0.14778      0.99957     2.13858    0.00963     3.14778
      C   11   -0.14918      0.99957     2.14043    0.00919     3.14918
      C   12   -0.00618      0.99954     1.99321    0.01342     3.00618
      H   13    0.09251      0.00000     0.40631    0.00117     0.40749
      H   14    0.09222      0.00000     0.40668    0.00110     0.40778
      H   15    0.09724      0.00000     0.40141    0.00135     0.40276
      H   16    0.10056      0.00000     0.39644    0.00300     0.39944
      H   17    0.09709      0.00000     0.40150    0.00141     0.40291
      H   18    0.12021      0.00000     0.37140    0.00839     0.37979
      H   19    0.10834      0.00000     0.39029    0.00137     0.39166
      H   20    0.10073      0.00000     0.39831    0.00096     0.39927
      H   21    0.10141      0.00000     0.39787    0.00072     0.39859
      H   22    0.10294      0.00000     0.39627    0.00079     0.39706
      H   23    0.10649      0.00000     0.39073    0.00278     0.39351
 =======================================================================
   * Total *   -0.00000     11.99552    31.83792    0.16656    44.00000

 Normal termination of Gaussian 16 at Wed Dec  9 18:27:50 2020.
