 Gaussian 16, Revision A.03,

 -----------------------------------------------------------
 # opt freq B3LYP/6-31G(d) empiricaldispersion=gd3bj scf=xqc
 -----------------------------------------------------------

 ----------------------------
 CID_300710_JID_3246_neutraal
 ----------------------------
 Symbolic Z-matrix:
 Charge =  0 Multiplicity = 1

 SCF Done:  E(RB3LYP) =  -614.015895264     A.U. after   15 cycles
 SCF Done:  E(RB3LYP) =  -614.018589628     A.U. after   12 cycles
 SCF Done:  E(RB3LYP) =  -614.019343136     A.U. after   12 cycles
 SCF Done:  E(RB3LYP) =  -614.020561826     A.U. after   15 cycles
 SCF Done:  E(RB3LYP) =  -614.021418657     A.U. after   12 cycles
 SCF Done:  E(RB3LYP) =  -614.022517543     A.U. after   12 cycles
 SCF Done:  E(RB3LYP) =  -614.023039787     A.U. after   13 cycles
 SCF Done:  E(RB3LYP) =  -614.021115071     A.U. after   14 cycles
 SCF Done:  E(RB3LYP) =  -614.023726235     A.U. after   12 cycles
 SCF Done:  E(RB3LYP) =  -614.024232730     A.U. after   12 cycles
 SCF Done:  E(RB3LYP) =  -614.024580951     A.U. after    9 cycles
 SCF Done:  E(RB3LYP) =  -614.024583006     A.U. after    9 cycles
 SCF Done:  E(RB3LYP) =  -614.024583868     A.U. after    9 cycles
 SCF Done:  E(RB3LYP) =  -614.024583976     A.U. after    8 cycles
 SCF Done:  E(RB3LYP) =  -614.024583987     A.U. after    6 cycles
 Optimization completed.
    -- Stationary point found.
 Normal termination of Gaussian 16 at Wed Dec  9 22:35:10 2020.

 --------------------------------------------------------------------
 #N Geom=AllCheck Guess=TCheck SCRF=Check GenChk RB3LYP/6-31G(d) Freq
 --------------------------------------------------------------------

 Structure from the checkpoint file:  "JID_3246.chk"
 ----------------------------
 CID_300710_JID_3246_neutraal
 ----------------------------
 Charge =  0 Multiplicity = 1

 SCF Done:  E(RB3LYP) =  -614.024583987     A.U. after    1 cycles

  Exact polarizability: 144.121  -4.116 137.973  -5.640   3.290  60.060
 Approx polarizability: 213.410  -2.684 216.893 -12.885   7.236  88.057

                      1                      2                      3
                      A                      A                      A
 Frequencies --     26.6242                46.5172                61.6085
 Red. masses --      1.0172                 4.2112                 7.2041
 Frc consts  --      0.0004                 0.0054                 0.0161
 IR Inten    --      0.2781                 2.9157                 0.0974

                      4                      5                      6
                      A                      A                      A
 Frequencies --     91.6612               140.0944               164.4641
 Red. masses --      3.4238                 4.6334                 2.8568
 Frc consts  --      0.0169                 0.0536                 0.0455
 IR Inten    --      0.5691                 0.8817                 1.0325

                      7                      8                      9
                      A                      A                      A
 Frequencies --    203.8942               217.3833               239.8331
 Red. masses --      1.4940                 3.6094                 2.4435
 Frc consts  --      0.0366                 0.1005                 0.0828
 IR Inten    --      0.6006                 0.1611                 0.3918

                     10                     11                     12
                      A                      A                      A
 Frequencies --    250.6220               327.7555               380.9365
 Red. masses --      2.8653                 2.9372                 5.9539
 Frc consts  --      0.1060                 0.1859                 0.5090
 IR Inten    --      0.6533                 1.7908                 2.1103

                     13                     14                     15
                      A                      A                      A
 Frequencies --    396.3814               482.8699               483.4834
 Red. masses --      4.3348                 3.6169                 4.1541
 Frc consts  --      0.4013                 0.4969                 0.5721
 IR Inten    --      2.2564                 2.2577                 4.3131

                     16                     17                     18
                      A                      A                      A
 Frequencies --    492.1810               550.5114               571.2024
 Red. masses --      3.9790                 4.6948                 2.9996
 Frc consts  --      0.5679                 0.8383                 0.5766
 IR Inten    --      0.9628                 3.7975                20.5737

                     19                     20                     21
                      A                      A                      A
 Frequencies --    618.9527               631.5145               670.0741
 Red. masses --      3.3626                 1.6361                 4.0755
 Frc consts  --      0.7590                 0.3844                 1.0781
 IR Inten    --     15.8421                62.1574                86.5489

                     22                     23                     24
                      A                      A                      A
 Frequencies --    696.0262               776.6635               823.4699
 Red. masses --      2.5060                 4.2569                 1.1353
 Frc consts  --      0.7153                 1.5129                 0.4536
 IR Inten    --      3.5738                55.6852                 1.9545

                     25                     26                     27
                      A                      A                      A
 Frequencies --    878.5518               886.2452               896.9665
 Red. masses --      1.4465                 2.6195                 1.4972
 Frc consts  --      0.6578                 1.2122                 0.7097
 IR Inten    --      8.9745                 3.8938                15.0533

                     28                     29                     30
                      A                      A                      A
 Frequencies --    915.7569               936.1173               987.4801
 Red. masses --      1.3998                 4.9449                 2.9573
 Frc consts  --      0.6917                 2.5531                 1.6990
 IR Inten    --      0.1766                11.1005                13.2760

                     31                     32                     33
                      A                      A                      A
 Frequencies --   1018.3436              1037.7687              1075.6801
 Red. masses --      5.9646                 1.5754                 1.5120
 Frc consts  --      3.6443                 0.9996                 1.0308
 IR Inten    --      1.1074                 2.2385                 8.8849

                     34                     35                     36
                      A                      A                      A
 Frequencies --   1092.7419              1131.4289              1149.4648
 Red. masses --      2.9058                 1.9594                 1.9258
 Frc consts  --      2.0443                 1.4778                 1.4992
 IR Inten    --     82.3134                65.1742                57.1492

                     37                     38                     39
                      A                      A                      A
 Frequencies --   1189.8590              1200.0981              1218.7641
 Red. masses --      1.6776                 1.6667                 1.8719
 Frc consts  --      1.3994                 1.4143                 1.6383
 IR Inten    --     65.6703               259.2865                20.6719

                     40                     41                     42
                      A                      A                      A
 Frequencies --   1310.1123              1316.7874              1338.7477
 Red. masses --      1.3510                 2.4976                 1.3100
 Frc consts  --      1.3662                 2.5515                 1.3833
 IR Inten    --      3.9535               100.2017                38.5974

                     43                     44                     45
                      A                      A                      A
 Frequencies --   1383.5215              1400.7779              1425.4633
 Red. masses --      3.9180                 2.2357                 1.5212
 Frc consts  --      4.4186                 2.5847                 1.8212
 IR Inten    --     39.5818               210.1730                29.9757

                     46                     47                     48
                      A                      A                      A
 Frequencies --   1442.3778              1445.8194              1485.8720
 Red. masses --      1.2545                 1.3818                 2.2124
 Frc consts  --      1.5378                 1.7018                 2.8778
 IR Inten    --     12.1308                15.7259                22.4195

                     49                     50                     51
                      A                      A                      A
 Frequencies --   1506.7526              1517.3220              1518.3400
 Red. masses --      3.0413                 1.0879                 1.0547
 Frc consts  --      4.0681                 1.4757                 1.4326
 IR Inten    --     63.0679                 3.5343                 5.6261

                     52                     53                     54
                      A                      A                      A
 Frequencies --   1531.1847              1533.9625              1548.2009
 Red. masses --      1.0851                 1.2886                 1.1056
 Frc consts  --      1.4989                 1.7864                 1.5613
 IR Inten    --     12.6408                19.3389                 6.4446

                     55                     56                     57
                      A                      A                      A
 Frequencies --   1652.4318              1665.3280              1816.9915
 Red. masses --      5.6266                 6.2582                 9.7035
 Frc consts  --      9.0519                10.2259                18.8749
 IR Inten    --     37.9510               114.3483               279.1352

                     58                     59                     60
                      A                      A                      A
 Frequencies --   3046.3425              3053.8572              3062.4955
 Red. masses --      1.0399                 1.0665                 1.0361
 Frc consts  --      5.6861                 5.8600                 5.7255
 IR Inten    --     28.8608                36.8639                14.6561

                     61                     62                     63
                      A                      A                      A
 Frequencies --   3104.4575              3114.8526              3131.2532
 Red. masses --      1.0964                 1.0996                 1.1029
 Frc consts  --      6.2259                 6.2857                 6.3710
 IR Inten    --     19.7153                15.8663                15.2776

                     64                     65                     66
                      A                      A                      A
 Frequencies --   3131.5404              3147.1259              3203.2731
 Red. masses --      1.1015                 1.1034                 1.0905
 Frc consts  --      6.3646                 6.4387                 6.5928
 IR Inten    --     27.4635                40.5017                 6.5250

                     67                     68                     69
                      A                      A                      A
 Frequencies --   3226.9792              3254.5074              3701.1195
 Red. masses --      1.0907                 1.0897                 1.0641
 Frc consts  --      6.6919                 6.8004                 8.5884
 IR Inten    --      1.6012                 4.3557                71.9146

 - Thermochemistry -
 -------------------
 Temperature   298.150 Kelvin.  Pressure   1.00000 Atm.
 Atom     1 has atomic number  6 and mass  12.00000

 Molecular mass:   180.07864 amu.
 Principal axes and moments of inertia in atomic units:
                           1         2         3
     Eigenvalues --  1990.596422905.744894708.60285
           X            0.99393  -0.10997   0.00447
           Y            0.10997   0.99394   0.00026
           Z           -0.00447   0.00023   0.99999
 This molecule is an asymmetric top.
 Rotational symmetry number  1.
 Warning -- assumption of classical behavior for rotation
           may cause significant error
 Rotational temperatures (Kelvin)      0.04351     0.02981     0.01839
 Rotational constants (GHZ):           0.90663     0.62109     0.38329
 Zero-point vibrational energy     538186.7 (Joules/Mol)
                                  128.62971 (Kcal/Mol)
 Warning -- explicit consideration of  19 degrees of freedom as
           vibrations may cause significant error
 Vibrational temperatures:     38.31    66.93    88.64   131.88   201.56
          (Kelvin)            236.63   293.36   312.77   345.07   360.59
                              471.57   548.08   570.30   694.74   695.62
                              708.14   792.06   821.83   890.53   908.61
                              964.09  1001.43  1117.45  1184.79  1264.04
                             1275.11  1290.53  1317.57  1346.86  1420.76
                             1465.17  1493.12  1547.66  1572.21  1627.87
                             1653.82  1711.94  1726.67  1753.53  1884.96
                             1894.56  1926.16  1990.58  2015.41  2050.92
                             2075.26  2080.21  2137.84  2167.88  2183.09
                             2184.55  2203.03  2207.03  2227.52  2377.48
                             2396.04  2614.25  4383.01  4393.82  4406.25
                             4466.62  4481.58  4505.18  4505.59  4528.01
                             4608.80  4642.90  4682.51  5325.09

 Zero-point correction=                           0.204984 (Hartree/Particle)
 Thermal correction to Energy=                    0.217869
 Thermal correction to Enthalpy=                  0.218813
 Thermal correction to Gibbs Free Energy=         0.164183
 Sum of electronic and zero-point Energies=           -613.819600
 Sum of electronic and thermal Energies=              -613.806715
 Sum of electronic and thermal Enthalpies=            -613.805771
 Sum of electronic and thermal Free Energies=         -613.860401

                     E (Thermal)             CV                S
                      KCal/Mol        Cal/Mol-Kelvin    Cal/Mol-Kelvin
 Total                  136.715             47.282            114.978
 Electronic               0.000              0.000              0.000
 Translational            0.889              2.981             41.471
 Rotational               0.889              2.981             31.677
 Vibrational            134.937             41.320             41.830
 Vibration     1          0.593              1.984              6.066
 Vibration     2          0.595              1.979              4.960
 Vibration     3          0.597              1.973              4.405
 Vibration     4          0.602              1.955              3.624
 Vibration     5          0.615              1.913              2.803
 Vibration     6          0.623              1.886              2.498
 Vibration     7          0.640              1.834              2.098
 Vibration     8          0.646              1.815              1.981
 Vibration     9          0.657              1.779              1.804
 Vibration    10          0.663              1.762              1.726
 Vibration    11          0.711              1.620              1.271
 Vibration    12          0.751              1.511              1.035
 Vibration    13          0.763              1.478              0.976
 Vibration    14          0.839              1.288              0.702
 Vibration    15          0.840              1.287              0.701
 Vibration    16          0.848              1.267              0.678
 Vibration    17          0.906              1.139              0.543
 Vibration    18          0.927              1.094              0.502
 Vibration    19          0.979              0.992              0.418

 Optimization completed.
    -- Stationary point found.
 Normal termination of Gaussian 16 at Wed Dec  9 22:41:14 2020.

 ----------------------------------------------------------------------
 # B3LYP/6-311++G(d,p) empiricaldispersion=gd3bj scf=xqc pop=npa geom=c
 heck
 ----------------------------------------------------------------------

 ------------------------------------
 CID_300710_JID_3246_Energie_neutraal
 ------------------------------------
 Structure from the checkpoint file:  "JID_3246.chk"
 Charge =  0 Multiplicity = 1

 SCF Done:  E(RB3LYP) =  -614.204208988     A.U. after   15 cycles
 Normal termination of Gaussian 16 at Wed Dec  9 22:44:06 2020.

 ----------------------------------------------------------------------
 # B3LYP/6-311++G(d,p) empiricaldispersion=gd3bj scf=xqc pop=npa geom=c
 heck
 ----------------------------------------------------------------------

 ----------------------------------
 CID_300710_JID_3246_Energie_kation
 ----------------------------------
 Structure from the checkpoint file:  "JID_3246.chk"
 Charge =  1 Multiplicity = 2

 SCF Done:  E(UB3LYP) =  -613.901702081     A.U. after   24 cycles
 Normal termination of Gaussian 16 at Wed Dec  9 22:50:33 2020.
 Gaussian 16:  ES64L-G16RevA.03 25-Dec-2016

 ----------------------------------------------------------------------
 # B3LYP/6-311++G(d,p) empiricaldispersion=gd3bj scf=xqc pop=npa geom=c
 heck
 ----------------------------------------------------------------------

 ---------------------------------
 CID_300710_JID_3246_Energie_anion
 ---------------------------------
 Structure from the checkpoint file:  "JID_3246.chk"
 Charge = -1 Multiplicity = 2

                         Standard orientation:
 ---------------------------------------------------------------------
 Center     Atomic      Atomic             Coordinates (Angstroms)
 Number     Number       Type             X           Y           Z
 ---------------------------------------------------------------------
      1          6           0        3.418231   -1.144471    0.905245
      2          6           0        3.198751   -0.509028   -0.462118
      3          8           0        2.443181    0.703481   -0.384528
      4          6           0        1.091337    0.635279   -0.224937
      5          6           0        0.440325    1.871785   -0.093371
      6          6           0       -0.942738    1.952333    0.056753
      7          6           0       -1.691233    0.768055    0.072155
      8          6           0       -1.047454   -0.463431   -0.055943
      9          6           0        0.344088   -0.541485   -0.204199
     10          6           0       -1.793748   -1.746554   -0.041919
     11          8           0       -1.289080   -2.848680   -0.138905
     12          8           0       -3.135667   -1.584846    0.093897
     13          6           0       -1.621292    3.290311    0.225517
     14          1           0        3.913124   -0.434391    1.575133
     15          1           0        4.053419   -2.032085    0.808541
     16          1           0        2.473984   -1.448891    1.365577
     17          1           0        4.152690   -0.202990   -0.899731
     18          1           0        2.721037   -1.206208   -1.161752
     19          1           0        1.049005    2.770977   -0.116489
     20          1           0       -2.768822    0.803557    0.184225
     21          1           0        0.790549   -1.522002   -0.299719
     22          1           0       -3.506468   -2.486267    0.089460
     23          1           0       -1.783481    3.518097    1.286959
     24          1           0       -1.018850    4.100726   -0.196242
     25          1           0       -2.601259    3.303074   -0.262771
 ---------------------------------------------------------------------

 SCF Done:  E(UB3LYP) =  -614.202151081     A.U. after   33 cycles
 SCF Done:  E(UB3LYP) =  -614.202151082     a.u. after    2 cycles

 The electronic state is 2-A.
 Alpha  occ. eigenvalues --  -19.01396 -19.00153 -18.92375 -10.11028 -10.10332
 Alpha  occ. eigenvalues --  -10.07407 -10.05749 -10.03871 -10.02382 -10.00141
 Alpha  occ. eigenvalues --   -9.99988  -9.99891  -9.99681  -0.93637  -0.92943
 Alpha  occ. eigenvalues --   -0.84012  -0.69915  -0.65420  -0.62429  -0.59063
 Alpha  occ. eigenvalues --   -0.54321  -0.52337  -0.49265  -0.43843  -0.41882
 Alpha  occ. eigenvalues --   -0.38724  -0.35582  -0.33982  -0.32900  -0.31832
 Alpha  occ. eigenvalues --   -0.30779  -0.30403  -0.29039  -0.28331  -0.28226
 Alpha  occ. eigenvalues --   -0.26738  -0.26230  -0.24538  -0.23492  -0.22965
 Alpha  occ. eigenvalues --   -0.21538  -0.20163  -0.18316  -0.17410  -0.16043
 Alpha  occ. eigenvalues --   -0.10939  -0.09651  -0.07582   0.06367
 Alpha virt. eigenvalues --    0.07906   0.09156   0.10135   0.10276   0.10933
 Alpha virt. eigenvalues --    0.12028   0.12076   0.12932   0.13924   0.14671
 Alpha virt. eigenvalues --    0.15390   0.15823   0.16406   0.17047   0.17287

  Beta  occ. eigenvalues --  -19.01415 -19.00069 -18.92030 -10.11021 -10.09985
  Beta  occ. eigenvalues --  -10.07468 -10.05746 -10.03869 -10.02412  -9.99922
  Beta  occ. eigenvalues --   -9.99800  -9.99741  -9.99333  -0.93276  -0.92970
  Beta  occ. eigenvalues --   -0.83480  -0.69575  -0.65376  -0.62137  -0.58633
  Beta  occ. eigenvalues --   -0.54012  -0.52167  -0.48509  -0.43709  -0.41671
  Beta  occ. eigenvalues --   -0.38617  -0.35471  -0.33794  -0.32744  -0.31657
  Beta  occ. eigenvalues --   -0.30536  -0.30117  -0.28855  -0.28253  -0.26841
  Beta  occ. eigenvalues --   -0.26624  -0.26118  -0.24412  -0.23230  -0.22672
  Beta  occ. eigenvalues --   -0.21409  -0.20028  -0.18134  -0.16653  -0.14614
  Beta  occ. eigenvalues --   -0.10584  -0.07938  -0.06395
  Beta virt. eigenvalues --    0.07832   0.09071   0.10056   0.10243   0.10849
  Beta virt. eigenvalues --    0.11839   0.11987   0.12564   0.13062   0.13822
  Beta virt. eigenvalues --    0.14667   0.15597   0.15743   0.16316   0.17075

 Mulliken charges and spin densities:
               1          2
     1  C   -0.356500  -0.003321
     2  C   -0.167684  -0.092289
     3  O   -0.116373   0.006217
     4  C   -0.716861  -0.057426
     5  C   -0.546256   0.316753
     6  C    0.402135   0.001260
     7  C   -0.937654   0.165089
     8  C    1.255582   0.065639
     9  C   -0.479467   0.159386
    10  C    0.282325   0.208755
    11  O   -0.437790   0.124864
    12  O   -0.251510   0.019647
    13  C   -0.475908  -0.017745
    14  H    0.124206   0.007781
    15  H    0.077956   0.012042
    16  H    0.161590  -0.004189
    17  H    0.124061   0.028708
    18  H    0.060306   0.072829
    19  H    0.094331  -0.018345
    20  H    0.132606  -0.010951
    21  H    0.166613  -0.013891
    22  H    0.256414  -0.000779
    23  H    0.112030   0.021594
    24  H    0.125762  -0.004128
    25  H    0.110086   0.012502
 Sum of Mulliken charges =  -1.00000   1.00000

 Dipole moment (field-independent basis, Debye):
    X=              2.6135    Y=              1.3070    Z=              0.5463  Tot=              2.9727
 Quadrupole moment (field-independent basis, Debye-Ang):
   XX=            -93.1293   YY=           -106.0037   ZZ=            -86.9807
   XY=             -5.6153   XZ=             -0.1127   YZ=             -1.3435

 Summary of Natural Population Analysis:

                                       Natural Population
                Natural  -----------------------------------------------
    Atom  No    Charge         Core      Valence    Rydberg      Total
 -----------------------------------------------------------------------
      C    1   -0.30018      0.99967     2.29693    0.00358     3.30018
      C    2   -0.00957      0.99959     1.99863    0.01135     3.00957
      O    3   -0.28785      0.99985     3.27794    0.01005     4.28785
      C    4    0.14087      0.99938     1.84660    0.01315     2.85913
      C    5   -0.05854      0.99948     2.04973    0.00932     3.05854
      C    6   -0.03194      0.99953     2.02430    0.00811     3.03194
      C    7   -0.07417      0.99949     2.06627    0.00841     3.07417
      C    8   -0.03200      0.99947     2.02212    0.01041     3.03200
      C    9   -0.09905      0.99949     2.09200    0.00756     3.09905
      C   10    0.43843      0.99966     1.53696    0.02495     2.56157
      O   11   -0.30832      0.99987     3.30231    0.00615     4.30832
      O   12   -0.35550      0.99988     3.34823    0.00739     4.35550
      C   13   -0.28626      0.99964     2.28196    0.00465     3.28626
      H   14    0.09573      0.00000     0.40298    0.00129     0.40427
      H   15    0.09262      0.00000     0.40610    0.00127     0.40738
      H   16    0.10985      0.00000     0.38918    0.00097     0.39015
      H   17    0.08194      0.00000     0.41660    0.00146     0.41806
      H   18    0.08431      0.00000     0.41328    0.00241     0.41569
      H   19    0.08850      0.00000     0.40998    0.00151     0.41150
      H   20    0.09700      0.00000     0.40197    0.00103     0.40300
      H   21    0.10433      0.00000     0.39426    0.00141     0.39567
      H   22    0.22569      0.00000     0.26920    0.00511     0.27431
      H   23    0.09499      0.00000     0.40390    0.00111     0.40501
      H   24    0.09402      0.00000     0.40503    0.00095     0.40598
      H   25    0.09508      0.00000     0.40389    0.00103     0.40492
 =======================================================================
   * Total *   -0.00000     12.99501    34.86036    0.14464    48.00000

 Normal termination of Gaussian 16 at Wed Dec  9 23:06:12 2020.
